<event>
 7    1  0.5831876E-006  0.1851787E+03  0.7561462E-02  0.1162883E+00
          2   -1    0    0  501    0  0.00000000000E+00  0.00000000000E+00  0.19508895475E+04  0.19508895475E+04  0.00000000000E+00 0. -1.
         -2   -1    0    0    0  501 -0.00000000000E+00 -0.00000000000E+00 -0.18827568842E+02  0.18827568842E+02  0.00000000000E+00 0.  1.
         23    2    1    2    0    0 -0.12144602313E+03  0.91060689351E+02  0.65819623375E+03  0.68075487381E+03  0.84638823383E+02 0.  0.
          5    1    1    2  502    0  0.25734943844E+02 -0.97129100476E+02  0.62784402728E+03  0.63584742233E+03  0.41800000000E+01 0. -1.
         -5    1    1    2    0  502  0.95711079281E+02  0.60684111257E+01  0.64602171768E+03  0.65311482025E+03  0.41800000000E+01 0. -1.
        -11    1    3    3    0    0  0.69564106450E+00  0.42260007316E+02  0.16032428232E+03  0.16580189274E+03  0.00000000000E+00 0.  1.
         11    1    3    3    0    0 -0.12214166419E+03  0.48800682034E+02  0.49787195143E+03  0.51495298107E+03  0.00000000000E+00 0. -1.
</event>
<event>
 7    1  0.5831876E-006  0.9320563E+02  0.7561462E-02  0.1295269E+00
          1   -1    0    0  501    0  0.00000000000E+00  0.00000000000E+00  0.38753789676E+02  0.38753789676E+02  0.00000000000E+00 0. -1.
         -1   -1    0    0    0  501 -0.00000000000E+00 -0.00000000000E+00 -0.33140321293E+03  0.33140321293E+03  0.00000000000E+00 0.  1.
         23    2    1    2    0    0 -0.35836132840E+02  0.18530819075E+02 -0.11973746173E+03  0.15296329750E+03  0.86215375475E+02 0.  0.
          5    1    1    2  502    0 -0.27183526341E+02  0.17051877186E+02 -0.12774989906E+03  0.13178474771E+03  0.41800000000E+01 0.  1.
         -5    1    1    2    0  502  0.63019659181E+02 -0.35582696261E+02 -0.45162062460E+02  0.85408957388E+02  0.41800000000E+01 0.  1.
        -11    1    3    3    0    0 -0.43744734480E+02  0.39629922507E+02 -0.11595674700E+03  0.13011571668E+03  0.00000000000E+00 0.  1.
         11    1    3    3    0    0  0.79086016400E+01 -0.21099103433E+02 -0.37807147340E+01  0.22847580823E+02  0.00000000000E+00 0. -1.
</event>
<event>
 7    1  0.5831876E-006  0.1486899E+03  0.7561462E-02  0.1202092E+00
         -1   -1    0    0    0  501 -0.00000000000E+00  0.00000000000E+00  0.70808765258E+02  0.70808765258E+02  0.00000000000E+00 0.  1.
          1   -1    0    0  501    0  0.00000000000E+00 -0.00000000000E+00 -0.33166597258E+03  0.33166597258E+03  0.00000000000E+00 0. -1.
         23    2    1    2    0    0  0.46342243094E+02  0.95509351361E+02 -0.15042862901E+03  0.20470869190E+03  0.89483162795E+02 0.  0.
          5    1    1    2  502    0 -0.55767498139E+02  0.68394580580E+01 -0.17119371382E+02  0.58884100671E+02  0.41800000000E+01 0.  1.
         -5    1    1    2    0  502  0.94252550456E+01 -0.10234880942E+03 -0.93309206933E+02  0.13888194526E+03  0.41800000000E+01 0.  1.
        -11    1    3    3    0    0  0.24580564867E+02 -0.12789431916E+02 -0.22541888790E+02  0.35719889251E+02  0.00000000000E+00 0.  1.
         11    1    3    3    0    0  0.21761678227E+02  0.10829878328E+03 -0.12788674022E+03  0.16898880265E+03  0.00000000000E+00 0. -1.
</event>
<event>
 7    1  0.5831876E-006  0.1085843E+03  0.7561462E-02  0.1263214E+00
         -1   -1    0    0    0  501 -0.00000000000E+00  0.00000000000E+00  0.17595935399E+02  0.17595935399E+02  0.00000000000E+00 0.  1.
          1   -1    0    0  501    0  0.00000000000E+00 -0.00000000000E+00 -0.23224522311E+04  0.23224522311E+04  0.00000000000E+00 0. -1.
         23    2    1    2    0    0  0.75880199921E+01 -0.71125582571E+02 -0.20699949722E+03  0.23724844831E+03  0.91222847085E+02 0.  0.
          5    1    1    2  502    0 -0.31100377327E+02 -0.61419047906E+01 -0.15517135154E+03  0.15843161681E+03  0.41800000000E+01 0. -1.
         -5    1    1    2    0  502  0.23512357335E+02  0.77267487361E+02 -0.19426854470E+04  0.19443681014E+04  0.41800000000E+01 0. -1.
        -11    1    3    3    0    0 -0.29455776859E+01  0.16147007724E+02 -0.53371120237E+01  0.17259404714E+02  0.00000000000E+00 0.  1.
         11    1    3    3    0    0  0.10533597678E+02 -0.87272590294E+02 -0.20166238520E+03  0.21998904359E+03  0.00000000000E+00 0. -1.
</event>
<event>
 7    1  0.5831876E-006  0.1431052E+03  0.7561462E-02  0.1209211E+00
          2   -1    0    0  501    0  0.00000000000E+00  0.00000000000E+00  0.12967439043E+04  0.12967439043E+04  0.00000000000E+00 0. -1.
         -2   -1    0    0    0  501 -0.00000000000E+00 -0.00000000000E+00 -0.21880488229E+02  0.21880488229E+02  0.00000000000E+00 0.  1.
         23    2    1    2    0    0  0.14558606790E+02  0.12525263356E+03  0.47077276825E+03  0.49515007815E+03  0.87443840956E+02 0.  0.
          5    1    1    2  502    0  0.31649320011E+02 -0.19318638105E+02  0.43717022715E+03  0.43875980803E+03  0.41800000000E+01 0. -1.
         -5    1    1    2    0  502 -0.46207926800E+02 -0.10593399545E+03  0.36692042067E+03  0.38471450635E+03  0.41800000000E+01 0. -1.
        -11    1    3    3    0    0 -0.77543645986E+01  0.96698941262E+02  0.42908167207E+03  0.43991123732E+03  0.00000000000E+00 0. -1.
         11    1    3    3    0    0  0.22312971389E+02  0.28553692293E+02  0.41691096180E+02  0.55238840832E+02  0.00000000000E+00 0.  1.
</event>
<event>
 7    1  0.5831876E-006  0.9106486E+02  0.7561462E-02  0.1300293E+00
          1   -1    0    0  501    0  0.00000000000E+00  0.00000000000E+00  0.37271719232E+03  0.37271719232E+03  0.00000000000E+00 0.  1.
         -1   -1    0    0    0  501 -0.00000000000E+00 -0.00000000000E+00 -0.49832616986E+02  0.49832616986E+02  0.00000000000E+00 0. -1.
         23    2    1    2    0    0  0.79768496052E+02  0.24465109192E+02  0.11015259700E+03  0.16204376618E+03  0.84634703292E+02 0.  0.
          5    1    1    2  502    0 -0.16886043078E+02 -0.29367290590E+02  0.19044650055E+03  0.19348105380E+03  0.41800000000E+01 0.  1.
         -5    1    1    2    0  502 -0.62882452975E+02  0.49021813978E+01  0.22285477788E+02  0.67024989331E+02  0.41800000000E+01 0.  1.
        -11    1    3    3    0    0  0.11913433291E+02  0.96508073891E+01  0.87731370382E+02  0.89060997778E+02  0.00000000000E+00 0.  1.
         11    1    3    3    0    0  0.67855062762E+02  0.14814301803E+02  0.22421226616E+02  0.72982768399E+02  0.00000000000E+00 0. -1.
</event>
<event>
 7    1  0.5831876E-006  0.1093975E+03  0.7561462E-02  0.1261690E+00
          2   -1    0    0  501    0  0.00000000000E+00  0.00000000000E+00  0.64684637759E+03  0.64684637759E+03  0.00000000000E+00 0. -1.
         -2   -1    0    0    0  501 -0.00000000000E+00 -0.00000000000E+00 -0.24075815407E+02  0.24075815407E+02  0.00000000000E+00 0.  1.
         23    2    1    2    0    0  0.45362543159E+01  0.37727655960E+02  0.14250142466E+03  0.17317793700E+03  0.90774380768E+02 0.  0.
          5    1    1    2  502    0  0.28420341510E+02  0.33101890319E+02  0.26711341065E+03  0.27068523695E+03  0.41800000000E+01 0.  1.
         -5    1    1    2    0  502 -0.32956595826E+02 -0.70829546278E+02  0.21315572686E+03  0.22705901904E+03  0.41800000000E+01 0.  1.
        -11    1    3    3    0    0  0.33163141519E+02 -0.15261226678E+02  0.38935098382E+02  0.53372660428E+02  0.00000000000E+00 0.  1.
         11    1    3    3    0    0 -0.28626887203E+02  0.52988882638E+02  0.10356632628E+03  0.11980527657E+03  0.00000000000E+00 0. -1.
</event>
<event>
 7    1  0.5831876E-006  0.1070297E+03  0.7561462E-02  0.1266171E+00
         -1   -1    0    0    0  501 -0.00000000000E+00  0.00000000000E+00  0.54408006872E+02  0.54408006872E+02  0.00000000000E+00 0. -1.
          1   -1    0    0  501    0  0.00000000000E+00 -0.00000000000E+00 -0.27249885462E+03  0.27249885462E+03  0.00000000000E+00 0.  1.
         23    2    1    2    0    0  0.24597082581E+02 -0.48872634848E+02 -0.49350752744E+02  0.10985054182E+03  0.81474498058E+02 0.  0.
          5    1    1    2  502    0  0.44793152315E+02  0.78812862390E+01 -0.24636266971E+02  0.51893730039E+02  0.41800000000E+01 0.  1.
         -5    1    1    2    0  502 -0.69390234897E+02  0.40991348609E+02 -0.14410382803E+03  0.16516258963E+03  0.41800000000E+01 0.  1.
        -11    1    3    3    0    0 -0.57861413839E+01  0.15476861896E+02 -0.32893950645E+02  0.36810659805E+02  0.00000000000E+00 0.  1.
         11    1    3    3    0    0  0.30383223965E+02 -0.64349496744E+02 -0.16456802099E+02  0.73039882017E+02  0.00000000000E+00 0. -1.
</event>
<event>
 7    1  0.5831876E-006  0.5460215E+02  0.7561462E-02  0.1421990E+00
         -1   -1    0    0    0  501 -0.00000000000E+00  0.00000000000E+00  0.28238499382E+02  0.28238499382E+02  0.00000000000E+00 0.  1.
          1   -1    0    0  501    0  0.00000000000E+00 -0.00000000000E+00 -0.50959341854E+03  0.50959341854E+03  0.00000000000E+00 0. -1.
         23    2    1    2    0    0 -0.41340415323E+02 -0.17524776567E+02 -0.15944284430E+03  0.18956744737E+03  0.92182692354E+02 0.  0.
          5    1    1    2  502    0  0.87073862158E+01  0.78140472726E+01 -0.31242767774E+03  0.31267459783E+03  0.41800000000E+01 0.  1.
         -5    1    1    2    0  502  0.32633029107E+02  0.97107292946E+01 -0.94843971209E+01  0.35589872729E+02  0.41800000000E+01 0.  1.
        -11    1    3    3    0    0 -0.15190633937E+02 -0.29907534796E+02 -0.15698608633E+03  0.16052989534E+03  0.00000000000E+00 0. -1.
         11    1    3    3    0    0 -0.26149781386E+02  0.12382758229E+02 -0.24567579703E+01  0.29037552025E+02  0.00000000000E+00 0.  1.
</event>
<event>
 7    1  0.5831876E-006  0.1543976E+03  0.7561462E-02  0.1195171E+00
         -2   -1    0    0    0  501 -0.00000000000E+00  0.00000000000E+00  0.59821078877E+02  0.59821078877E+02  0.00000000000E+00 0.  1.
          2   -1    0    0  501    0  0.00000000000E+00 -0.00000000000E+00 -0.46539752746E+03  0.46539752746E+03  0.00000000000E+00 0. -1.
         23    2    1    2    0    0  0.75521165461E+02  0.10091751388E+03 -0.20528671041E+03  0.25754152073E+03  0.91089024530E+02 0.  0.
          5    1    1    2  502    0 -0.79432083874E+02 -0.34487280305E+02 -0.17692620205E+03  0.19702584050E+03  0.41800000000E+01 0.  1.
         -5    1    1    2    0  502  0.39109184131E+01 -0.66430233571E+02 -0.23363536117E+02  0.70651245106E+02  0.41800000000E+01 0.  1.
        -11    1    3    3    0    0  0.71593855038E+02  0.19898050341E+02 -0.93701715598E+02  0.11958939749E+03  0.00000000000E+00 0. -1.
         11    1    3    3    0    0  0.39273104228E+01  0.81019463535E+02 -0.11158499481E+03  0.13795212324E+03  0.00000000000E+00 0.  1.
</event>
<event>
 7    1  0.5831876E-006  0.1086480E+03  0.7561462E-02  0.1263094E+00
         -1   -1    0    0    0  501 -0.00000000000E+00  0.00000000000E+00  0.10943663454E+03  0.10943663454E+03  0.00000000000E+00 0.  1.
          1   -1    0    0  501    0  0.00000000000E+00 -0.00000000000E+00 -0.15587954867E+03  0.15587954867E+03  0.00000000000E+00 0. -1.
         23    2    1    2    0    0 -0.21497827301E+02 -0.69055050185E+02 -0.19905297255E+02  0.11839983733E+03  0.91605371496E+02 0.  0.
          5    1    1    2  502    0  0.63937817147E+02  0.77977423216E+02 -0.17958196273E+02  0.10251093701E+03  0.41800000000E+01 0.  1.
         -5    1    1    2    0  502 -0.42439989847E+02 -0.89223730308E+01 -0.85794205970E+01  0.44405408865E+02  0.41800000000E+01 0.  1.
        -11    1    3    3    0    0 -0.15740510863E+02 -0.36622625284E+02 -0.56511164689E+02  0.69155564486E+02  0.00000000000E+00 0. -1.
         11    1    3    3    0    0 -0.57573164379E+01 -0.32432424901E+02  0.36605867435E+02  0.49244272847E+02  0.00000000000E+00 0.  1.
</event>
<event>
 7    1  0.5831876E-006  0.3120611E+03  0.7561462E-02  0.1079362E+00
         -2   -1    0    0    0  501 -0.00000000000E+00  0.00000000000E+00  0.73205855595E+02  0.73205855595E+02  0.00000000000E+00 0.  1.
          2   -1    0    0  501    0  0.00000000000E+00 -0.00000000000E+00 -0.13862999111E+04  0.13862999111E+04  0.00000000000E+00 0. -1.
         23    2    1    2    0    0 -0.25189359191E+03  0.16075769284E+03 -0.68657270490E+03  0.75419018296E+03  0.90151736054E+02 0.  0.
          5    1    1    2  502    0  0.23934832594E+03 -0.10761985365E+03 -0.45509213717E+03  0.52535319524E+03  0.41800000000E+01 0. -1.
         -5    1    1    2    0  502  0.12545265963E+02 -0.53137839196E+02 -0.17142921340E+03  0.17996238846E+03  0.41800000000E+01 0. -1.
        -11    1    3    3    0    0 -0.12375092010E+03  0.38019702985E+02 -0.22351855404E+03  0.25830279139E+03  0.00000000000E+00 0.  1.
         11    1    3    3    0    0 -0.12814267181E+03  0.12273798986E+03 -0.46305415086E+03  0.49588739157E+03  0.00000000000E+00 0. -1.
</event>
<event>
 7    1  0.5831876E-006  0.1351071E+03  0.7561462E-02  0.1220069E+00
          1   -1    0    0  501    0  0.00000000000E+00  0.00000000000E+00  0.17931519591E+04  0.17931519591E+04  0.00000000000E+00 0. -1.
         -1   -1    0    0    0  501 -0.00000000000E+00 -0.00000000000E+00 -0.18269661891E+02  0.18269661891E+02  0.00000000000E+00 0.  1.
         23    2    1    2    0    0  0.10458675252E+03  0.92695453250E+01  0.34109731192E+03  0.36836430865E+03  0.91217182659E+02 0.  0.
          5    1    1    2  502    0 -0.12799605937E+03 -0.26293219951E+02  0.12670625007E+04  0.12737892988E+04  0.41800000000E+01 0. -1.
         -5    1    1    2    0  502  0.23409306851E+02  0.17023674626E+02  0.16672248452E+03  0.16926801349E+03  0.41800000000E+01 0. -1.
        -11    1    3    3    0    0  0.70851914489E+01 -0.85635479429E+01 -0.19500710883E+01  0.11284372756E+02  0.00000000000E+00 0.  1.
         11    1    3    3    0    0  0.97501561071E+02  0.17833093268E+02  0.34304738301E+03  0.35707993589E+03  0.00000000000E+00 0. -1.
</event>
<event>
 7    1  0.5831876E-006  0.1096578E+03  0.7561462E-02  0.1261205E+00
         -2   -1    0    0    0  501 -0.00000000000E+00  0.00000000000E+00  0.31775189766E+02  0.31775189766E+02  0.00000000000E+00 0.  1.
          2   -1    0    0  501    0  0.00000000000E+00 -0.00000000000E+00 -0.83478250592E+03  0.83478250592E+03  0.00000000000E+00 0. -1.
         23    2    1    2    0    0 -0.36610062930E+02  0.10235218450E+03 -0.23109866004E+03  0.27112255375E+03  0.91019679736E+02 0.  0.
          5    1    1    2  502    0  0.13228465588E+02 -0.20108059750E+02 -0.89691712829E+01  0.26023927494E+02  0.41800000000E+01 0. -1.
         -5    1    1    2    0  502  0.23381597342E+02 -0.82244124751E+02 -0.56293948483E+03  0.56941121444E+03  0.41800000000E+01 0. -1.
        -11    1    3    3    0    0 -0.18035273325E+02  0.66503918223E+02 -0.21807026207E+03  0.22869779497E+03  0.00000000000E+00 0. -1.
         11    1    3    3    0    0 -0.18574789605E+02  0.35848266277E+02 -0.13028397966E+02  0.42424758780E+02  0.00000000000E+00 0.  1.
</event>
<event>
 7    1  0.5831876E-006  0.6643103E+02  0.7561462E-02  0.1372668E+00
         -1   -1    0    0    0  501 -0.00000000000E+00  0.00000000000E+00  0.21712389649E+02  0.21712389649E+02  0.00000000000E+00 0.  1.
          1   -1    0    0  501    0  0.00000000000E+00 -0.00000000000E+00 -0.58276515672E+03  0.58276515672E+03  0.00000000000E+00 0. -1.
         23    2    1    2    0    0 -0.26649442937E+02 -0.38730182160E+02 -0.23917195664E+03  0.26043540724E+03  0.91723261414E+02 0.  0.
          5    1    1    2  502    0  0.27084751456E+02  0.78724002166E+01 -0.30904560904E+03  0.31035821129E+03  0.41800000000E+01 0. -1.
         -5    1    1    2    0  502 -0.43530851891E+00  0.30857781944E+02 -0.12835201396E+02  0.33683927842E+02  0.41800000000E+01 0.  1.
        -11    1    3    3    0    0 -0.41919944093E+02 -0.39922708267E+02 -0.23814958433E+03  0.24508433011E+03  0.00000000000E+00 0. -1.
         11    1    3    3    0    0  0.15270501155E+02  0.11925261070E+01 -0.10223723088E+01  0.15351077135E+02  0.00000000000E+00 0.  1.
</event>
<event>
 7    1  0.5831876E-006  0.1335953E+03  0.7561462E-02  0.1222216E+00
         -1   -1    0    0    0  501 -0.00000000000E+00  0.00000000000E+00  0.38354578888E+02  0.38354578888E+02  0.00000000000E+00 0.  1.
          1   -1    0    0  501    0  0.00000000000E+00 -0.00000000000E+00 -0.48276257658E+03  0.48276257658E+03  0.00000000000E+00 0. -1.
         23    2    1    2    0    0 -0.71073310119E+02 -0.35198112658E+02 -0.16601700584E+03  0.20577709109E+03  0.92153363721E+02 0.  0.
          5    1    1    2  502    0  0.19088919625E+02  0.76693158382E+02 -0.12303044962E+03  0.14628804233E+03  0.41800000000E+01 0. -1.
         -5    1    1    2    0  502  0.51984390494E+02 -0.41495045724E+02 -0.15536054223E+03  0.16905202204E+03  0.41800000000E+01 0. -1.
        -11    1    3    3    0    0 -0.85639201248E+02 -0.51188164854E+02 -0.13195979905E+03  0.16543182758E+03  0.00000000000E+00 0.  1.
         11    1    3    3    0    0  0.14565891129E+02  0.15990052197E+02 -0.34057206784E+02  0.40345263508E+02  0.00000000000E+00 0. -1.
</event>
<event>
 7    1  0.5831876E-006  0.1141585E+03  0.7561462E-02  0.1253057E+00
         -1   -1    0    0    0  501 -0.00000000000E+00  0.00000000000E+00  0.10925141243E+03  0.10925141243E+03  0.00000000000E+00 0.  1.
          1   -1    0    0  501    0  0.00000000000E+00 -0.00000000000E+00 -0.21853169175E+03  0.21853169175E+03  0.00000000000E+00 0. -1.
         23    2    1    2    0    0  0.55606202558E+01  0.10160629770E+03 -0.77282809552E+01  0.13721837564E+03  0.91730017202E+02 0.  0.
          5    1    1    2  502    0 -0.15084194338E+02 -0.34584131253E+02 -0.11527613274E+03  0.12136578692E+03  0.41800000000E+01 0.  1.
         -5    1    1    2    0  502  0.95235740823E+01 -0.67022166446E+02  0.13724134376E+02  0.69198941630E+02  0.41800000000E+01 0.  1.
        -11    1    3    3    0    0  0.92788565936E+01 -0.83675301363E+01  0.20146070821E+02  0.23706052177E+02  0.00000000000E+00 0.  1.
         11    1    3    3    0    0 -0.37182363378E+01  0.10997382783E+03 -0.27874351776E+02  0.11351232346E+03  0.00000000000E+00 0. -1.
</event>
<event>
 7    1  0.5831876E-006  0.1668350E+03  0.7561462E-02  0.1181189E+00
         -3   -1    0    0    0  501 -0.00000000000E+00  0.00000000000E+00  0.92284801164E+02  0.92284801164E+02  0.00000000000E+00 0.  1.
          3   -1    0    0  501    0  0.00000000000E+00 -0.00000000000E+00 -0.37656632853E+03  0.37656632853E+03  0.00000000000E+00 0. -1.
         23    2    1    2    0    0 -0.76313912031E+02 -0.10692439780E+03 -0.41541300462E+02  0.16582007244E+03  0.92271213082E+02 0.  0.
          5    1    1    2  502    0 -0.25585619220E+02  0.50208854415E+02 -0.40440855159E+02  0.69487323581E+02  0.41800000000E+01 0. -1.
         -5    1    1    2    0  502  0.10189953125E+03  0.56715543389E+02 -0.20229937175E+03  0.23354373368E+03  0.41800000000E+01 0. -1.
        -11    1    3    3    0    0  0.19635481889E+02 -0.45437752624E+01 -0.36808207499E+01  0.20487715442E+02  0.00000000000E+00 0.  1.
         11    1    3    3    0    0 -0.95949393920E+02 -0.10238062254E+03 -0.37860479712E+02  0.14533235699E+03  0.00000000000E+00 0. -1.
</event>
<event>
 7    1  0.5831876E-006  0.1153401E+03  0.7561462E-02  0.1250989E+00
         -1   -1    0    0    0  501 -0.00000000000E+00  0.00000000000E+00  0.35839734322E+02  0.35839734322E+02  0.00000000000E+00 0.  1.
          1   -1    0    0  501    0  0.00000000000E+00 -0.00000000000E+00 -0.11661833533E+04  0.11661833533E+04  0.00000000000E+00 0. -1.
         23    2    1    2    0    0  0.36486513212E+02 -0.38942117672E+02 -0.55633482479E+02  0.11873914305E+03  0.90311381029E+02 0.  0.
          5    1    1    2  502    0  0.18371419309E+02 -0.31507297057E+02 -0.15718716520E+03  0.16141714940E+03  0.41800000000E+01 0. -1.
         -5    1    1    2    0  502 -0.54857932520E+02  0.70449414729E+02 -0.91752297126E+03  0.92186679515E+03  0.41800000000E+01 0. -1.
        -11    1    3    3    0    0  0.16896221681E+02 -0.67705278148E+02 -0.41412268640E+02  0.81144704017E+02  0.00000000000E+00 0. -1.
         11    1    3    3    0    0  0.19590291531E+02  0.28763160476E+02 -0.14221213839E+02  0.37594439029E+02  0.00000000000E+00 0.  1.
</event>
<event>
 7    1  0.5831876E-006  0.1031744E+03  0.7561462E-02  0.1273759E+00
          1   -1    0    0  501    0  0.00000000000E+00  0.00000000000E+00  0.57145539721E+03  0.57145539721E+03  0.00000000000E+00 0. -1.
         -1   -1    0    0    0  501 -0.00000000000E+00 -0.00000000000E+00 -0.22802043726E+02  0.22802043726E+02  0.00000000000E+00 0.  1.
         23    2    1    2    0    0 -0.33610505097E+02  0.88783846955E+01  0.18808240122E+03  0.21102435829E+03  0.89150425549E+02 0.  0.
          5    1    1    2  502    0  0.66919090894E+02  0.29480032679E+02  0.26478334119E+03  0.27472700491E+03  0.41800000000E+01 0.  1.
         -5    1    1    2    0  502 -0.33308585798E+02 -0.38358417374E+02  0.95787611078E+02  0.10850607774E+03  0.41800000000E+01 0.  1.
        -11    1    3    3    0    0  0.23954904946E+02  0.50726787037E+00  0.14621284519E+02  0.28069142357E+02  0.00000000000E+00 0.  1.
         11    1    3    3    0    0 -0.57565410043E+02  0.83711168252E+01  0.17346111670E+03  0.18295521593E+03  0.00000000000E+00 0. -1.
</event>
<event>
 7    1  0.5831876E-006  0.1554816E+03  0.7561462E-02  0.1193895E+00
         -2   -1    0    0    0  501 -0.00000000000E+00  0.00000000000E+00  0.48029004390E+03  0.48029004390E+03  0.00000000000E+00 0.  1.
          2   -1    0    0  501    0  0.00000000000E+00 -0.00000000000E+00 -0.30903197310E+03  0.30903197310E+03  0.00000000000E+00 0. -1.
         23    2    1    2    0    0 -0.13853830033E+03  0.16474548207E+02  0.42200805639E+03  0.44772637458E+03  0.53887247460E+02 0.  0.
          5    1    1    2  502    0  0.90575696076E+02 -0.55125871641E+02 -0.25844161619E+03  0.27937852427E+03  0.41800000000E+01 0. -1.
         -5    1    1    2    0  502  0.47962604249E+02  0.38651323435E+02  0.76916305978E+01  0.62217118150E+02  0.41800000000E+01 0.  1.
        -11    1    3    3    0    0 -0.20488336897E+02 -0.89404134233E+01  0.29186520186E+02  0.36763513183E+02  0.00000000000E+00 0. -1.
         11    1    3    3    0    0 -0.11804996343E+03  0.25414961630E+02  0.39282153621E+03  0.41096286140E+03  0.00000000000E+00 0.  1.
</event>
<event>
 7    1  0.5831876E-006  0.2205841E+03  0.7561462E-02  0.1133448E+00
          4   -1    0    0  501    0  0.00000000000E+00  0.00000000000E+00  0.31843211848E+03  0.31843211848E+03  0.00000000000E+00 0. -1.
         -4   -1    0    0    0  501 -0.00000000000E+00 -0.00000000000E+00 -0.15772787950E+03  0.15772787950E+03  0.00000000000E+00 0.  1.
         23    2    1    2    0    0  0.14672425559E+03  0.12812276168E+03  0.55891883351E+02  0.22204203023E+03  0.90748616111E+02 0.  0.
          5    1    1    2  502    0  0.19820954485E+02  0.11515079723E+00  0.16329550227E+02  0.26019417884E+02  0.41800000000E+01 0. -1.
         -5    1    1    2    0  502 -0.16654521008E+03 -0.12823791248E+03  0.88482805405E+02  0.22809854986E+03  0.41800000000E+01 0. -1.
        -11    1    3    3    0    0  0.15446435899E+03  0.10626877271E+03  0.63002690276E+02  0.19779188364E+03  0.00000000000E+00 0. -1.
         11    1    3    3    0    0 -0.77401034020E+01  0.21853988968E+02 -0.71108069256E+01  0.24250146590E+02  0.00000000000E+00 0.  1.
</event>
<event>
 7    1  0.5831876E-006  0.8184059E+02  0.7561462E-02  0.1323908E+00
          3   -1    0    0  501    0  0.00000000000E+00  0.00000000000E+00  0.18043164889E+03  0.18043164889E+03  0.00000000000E+00 0. -1.
         -3   -1    0    0    0  501 -0.00000000000E+00 -0.00000000000E+00 -0.72972278880E+02  0.72972278880E+02  0.00000000000E+00 0.  1.
         23    2    1    2    0    0  0.21854981018E+02  0.40295750386E+01  0.13549269964E+02  0.95408739127E+02  0.91789798534E+02 0.  0.
          5    1    1    2  502    0  0.22938256511E+02  0.11324099807E+02 -0.21180827659E+02  0.33473851116E+02  0.41800000000E+01 0. -1.
         -5    1    1    2    0  502 -0.44793237529E+02 -0.15353674845E+02  0.11509092770E+03  0.12452133752E+03  0.41800000000E+01 0. -1.
        -11    1    3    3    0    0 -0.27038416504E+02 -0.21978753715E+02  0.19125408615E+02  0.39748243189E+02  0.00000000000E+00 0. -1.
         11    1    3    3    0    0  0.48893397522E+02  0.26008328754E+02 -0.55761386506E+01  0.55660495938E+02  0.00000000000E+00 0.  1.
</event>
<event>
 7    1  0.5831876E-006  0.1138218E+03  0.7561462E-02  0.1253652E+00
         -1   -1    0    0    0  501 -0.00000000000E+00  0.00000000000E+00  0.80165007124E+02  0.80165007124E+02  0.00000000000E+00 0. -1.
          1   -1    0    0  501    0  0.00000000000E+00 -0.00000000000E+00 -0.26986803695E+03  0.26986803695E+03  0.00000000000E+00 0.  1.
         23    2    1    2    0    0 -0.79927726318E+02  0.82847969929E+00 -0.17884501214E+02  0.12296826723E+03  0.91718109169E+02 0.  0.
          5    1    1    2  502    0  0.27720358711E+02  0.35347562551E+02 -0.15470758017E+03  0.16115140777E+03  0.41800000000E+01 0. -1.
         -5    1    1    2    0  502  0.52207367607E+02 -0.36176042251E+02 -0.17110948443E+02  0.65913369069E+02  0.41800000000E+01 0. -1.
        -11    1    3    3    0    0 -0.65133939386E+02 -0.39323893545E+02  0.12489689650E+01  0.76094405753E+02  0.00000000000E+00 0. -1.
         11    1    3    3    0    0 -0.14793786932E+02  0.40152373244E+02 -0.19133470179E+02  0.46873861479E+02  0.00000000000E+00 0.  1.
</event>
<event>
 7    1  0.5831876E-006  0.1344961E+03  0.7561462E-02  0.1220933E+00
          3   -1    0    0  501    0  0.00000000000E+00  0.00000000000E+00  0.51189025757E+02  0.51189025757E+02  0.00000000000E+00 0. -1.
         -3   -1    0    0    0  501 -0.00000000000E+00 -0.00000000000E+00 -0.46790277619E+03  0.46790277619E+03  0.00000000000E+00 0.  1.
         23    2    1    2    0    0  0.77338266843E+02 -0.68376110826E+02 -0.22197173354E+03  0.26566088644E+03  0.10318796463E+03 0.  0.
          5    1    1    2  502    0 -0.93082494619E+02  0.54804388153E+02 -0.74381546926E+02  0.13121721948E+03  0.41800000000E+01 0.  1.
         -5    1    1    2    0  502  0.15744227776E+02  0.13571722673E+02 -0.12036046997E+03  0.12221369603E+03  0.41800000000E+01 0.  1.
        -11    1    3    3    0    0  0.77311566721E+02 -0.62488007904E+01 -0.83925347805E+02  0.11427856258E+03  0.00000000000E+00 0. -1.
         11    1    3    3    0    0  0.26700122500E-01 -0.62127310036E+02 -0.13804638573E+03  0.15138232386E+03  0.00000000000E+00 0.  1.
</event>
<event>
 7    1  0.5831876E-006  0.1192526E+03  0.7561462E-02  0.1244335E+00
         -2   -1    0    0    0  501 -0.00000000000E+00  0.00000000000E+00  0.12292296876E+03  0.12292296876E+03  0.00000000000E+00 0.  1.
          2   -1    0    0  501    0  0.00000000000E+00 -0.00000000000E+00 -0.77194574003E+03  0.77194574003E+03  0.00000000000E+00 0. -1.
         23    2    1    2    0    0  0.42044433680E+02  0.58688920984E+02  0.47005169338E+02  0.12788068426E+03  0.94508516082E+02 0.  0.
          5    1    1    2  502    0 -0.87862012819E+02 -0.55428359672E+02 -0.71094927230E+03  0.71851122228E+03  0.41800000000E+01 0. -1.
         -5    1    1    2    0  502  0.45817579139E+02 -0.32605613115E+01  0.14921331687E+02  0.48476802262E+02  0.41800000000E+01 0.  1.
        -11    1    3    3    0    0  0.53629901602E+02  0.42106144506E+02 -0.85865898992E+01  0.68722800271E+02  0.00000000000E+00 0.  1.
         11    1    3    3    0    0 -0.11585467922E+02  0.16582776478E+02  0.55591759238E+02  0.59157883987E+02  0.00000000000E+00 0. -1.
</event>
<event>
 6    1  0.5831876E-006  0.1493432E+03  0.7561462E-02  0.1201282E+00
          2   -1    0    0  501    0  0.00000000000E+00  0.00000000000E+00  0.79446444954E+03  0.79446444954E+03  0.00000000000E+00 0. -1.
         -2   -1    0    0    0  501 -0.00000000000E+00 -0.00000000000E+00 -0.39979609201E+02  0.39979609201E+02  0.00000000000E+00 0.  1.
          5    1    1    2  502    0 -0.19836566615E+02  0.67287372912E+02  0.12865268900E+03  0.14659490685E+03  0.41800000000E+01 0.  1.
         -5    1    1    2    0  502  0.91100731502E+01 -0.24904768716E+02  0.32251157138E+03  0.32362698746E+03  0.41800000000E+01 0.  1.
        -11    1    1    2    0    0  0.82892648703E+02  0.40004464082E+02  0.14308569851E+03  0.17013249388E+03  0.00000000000E+00 0. -1.
         11    1    1    2    0    0 -0.72166155238E+02 -0.82387068278E+02  0.16023488145E+03  0.19408967055E+03  0.00000000000E+00 0.  1.
</event>
<event>
 7    1  0.5831876E-006  0.1437040E+03  0.7561462E-02  0.1208430E+00
         -1   -1    0    0    0  501 -0.00000000000E+00  0.00000000000E+00  0.17211825729E+02  0.17211825729E+02  0.00000000000E+00 0.  1.
          1   -1    0    0  501    0  0.00000000000E+00 -0.00000000000E+00 -0.14144983850E+04  0.14144983850E+04  0.00000000000E+00 0. -1.
         23    2    1    2    0    0  0.91886019789E+02  0.42099036938E+02 -0.42964884879E+03  0.45079842869E+03  0.91682716471E+02 0.  0.
          5    1    1    2  502    0 -0.84352551371E+02  0.21990394147E+02 -0.38886951405E+03  0.39854222075E+03  0.41800000000E+01 0. -1.
         -5    1    1    2    0  502 -0.75334684180E+01 -0.64089431085E+02 -0.57876819646E+03  0.58236956132E+03  0.41800000000E+01 0. -1.
        -11    1    3    3    0    0  0.71928418628E+02  0.70526959936E+02 -0.34168598404E+03  0.35622613769E+03  0.00000000000E+00 0. -1.
         11    1    3    3    0    0  0.19957601161E+02 -0.28427922998E+02 -0.87962864745E+02  0.94572290996E+02  0.00000000000E+00 0.  1.
</event>
<event>
 7    1  0.5831876E-006  0.1103875E+03  0.7561462E-02  0.1259854E+00
          2   -1    0    0  501    0  0.00000000000E+00  0.00000000000E+00  0.25822096088E+04  0.25822096088E+04  0.00000000000E+00 0. -1.
         -2   -1    0    0    0  501 -0.00000000000E+00 -0.00000000000E+00 -0.79994324340E+01  0.79994324340E+01  0.00000000000E+00 0.  1.
         23    2    1    2    0    0  0.46948366331E+02 -0.16560586542E+02  0.45081016819E+03  0.46254560169E+03  0.90775678295E+02 0.  0.
          5    1    1    2  502    0 -0.46022508842E+02  0.60404072957E+02  0.82004930467E+03  0.82356849007E+03  0.41800000000E+01 0.  1.
         -5    1    1    2    0  502 -0.92585748905E+00 -0.43843486416E+02  0.13033507035E+04  0.13040949495E+04  0.41800000000E+01 0.  1.
        -11    1    3    3    0    0 -0.10023594520E+02 -0.38375869357E+02  0.12738328139E+03  0.13341544204E+03  0.00000000000E+00 0.  1.
         11    1    3    3    0    0  0.56971960851E+02  0.21815282815E+02  0.32342688680E+03  0.32913015965E+03  0.00000000000E+00 0. -1.
</event>
<event>
 7    1  0.5831876E-006  0.1315330E+03  0.7561462E-02  0.1225199E+00
          2   -1    0    0  501    0  0.00000000000E+00  0.00000000000E+00  0.33737420929E+02  0.33737420929E+02  0.00000000000E+00 0.  1.
         -2   -1    0    0    0  501 -0.00000000000E+00 -0.00000000000E+00 -0.55330797938E+03  0.55330797938E+03  0.00000000000E+00 0. -1.
         23    2    1    2    0    0  0.34985402008E+02  0.73379996395E+02 -0.26945904191E+03  0.29582024968E+03  0.91065046126E+02 0.  0.
          5    1    1    2  502    0  0.38153296697E+02 -0.52169734055E+02 -0.68611139766E+02  0.94352085829E+02  0.41800000000E+01 0.  1.
         -5    1    1    2    0  502 -0.73138698705E+02 -0.21210262341E+02 -0.18150037677E+03  0.19687306481E+03  0.41800000000E+01 0.  1.
        -11    1    3    3    0    0 -0.31133030764E+02  0.27659970851E+02 -0.95562451260E+02  0.10424260973E+03  0.00000000000E+00 0.  1.
         11    1    3    3    0    0  0.66118432772E+02  0.45720025544E+02 -0.17389659065E+03  0.19157763995E+03  0.00000000000E+00 0. -1.
</event>
<event>
 7    1  0.5831876E-006  0.1639919E+03  0.7561462E-02  0.1184262E+00
          2   -1    0    0  501    0  0.00000000000E+00  0.00000000000E+00  0.43792985743E+03  0.43792985743E+03  0.00000000000E+00 0. -1.
         -2   -1    0    0    0  501 -0.00000000000E+00 -0.00000000000E+00 -0.76769062096E+02  0.76769062096E+02  0.00000000000E+00 0.  1.
         23    2    1    2    0    0 -0.13033321085E+03  0.57050733551E+02  0.11831171364E+03  0.20669803614E+03  0.92113432841E+02 0.  0.
          5    1    1    2  502    0  0.71314967905E+02 -0.71804486465E+02  0.65897283072E+02  0.12083721794E+03  0.41800000000E+01 0.  1.
         -5    1    1    2    0  502  0.59018242949E+02  0.14753752915E+02  0.17695179862E+03  0.18716366544E+03  0.41800000000E+01 0.  1.
        -11    1    3    3    0    0  0.88243538034E+01  0.19775416364E+02  0.23890467715E+01  0.21786322702E+02  0.00000000000E+00 0.  1.
         11    1    3    3    0    0 -0.13915756466E+03  0.37275317187E+02  0.11592266687E+03  0.18491171344E+03  0.00000000000E+00 0. -1.
</event>
<event>
 7    1  0.5831876E-006  0.8485232E+02  0.7561462E-02  0.1315819E+00
          1   -1    0    0  501    0  0.00000000000E+00  0.00000000000E+00  0.23166698398E+03  0.23166698398E+03  0.00000000000E+00 0. -1.
         -1   -1    0    0    0  501 -0.00000000000E+00 -0.00000000000E+00 -0.66740621344E+02  0.66740621344E+02  0.00000000000E+00 0.  1.
         23    2    1    2    0    0 -0.39069361483E+02 -0.32860307177E+02  0.30578534958E+02  0.10787375635E+03  0.89974917137E+02 0.  0.
          5    1    1    2  502    0  0.33984920894E+02 -0.70097255845E+01 -0.13345309764E+02  0.37412308050E+02  0.41800000000E+01 0. -1.
         -5    1    1    2    0  502  0.50844405886E+01  0.39870032761E+02  0.14769313744E+03  0.15312154093E+03  0.41800000000E+01 0. -1.
        -11    1    3    3    0    0  0.20631706998E+02  0.78596447789E+01 -0.10823434169E+02  0.24588372799E+02  0.00000000000E+00 0.  1.
         11    1    3    3    0    0 -0.59701068481E+02 -0.40719951956E+02  0.41401969127E+02  0.83285383547E+02  0.00000000000E+00 0. -1.
</event>
<event>
 7    1  0.5831876E-006  0.1608589E+03  0.7561462E-02  0.1187730E+00
          1   -1    0    0  501    0  0.00000000000E+00  0.00000000000E+00  0.75633021149E+03  0.75633021149E+03  0.00000000000E+00 0. -1.
         -1   -1    0    0    0  501 -0.00000000000E+00 -0.00000000000E+00 -0.53739900175E+02  0.53739900175E+02  0.00000000000E+00 0.  1.
         23    2    1    2    0    0 -0.85913455295E+02  0.12200530863E+03  0.17301617871E+03  0.24582250843E+03  0.90706617275E+02 0.  0.
          5    1    1    2  502    0  0.48533470091E+02 -0.88132529593E+02  0.14606639071E+03  0.17741393234E+03  0.41800000000E+01 0. -1.
         -5    1    1    2    0  502  0.37379985204E+02 -0.33872779040E+02  0.38350774189E+03  0.38683367091E+03  0.41800000000E+01 0. -1.
        -11    1    3    3    0    0 -0.95822648571E+02  0.73153079063E+02  0.96119016192E+02  0.15418241868E+03  0.00000000000E+00 0. -1.
         11    1    3    3    0    0  0.99091932769E+01  0.48852229569E+02  0.76897162523E+02  0.91640089749E+02  0.00000000000E+00 0.  1.
</event>
<event>
 7    1  0.5831876E-006  0.1508892E+03  0.7561462E-02  0.1199385E+00
         -1   -1    0    0    0  501 -0.00000000000E+00  0.00000000000E+00  0.19114340075E+03  0.19114340075E+03  0.00000000000E+00 0.  1.
          1   -1    0    0  501    0  0.00000000000E+00 -0.00000000000E+00 -0.16074343781E+03  0.16074343781E+03  0.00000000000E+00 0. -1.
         23    2    1    2    0    0 -0.10548417190E+03 -0.48802975848E+02  0.85632855773E+02  0.17242340211E+03  0.94277264674E+02 0.  0.
          5    1    1    2  502    0 -0.42375808221E+01 -0.27370434612E+02  0.11271936893E+02  0.30193157228E+02  0.41800000000E+01 0.  1.
         -5    1    1    2    0  502  0.10972175272E+03  0.76173410460E+02 -0.66504829730E+02  0.14927027922E+03  0.41800000000E+01 0.  1.
        -11    1    3    3    0    0 -0.51458834050E+02 -0.65766206073E+02  0.20245511246E+02  0.85924886899E+02  0.00000000000E+00 0. -1.
         11    1    3    3    0    0 -0.54025337848E+02  0.16963230225E+02  0.65387344527E+02  0.86498515210E+02  0.00000000000E+00 0.  1.
</event>
<event>
 6    1  0.5831876E-006  0.8918427E+02  0.7561462E-02  0.1304839E+00
          2   -1    0    0  501    0  0.00000000000E+00  0.00000000000E+00  0.13299722408E+03  0.13299722408E+03  0.00000000000E+00 0. -1.
         -2   -1    0    0    0  501 -0.00000000000E+00 -0.00000000000E+00 -0.63775149491E+02  0.63775149491E+02  0.00000000000E+00 0.  1.
          5    1    1    2  502    0  0.25343196428E+02  0.55987487229E+02  0.38127197815E+02  0.72443301586E+02  0.41800000000E+01 0. -1.
         -5    1    1    2    0  502 -0.13259064070E+02 -0.84186412350E+02  0.34725380674E+02  0.92122088922E+02  0.41800000000E+01 0.  1.
        -11    1    1    2    0    0 -0.96492775625E+01  0.13791450809E+02 -0.49259701027E+01  0.17537897660E+02  0.00000000000E+00 0.  1.
         11    1    1    2    0    0 -0.24348547954E+01  0.14407474312E+02  0.12954662054E+01  0.14669085405E+02  0.00000000000E+00 0. -1.
</event>
<event>
 7    1  0.5831876E-006  0.7746459E+02  0.7561462E-02  0.1336405E+00
          2   -1    0    0  501    0  0.00000000000E+00  0.00000000000E+00  0.40110103959E+03  0.40110103959E+03  0.00000000000E+00 0.  1.
         -2   -1    0    0    0  501 -0.00000000000E+00 -0.00000000000E+00 -0.68761721072E+02  0.68761721072E+02  0.00000000000E+00 0. -1.
         23    2    1    2    0    0  0.12952316232E+01 -0.56093668783E+02 -0.41295118456E+01  0.10653513965E+03  0.90468258570E+02 0.  0.
          5    1    1    2  502    0 -0.13431315152E+02  0.46450281367E+02  0.34269002933E+03  0.34610974772E+03  0.41800000000E+01 0. -1.
         -5    1    1    2    0  502  0.12136083529E+02  0.96433874162E+01 -0.62211989643E+01  0.17217873296E+02  0.41800000000E+01 0. -1.
        -11    1    3    3    0    0  0.15973043466E+02 -0.68982377574E+02  0.21785305290E+02  0.74083102391E+02  0.00000000000E+00 0.  1.
         11    1    3    3    0    0 -0.14677811842E+02  0.12888708791E+02 -0.25914817136E+02  0.32452037255E+02  0.00000000000E+00 0. -1.
</event>
<event>
 7    1  0.5831876E-006  0.9039266E+02  0.7561462E-02  0.1301904E+00
         -2   -1    0    0    0  501 -0.00000000000E+00  0.00000000000E+00  0.10902014002E+02  0.10902014002E+02  0.00000000000E+00 0.  1.
          2   -1    0    0  501    0  0.00000000000E+00 -0.00000000000E+00 -0.12822178599E+04  0.12822178599E+04  0.00000000000E+00 0. -1.
         23    2    1    2    0    0 -0.37951029173E+02 -0.21164836617E+01 -0.34501417267E+03  0.35763807379E+03  0.86171064530E+02 0.  0.
          5    1    1    2  502    0 -0.26994482893E+02 -0.10300141491E+02 -0.67381608449E+03  0.67444820642E+03  0.41800000000E+01 0. -1.
         -5    1    1    2    0  502  0.64945512066E+02  0.12416625152E+02 -0.25248558873E+03  0.26103359369E+03  0.41800000000E+01 0. -1.
        -11    1    3    3    0    0  0.23674627240E+02 -0.12115509870E+01 -0.40314793640E+02  0.46767920811E+02  0.00000000000E+00 0.  1.
         11    1    3    3    0    0 -0.61625656413E+02 -0.90493267470E+00 -0.30469937903E+03  0.31087015298E+03  0.00000000000E+00 0. -1.
</event>
<event>
 7    1  0.5831876E-006  0.1078076E+03  0.7561462E-02  0.1264685E+00
          1   -1    0    0  501    0  0.00000000000E+00  0.00000000000E+00  0.17859065590E+02  0.17859065590E+02  0.00000000000E+00 0. -1.
         -1   -1    0    0    0  501 -0.00000000000E+00 -0.00000000000E+00 -0.67118700814E+03  0.67118700814E+03  0.00000000000E+00 0.  1.
         23    2    1    2    0    0 -0.88045477759E+01 -0.13863577856E+02 -0.26979628924E+03  0.28529810302E+03  0.91297596066E+02 0.  0.
          5    1    1    2  502    0  0.43882494873E+01  0.68064868110E+02 -0.16670796827E+03  0.18016964808E+03  0.41800000000E+01 0. -1.
         -5    1    1    2    0  502  0.44162982886E+01 -0.54201290254E+02 -0.21682368503E+03  0.22357832262E+03  0.41800000000E+01 0. -1.
        -11    1    3    3    0    0  0.20441606460E+02  0.32221093743E+02 -0.11416090367E+03  0.12036930707E+03  0.00000000000E+00 0.  1.
         11    1    3    3    0    0 -0.29246154235E+02 -0.46084671599E+02 -0.15563538557E+03  0.16492879596E+03  0.00000000000E+00 0. -1.
</event>
<event>
 7    1  0.5831876E-006  0.8605958E+02  0.7561462E-02  0.1312685E+00
         -1   -1    0    0    0  501 -0.00000000000E+00  0.00000000000E+00  0.30909914607E+03  0.30909914607E+03  0.00000000000E+00 0.  1.
          1   -1    0    0  501    0  0.00000000000E+00 -0.00000000000E+00 -0.10472209982E+03  0.10472209982E+03  0.00000000000E+00 0. -1.
         23    2    1    2    0    0  0.36631779618E+02  0.46825251160E+02  0.21192356590E+03  0.23832205929E+03  0.91385528054E+02 0.  0.
          5    1    1    2  502    0  0.13562115393E+02 -0.90531408990E+01 -0.78706612610E+02  0.80486605113E+02  0.41800000000E+01 0. -1.
         -5    1    1    2    0  502 -0.50193895010E+02 -0.37772110261E+02  0.71160092965E+02  0.95012581486E+02  0.41800000000E+01 0.  1.
        -11    1    3    3    0    0  0.58022067799E+02  0.31562796708E+02  0.19770078480E+03  0.20844272787E+03  0.00000000000E+00 0.  1.
         11    1    3    3    0    0 -0.21390288181E+02  0.15262454452E+02  0.14222781093E+02  0.29879331425E+02  0.00000000000E+00 0. -1.
</event>
<event>
 7    1  0.5831876E-006  0.1555043E+03  0.7561462E-02  0.1193868E+00
          1   -1    0    0  501    0  0.00000000000E+00  0.00000000000E+00  0.72162290625E+03  0.72162290625E+03  0.00000000000E+00 0. -1.
         -1   -1    0    0    0  501 -0.00000000000E+00 -0.00000000000E+00 -0.34771236178E+02  0.34771236178E+02  0.00000000000E+00 0.  1.
         23    2    1    2    0    0 -0.32243655413E+02 -0.99304923560E+02  0.26583448712E+03  0.29943787519E+03  0.89966357051E+02 0.  0.
          5    1    1    2  502    0  0.78023289441E+02  0.14419591008E+02  0.22133327074E+03  0.23516259787E+03  0.41800000000E+01 0. -1.
         -5    1    1    2    0  502 -0.45779634027E+02  0.84885332552E+02  0.19968391221E+03  0.22179366936E+03  0.41800000000E+01 0.  1.
        -11    1    3    3    0    0  0.26096423304E+02 -0.57813416956E+02  0.15519355537E+03  0.16765576076E+03  0.00000000000E+00 0. -1.
         11    1    3    3    0    0 -0.58340078717E+02 -0.41491506605E+02  0.11064093175E+03  0.13178211443E+03  0.00000000000E+00 0.  1.
</event>
<event>
 7    1  0.5831876E-006  0.9925572E+02  0.7561462E-02  0.1281869E+00
         -2   -1    0    0    0  501 -0.00000000000E+00  0.00000000000E+00  0.80980610073E+02  0.80980610073E+02  0.00000000000E+00 0.  1.
          2   -1    0    0  501    0  0.00000000000E+00 -0.00000000000E+00 -0.18983018785E+03  0.18983018785E+03  0.00000000000E+00 0. -1.
         23    2    1    2    0    0  0.16614704290E+02  0.47008951017E+02 -0.11699046417E+02  0.10476174236E+03  0.91390727655E+02 0.  0.
          5    1    1    2  502    0  0.31613597837E+02 -0.61604446837E+02 -0.17227988478E+02  0.71475894016E+02  0.41800000000E+01 0. -1.
         -5    1    1    2    0  502 -0.48228302127E+02  0.14595495820E+02 -0.79922542881E+02  0.94573161546E+02  0.41800000000E+01 0. -1.
        -11    1    3    3    0    0  0.15103741580E+02 -0.12161631988E+02  0.27587135531E+02  0.33720592360E+02  0.00000000000E+00 0.  1.
         11    1    3    3    0    0  0.15109627099E+01  0.59170583005E+02 -0.39286181948E+02  0.71041150002E+02  0.00000000000E+00 0. -1.
</event>
<event>
 7    1  0.5909518E-006  0.2737969E+03  0.7561462E-02  0.1099126E+00
          2   -1    0    0  501    0  0.00000000000E+00  0.00000000000E+00  0.51318260339E+03  0.51318260339E+03  0.00000000000E+00 0. -1.
         -2   -1    0    0    0  501 -0.00000000000E+00 -0.00000000000E+00 -0.15686803355E+03  0.15686803355E+03  0.00000000000E+00 0.  1.
         23    2    1    2    0    0 -0.46884862542E+02  0.25360483293E+03  0.11962270187E+03  0.29831900574E+03  0.90393787210E+02 0.  0.
          5    1    1    2  502    0 -0.30507494605E+02 -0.12400687534E+03  0.15210123187E+03  0.19864709788E+03  0.41800000000E+01 0.  1.
         -5    1    1    2    0  502  0.77392357147E+02 -0.12959795759E+03  0.84590636101E+02  0.17308453331E+03  0.41800000000E+01 0.  1.
        -11    1    3    3    0    0  0.20248757898E+01  0.18251207314E+03  0.10567323270E+03  0.21090658850E+03  0.00000000000E+00 0. -1.
         11    1    3    3    0    0 -0.48909738332E+02  0.71092759788E+02  0.13949469162E+02  0.87412417240E+02  0.00000000000E+00 0.  1.
</event>
<event>
 7    1  0.5831876E-006  0.1043250E+03  0.7561462E-02  0.1271455E+00
         -1   -1    0    0    0  501 -0.00000000000E+00  0.00000000000E+00  0.31057560114E+02  0.31057560114E+02  0.00000000000E+00 0.  1.
          1   -1    0    0  501    0  0.00000000000E+00 -0.00000000000E+00 -0.41352070712E+03  0.41352070712E+03  0.00000000000E+00 0. -1.
         23    2    1    2    0    0  0.11895012217E+02 -0.26004408746E+02 -0.12151940885E+03  0.15379117643E+03  0.89816694614E+02 0.  0.
          5    1    1    2  502    0 -0.64600165964E+02  0.71323115962E+01 -0.91686739200E+02  0.11246324669E+03  0.41800000000E+01 0. -1.
         -5    1    1    2    0  502  0.52705153747E+02  0.18872097150E+02 -0.16925699896E+03  0.17832384411E+03  0.41800000000E+01 0. -1.
        -11    1    3    3    0    0  0.35070957860E+02 -0.45257253960E+02 -0.10457686516E+03  0.11922462769E+03  0.00000000000E+00 0. -1.
         11    1    3    3    0    0 -0.23175945644E+02  0.19252845214E+02 -0.16942543691E+02  0.34566548743E+02  0.00000000000E+00 0.  1.
</event>
<event>
 7    1  0.5831876E-006  0.1203218E+03  0.7561462E-02  0.1242567E+00
         -2   -1    0    0    0  501 -0.00000000000E+00  0.00000000000E+00  0.25838546377E+02  0.25838546377E+02  0.00000000000E+00 0.  1.
          2   -1    0    0  501    0  0.00000000000E+00 -0.00000000000E+00 -0.13896567224E+04  0.13896567224E+04  0.00000000000E+00 0. -1.
         23    2    1    2    0    0  0.72206000478E+02 -0.72127277320E+02 -0.31434932035E+03  0.34330246794E+03  0.92871086207E+02 0.  0.
          5    1    1    2  502    0 -0.18588682000E+02  0.23643733666E+02 -0.94268806870E+03  0.94317698896E+03  0.41800000000E+01 0. -1.
         -5    1    1    2    0  502 -0.53617318478E+02  0.48483543654E+02 -0.10678078698E+03  0.12901581188E+03  0.41800000000E+01 0.  1.
        -11    1    3    3    0    0  0.65607054497E+02 -0.94220904288E+02 -0.25627041866E+03  0.28081380288E+03  0.00000000000E+00 0.  1.
         11    1    3    3    0    0  0.65989459813E+01  0.22093626968E+02 -0.58078901686E+02  0.62488665066E+02  0.00000000000E+00 0. -1.
</event>
<event>
 7    1  0.5831876E-006  0.1039438E+03  0.7561462E-02  0.1272215E+00
          1   -1    0    0  501    0  0.00000000000E+00  0.00000000000E+00  0.10680585680E+04  0.10680585680E+04  0.00000000000E+00 0. -1.
         -1   -1    0    0    0  501 -0.00000000000E+00 -0.00000000000E+00 -0.13417928268E+02  0.13417928268E+02  0.00000000000E+00 0.  1.
         23    2    1    2    0    0 -0.68202006710E+01 -0.71744913080E+02  0.34400377378E+03  0.35632450005E+03  0.58606358612E+02 0.  0.
          5    1    1    2  502    0  0.26499216677E+02 -0.12291260005E+02  0.44146682543E+03  0.44245193401E+03  0.41800000000E+01 0.  1.
         -5    1    1    2    0  502 -0.19679016006E+02  0.84036173086E+02  0.26917004057E+03  0.28270006225E+03  0.41800000000E+01 0.  1.
        -11    1    3    3    0    0 -0.31298996997E+02 -0.28781493510E+02  0.18426981386E+03  0.18911204584E+03  0.00000000000E+00 0. -1.
         11    1    3    3    0    0  0.24478796326E+02 -0.42963419570E+02  0.15973395992E+03  0.16721245421E+03  0.00000000000E+00 0.  1.
</event>
<event>
 7    1  0.5831876E-006  0.2597335E+03  0.7561462E-02  0.1107303E+00
          2   -1    0    0  501    0  0.00000000000E+00  0.00000000000E+00  0.31358652271E+04  0.31358652271E+04  0.00000000000E+00 0. -1.
         -2   -1    0    0    0  501 -0.00000000000E+00 -0.00000000000E+00 -0.55667007045E+02  0.55667007045E+02  0.00000000000E+00 0.  1.
         23    2    1    2    0    0  0.24326776054E+03 -0.31353208921E+01  0.29575630420E+03  0.39368426143E+03  0.91249507736E+02 0.  0.
          5    1    1    2  502    0 -0.26127850391E+02 -0.41132016130E+02  0.68323877873E+03  0.68498701336E+03  0.41800000000E+01 0.  1.
         -5    1    1    2    0  502 -0.21713991015E+03  0.44267337022E+02  0.21012031371E+04  0.21128609593E+04  0.41800000000E+01 0.  1.
        -11    1    3    3    0    0  0.11550198365E+03 -0.27772426158E+02  0.19812530386E+03  0.23101006885E+03  0.00000000000E+00 0.  1.
         11    1    3    3    0    0  0.12776577690E+03  0.24637105266E+02  0.97631000343E+02  0.16267419258E+03  0.00000000000E+00 0. -1.
</event>
<event>
 7    1  0.5831876E-006  0.1195172E+03  0.7561462E-02  0.1243896E+00
          1   -1    0    0  501    0  0.00000000000E+00  0.00000000000E+00  0.69905737526E+03  0.69905737526E+03  0.00000000000E+00 0. -1.
         -1   -1    0    0    0  501 -0.00000000000E+00 -0.00000000000E+00 -0.38186675425E+02  0.38186675425E+02  0.00000000000E+00 0.  1.
         23    2    1    2    0    0 -0.14363759596E+02 -0.11570160272E+03  0.23306632148E+03  0.27757673585E+03  0.95581146758E+02 0.  0.
          5    1    1    2  502    0  0.13492206527E+02  0.45393406454E+02  0.35571832228E+03  0.35888103626E+03  0.41800000000E+01 0. -1.
         -5    1    1    2    0  502  0.87155306848E+00  0.70308196266E+02  0.72086056076E+02  0.10078627857E+03  0.41800000000E+01 0.  1.
        -11    1    3    3    0    0 -0.22057595641E+02 -0.46923326077E+02  0.23588786072E+02  0.56962855300E+02  0.00000000000E+00 0.  1.
         11    1    3    3    0    0  0.76938360453E+01 -0.68778276643E+02  0.20947753541E+03  0.22061388055E+03  0.00000000000E+00 0. -1.
</event>
<event>
 7    1  0.5831876E-006  0.1205428E+03  0.7561462E-02  0.1242204E+00
          3   -1    0    0  501    0  0.00000000000E+00  0.00000000000E+00  0.17200718549E+03  0.17200718549E+03  0.00000000000E+00 0. -1.
         -3   -1    0    0    0  501 -0.00000000000E+00 -0.00000000000E+00 -0.16561274529E+03  0.16561274529E+03  0.00000000000E+00 0.  1.
         23    2    1    2    0    0  0.93273251265E+02  0.22388751644E+02 -0.83099768940E+02  0.15635953402E+03  0.91332232416E+02 0.  0.
          5    1    1    2  502    0 -0.15034156360E+01 -0.26309363871E+02  0.85124342029E+02  0.89208009123E+02  0.41800000000E+01 0. -1.
         -5    1    1    2    0  502 -0.91769835629E+02  0.39206122266E+01  0.43698671080E+01  0.92052387640E+02  0.41800000000E+01 0. -1.
        -11    1    3    3    0    0  0.93785936201E+02 -0.60791389514E+01 -0.86442745424E+02  0.12769144841E+03  0.00000000000E+00 0.  1.
         11    1    3    3    0    0 -0.51268493603E+00  0.28467890596E+02  0.33429764838E+01  0.28668085611E+02  0.00000000000E+00 0. -1.
</event>
<event>
 7    1  0.5831876E-006  0.1044738E+03  0.7561462E-02  0.1271160E+00
          2   -1    0    0  501    0  0.00000000000E+00  0.00000000000E+00  0.11942614240E+04  0.11942614240E+04  0.00000000000E+00 0. -1.
         -2   -1    0    0    0  501 -0.00000000000E+00 -0.00000000000E+00 -0.15515916213E+02  0.15515916213E+02  0.00000000000E+00 0.  1.
         23    2    1    2    0    0 -0.22891251437E+02 -0.73943958344E+02  0.40512491889E+03  0.42229663031E+03  0.90645053326E+02 0.  0.
          5    1    1    2  502    0  0.66421540025E+01 -0.10048109846E+02  0.51275982275E+03  0.51291830826E+03  0.41800000000E+01 0.  1.
         -5    1    1    2    0  502  0.16249097435E+02  0.83992068190E+02  0.26086076619E+03  0.27456240170E+03  0.41800000000E+01 0.  1.
        -11    1    3    3    0    0  0.39404087753E+01  0.16107561478E+02  0.20535505641E+02  0.26394835669E+02  0.00000000000E+00 0.  1.
         11    1    3    3    0    0 -0.26831660212E+02 -0.90051519821E+02  0.38458941325E+03  0.39590179464E+03  0.00000000000E+00 0. -1.
</event>
<event>
 7    1  0.5831876E-006  0.1158669E+03  0.7561462E-02  0.1250075E+00
         -1   -1    0    0    0  501 -0.00000000000E+00  0.00000000000E+00  0.43144799870E+03  0.43144799870E+03  0.00000000000E+00 0.  1.
          1   -1    0    0  501    0  0.00000000000E+00 -0.00000000000E+00 -0.68672915123E+02  0.68672915123E+02  0.00000000000E+00 0. -1.
         23    2    1    2    0    0 -0.10238566218E+03  0.50886404954E+01  0.26671414505E+03  0.29913415153E+03  0.88521677361E+02 0.  0.
          5    1    1    2  502    0  0.93105563227E+02 -0.23977499830E+00 -0.10537799386E+02  0.93793501970E+02  0.41800000000E+01 0. -1.
         -5    1    1    2    0  502  0.92800989491E+01 -0.48488654971E+01  0.10659873791E+03  0.10719326032E+03  0.41800000000E+01 0.  1.
        -11    1    3    3    0    0 -0.10074881110E+03 -0.19498682466E+02  0.24735761147E+03  0.26779900953E+03  0.00000000000E+00 0.  1.
         11    1    3    3    0    0 -0.16368510804E+01  0.24587322962E+02  0.19356533577E+02  0.31335141998E+02  0.00000000000E+00 0. -1.
</event>
<event>
 7    1  0.5831876E-006  0.1342809E+03  0.7561462E-02  0.1221238E+00
         -1   -1    0    0    0  501 -0.00000000000E+00  0.00000000000E+00  0.27189002583E+02  0.27189002583E+02  0.00000000000E+00 0.  1.
          1   -1    0    0  501    0  0.00000000000E+00 -0.00000000000E+00 -0.12056153590E+04  0.12056153590E+04  0.00000000000E+00 0. -1.
         23    2    1    2    0    0  0.76314057870E+02  0.51608365422E+02 -0.17899446038E+03  0.22137022525E+03  0.92078775880E+02 0.  0.
          5    1    1    2  502    0  0.24696094214E+02 -0.55613931705E+00 -0.57541650110E+02  0.62759224483E+02  0.41800000000E+01 0.  1.
         -5    1    1    2    0  502 -0.10101015208E+03 -0.51052226105E+02 -0.94189024595E+03  0.94867491188E+03  0.41800000000E+01 0.  1.
        -11    1    3    3    0    0  0.61163665478E+02  0.78422784556E+02 -0.13660373657E+03  0.16897250652E+03  0.00000000000E+00 0. -1.
         11    1    3    3    0    0  0.15150392392E+02 -0.26814419134E+02 -0.42390723808E+02  0.52397718730E+02  0.00000000000E+00 0.  1.
</event>
<event>
 7    1  0.5831876E-006  0.2316439E+03  0.7561462E-02  0.1125488E+00
         -2   -1    0    0    0  501 -0.00000000000E+00  0.00000000000E+00  0.58706543416E+02  0.58706543416E+02  0.00000000000E+00 0.  1.
          2   -1    0    0  501    0  0.00000000000E+00 -0.00000000000E+00 -0.11096252348E+04  0.11096252348E+04  0.00000000000E+00 0. -1.
         23    2    1    2    0    0  0.62755485221E+02  0.20872273798E+03 -0.33407409766E+03  0.40871543993E+03  0.89103175231E+02 0.  0.
          5    1    1    2  502    0  0.29680459673E+00  0.41811922613E+01 -0.16013531180E+03  0.16024469086E+03  0.41800000000E+01 0.  1.
         -5    1    1    2    0  502 -0.63052289818E+02 -0.21290393024E+03 -0.55670928192E+03  0.59937164743E+03  0.41800000000E+01 0.  1.
        -11    1    3    3    0    0 -0.96603694540E+01  0.12165328129E+03 -0.16531492473E+03  0.20547960465E+03  0.00000000000E+00 0.  1.
         11    1    3    3    0    0  0.72415854675E+02  0.87069456687E+02 -0.16875917292E+03  0.20323583528E+03  0.00000000000E+00 0. -1.
</event>
<event>
 7    1  0.5831876E-006  0.1247191E+03  0.7561462E-02  0.1235509E+00
         -2   -1    0    0    0  501 -0.00000000000E+00  0.00000000000E+00  0.36181054257E+02  0.36181054257E+02  0.00000000000E+00 0. -1.
          2   -1    0    0  501    0  0.00000000000E+00 -0.00000000000E+00 -0.46195670415E+03  0.46195670415E+03  0.00000000000E+00 0.  1.
         23    2    1    2    0    0 -0.50390284785E+02  0.40744860740E+02 -0.13712932764E+03  0.17694794534E+03  0.91141639124E+02 0.  0.
          5    1    1    2  502    0 -0.11715339740E+02 -0.69586787060E+02 -0.12242958044E+03  0.14137200814E+03  0.41800000000E+01 0. -1.
         -5    1    1    2    0  502  0.62105624525E+02  0.28841926321E+02 -0.16621674180E+03  0.17981780492E+03  0.41800000000E+01 0. -1.
        -11    1    3    3    0    0  0.19147431159E+02  0.35593223655E+02 -0.65633811561E+02  0.77079821679E+02  0.00000000000E+00 0.  1.
         11    1    3    3    0    0 -0.69537715944E+02  0.51516370848E+01 -0.71495516084E+02  0.99868123660E+02  0.00000000000E+00 0. -1.
</event>
<event>
 7    1  0.5831876E-006  0.1073808E+03  0.7561462E-02  0.1265499E+00
          2   -1    0    0  501    0  0.00000000000E+00  0.00000000000E+00  0.51573056358E+03  0.51573056358E+03  0.00000000000E+00 0. -1.
         -2   -1    0    0    0  501 -0.00000000000E+00 -0.00000000000E+00 -0.33599592463E+02  0.33599592463E+02  0.00000000000E+00 0.  1.
         23    2    1    2    0    0 -0.51350689179E+02 -0.19708480529E+02  0.10861748772E+03  0.15160820064E+03  0.90343623898E+02 0.  0.
          5    1    1    2  502    0 -0.17004890331E+01  0.63955442927E+02  0.13643921695E+03  0.15075252125E+03  0.41800000000E+01 0.  1.
         -5    1    1    2    0  502  0.53051178213E+02 -0.44246962398E+02  0.23707426645E+03  0.24696943415E+03  0.41800000000E+01 0.  1.
        -11    1    3    3    0    0 -0.50009940100E+02  0.10583760826E+02  0.15105145006E+02  0.53302678241E+02  0.00000000000E+00 0.  1.
         11    1    3    3    0    0 -0.13407490796E+01 -0.30292241355E+02  0.93512342714E+02  0.98305522399E+02  0.00000000000E+00 0. -1.
</event>
<event>
 7    1  0.5831876E-006  0.8346177E+02  0.7561462E-02  0.1319505E+00
          2   -1    0    0  501    0  0.00000000000E+00  0.00000000000E+00  0.56035743863E+02  0.56035743863E+02  0.00000000000E+00 0. -1.
         -2   -1    0    0    0  501 -0.00000000000E+00 -0.00000000000E+00 -0.22433628110E+03  0.22433628110E+03  0.00000000000E+00 0.  1.
         23    2    1    2    0    0 -0.18328821414E+02 -0.97842218747E+01 -0.99568724373E+02  0.13613996973E+03  0.90490241420E+02 0.  0.
          5    1    1    2  502    0 -0.23850938805E+02  0.27126141335E+02  0.22069697550E+02  0.42535147532E+02  0.41800000000E+01 0. -1.
         -5    1    1    2    0  502  0.42179760219E+02 -0.17341919460E+02 -0.90801510410E+02  0.10169690770E+03  0.41800000000E+01 0. -1.
        -11    1    3    3    0    0  0.27346734859E+02  0.16625631897E+02 -0.12552343819E+02  0.34377563596E+02  0.00000000000E+00 0. -1.
         11    1    3    3    0    0 -0.45675556274E+02 -0.26409853771E+02 -0.87016380554E+02  0.10176240613E+03  0.00000000000E+00 0.  1.
</event>
<event>
 6    1  0.5831876E-006  0.1294587E+03  0.7561462E-02  0.1228261E+00
          3   -1    0    0  501    0  0.00000000000E+00  0.00000000000E+00  0.26980641852E+03  0.26980641852E+03  0.00000000000E+00 0. -1.
         -3   -1    0    0    0  501 -0.00000000000E+00 -0.00000000000E+00 -0.82177027871E+02  0.82177027871E+02  0.00000000000E+00 0.  1.
          5    1    1    2  502    0  0.12181118686E+03  0.20628930435E+01  0.17490093662E+03  0.21319012830E+03  0.41800000000E+01 0. -1.
         -5    1    1    2    0  502 -0.13739849643E+02  0.13224086768E+02 -0.17259501836E+01  0.19598756162E+02  0.41800000000E+01 0.  1.
        -11    1    1    2    0    0 -0.27674528317E+02 -0.23993790368E+02  0.11041525852E+02  0.38255676532E+02  0.00000000000E+00 0. -1.
         11    1    1    2    0    0 -0.80396808898E+02  0.87068105571E+01  0.34128783585E+01  0.80938885400E+02  0.00000000000E+00 0.  1.
</event>
<event>
 7    1  0.5831876E-006  0.1349691E+03  0.7561462E-02  0.1220263E+00
          2   -1    0    0  501    0  0.00000000000E+00  0.00000000000E+00  0.16376333432E+04  0.16376333432E+04  0.00000000000E+00 0. -1.
         -2   -1    0    0    0  501 -0.00000000000E+00 -0.00000000000E+00 -0.16731256527E+02  0.16731256527E+02  0.00000000000E+00 0.  1.
         23    2    1    2    0    0 -0.20110319161E+02  0.82309659381E+02  0.30637665213E+03  0.33118586959E+03  0.92941499235E+02 0.  0.
          5    1    1    2  502    0  0.55067617550E+02 -0.97063320601E+02  0.10480785451E+04  0.10540113092E+04  0.41800000000E+01 0.  1.
         -5    1    1    2    0  502 -0.34957298388E+02  0.14753661220E+02  0.26644688937E+03  0.26916742092E+03  0.41800000000E+01 0.  1.
        -11    1    3    3    0    0 -0.52399258457E+02  0.35758946357E+02  0.11196391130E+03  0.12868683680E+03  0.00000000000E+00 0.  1.
         11    1    3    3    0    0  0.32288939296E+02  0.46550713024E+02  0.19441274083E+03  0.20249903279E+03  0.00000000000E+00 0. -1.
</event>
<event>
 7    1  0.5831876E-006  0.1137654E+03  0.7561462E-02  0.1253752E+00
         -1   -1    0    0    0  501 -0.00000000000E+00  0.00000000000E+00  0.17736558761E+03  0.17736558761E+03  0.00000000000E+00 0.  1.
          1   -1    0    0  501    0  0.00000000000E+00 -0.00000000000E+00 -0.90759065545E+02  0.90759065545E+02  0.00000000000E+00 0. -1.
         23    2    1    2    0    0 -0.15824331590E+02 -0.85130292852E+01  0.88692568890E+02  0.12901401091E+03  0.91953042889E+02 0.  0.
          5    1    1    2  502    0 -0.59362806199E+02  0.54786343223E+01 -0.17322829604E+02  0.62221467512E+02  0.41800000000E+01 0. -1.
         -5    1    1    2    0  502  0.75187137789E+02  0.30343949629E+01  0.15236782775E+02  0.76889174732E+02  0.41800000000E+01 0.  1.
        -11    1    3    3    0    0  0.26865010887E+02  0.26092973478E+02  0.25706952830E+02  0.45424877531E+02  0.00000000000E+00 0.  1.
         11    1    3    3    0    0 -0.42689342477E+02 -0.34606002764E+02  0.62985616060E+02  0.83589133378E+02  0.00000000000E+00 0. -1.
</event>
<event>
 7    1  0.5831876E-006  0.1518911E+03  0.7561462E-02  0.1198168E+00
         -2   -1    0    0    0  501 -0.00000000000E+00  0.00000000000E+00  0.23419185763E+02  0.23419185763E+02  0.00000000000E+00 0.  1.
          2   -1    0    0  501    0  0.00000000000E+00 -0.00000000000E+00 -0.20094264975E+04  0.20094264975E+04  0.00000000000E+00 0. -1.
         23    2    1    2    0    0 -0.85125052197E+02 -0.11533863175E+03 -0.39021002924E+03  0.42574742456E+03  0.91911523268E+02 0.  0.
          5    1    1    2  502    0  0.24553800535E+02 -0.74545839516E+00 -0.81548370406E+03  0.81586432010E+03  0.41800000000E+01 0.  1.
         -5    1    1    2    0  502  0.60571251661E+02  0.11608409014E+03 -0.78031357842E+03  0.79123393860E+03  0.41800000000E+01 0.  1.
        -11    1    3    3    0    0 -0.60051895512E+02 -0.50919129023E+02 -0.31008349465E+03  0.31992305561E+03  0.00000000000E+00 0. -1.
         11    1    3    3    0    0 -0.25073156685E+02 -0.64419502723E+02 -0.80126534590E+02  0.10582436895E+03  0.00000000000E+00 0.  1.
</event>
<event>
 7    1  0.5831876E-006  0.1240181E+03  0.7561462E-02  0.1236612E+00
         -1   -1    0    0    0  501 -0.00000000000E+00  0.00000000000E+00  0.15834995619E+03  0.15834995619E+03  0.00000000000E+00 0.  1.
          1   -1    0    0  501    0  0.00000000000E+00 -0.00000000000E+00 -0.11425550117E+03  0.11425550117E+03  0.00000000000E+00 0. -1.
         23    2    1    2    0    0 -0.49811988848E+02 -0.30311918709E+02  0.66671595012E+02  0.13275830684E+03  0.98891960264E+02 0.  0.
          5    1    1    2  502    0 -0.39957071673E+02  0.25294881891E+02 -0.19910329860E+01  0.47516683795E+02  0.41800000000E+01 0.  1.
         -5    1    1    2    0  502  0.89769060521E+02  0.50170368176E+01 -0.20586107006E+02  0.92330466732E+02  0.41800000000E+01 0.  1.
        -11    1    3    3    0    0 -0.70117886833E+02  0.44908684953E+01  0.58984826311E+02  0.91738191004E+02  0.00000000000E+00 0.  1.
         11    1    3    3    0    0  0.20305897985E+02 -0.34802787204E+02  0.76867687016E+01  0.41020115836E+02  0.00000000000E+00 0. -1.
</event>
<event>
 7    1  0.5831876E-006  0.1295502E+03  0.7561462E-02  0.1228125E+00
          1   -1    0    0  501    0  0.00000000000E+00  0.00000000000E+00  0.34544389605E+03  0.34544389605E+03  0.00000000000E+00 0. -1.
         -1   -1    0    0    0  501 -0.00000000000E+00 -0.00000000000E+00 -0.58793584829E+02  0.58793584829E+02  0.00000000000E+00 0.  1.
         23    2    1    2    0    0 -0.93197782135E+02  0.21615520382E+02  0.97096568414E+02  0.15998495180E+03  0.83751918723E+02 0.  0.
          5    1    1    2  502    0  0.10590400180E+03  0.68844622824E+00  0.19074937098E+03  0.21821761268E+03  0.41800000000E+01 0. -1.
         -5    1    1    2    0  502 -0.12706219667E+02 -0.22303966611E+02 -0.11956281734E+01  0.26034916391E+02  0.41800000000E+01 0.  1.
        -11    1    3    3    0    0 -0.11388912966E+02 -0.28826373661E+02  0.21829259906E+02  0.37910206344E+02  0.00000000000E+00 0. -1.
         11    1    3    3    0    0 -0.81808869168E+02  0.50441894043E+02  0.75267308508E+02  0.12207474546E+03  0.00000000000E+00 0.  1.
</event>
<event>
 7    1  0.5831876E-006  0.1798782E+03  0.7561462E-02  0.1167921E+00
          1   -1    0    0  501    0  0.00000000000E+00  0.00000000000E+00  0.16718214847E+03  0.16718214847E+03  0.00000000000E+00 0. -1.
         -1   -1    0    0    0  501 -0.00000000000E+00 -0.00000000000E+00 -0.25543977989E+03  0.25543977989E+03  0.00000000000E+00 0.  1.
         23    2    1    2    0    0 -0.17548615731E+03 -0.24412741703E+01 -0.28883792825E+02  0.19907247737E+03  0.89410438594E+02 0.  0.
          5    1    1    2  502    0  0.84273589079E+02 -0.25764110999E+02 -0.87169874138E+02  0.12402373398E+03  0.41800000000E+01 0. -1.
         -5    1    1    2    0  502  0.91212568232E+02  0.28205385169E+02  0.27796035542E+02  0.99525717018E+02  0.41800000000E+01 0. -1.
        -11    1    3    3    0    0 -0.12374640350E+03 -0.75506202185E+01 -0.60783020781E+02  0.13807519640E+03  0.00000000000E+00 0.  1.
         11    1    3    3    0    0 -0.51739753812E+02  0.51093460482E+01  0.31899227956E+02  0.60997280970E+02  0.00000000000E+00 0. -1.
</event>
<event>
 7    1  0.5831876E-006  0.9872007E+02  0.7561462E-02  0.1283011E+00
         -1   -1    0    0    0  501 -0.00000000000E+00  0.00000000000E+00  0.19898913081E+03  0.19898913081E+03  0.00000000000E+00 0.  1.
          1   -1    0    0  501    0  0.00000000000E+00 -0.00000000000E+00 -0.71401629892E+02  0.71401629892E+02  0.00000000000E+00 0. -1.
         23    2    1    2    0    0  0.40043026568E+02 -0.25349115626E+02  0.80361120474E+02  0.12858279071E+03  0.88485042483E+02 0.  0.
          5    1    1    2  502    0 -0.72083265960E+02  0.22663888695E+02  0.69276006994E+02  0.10259769309E+03  0.41800000000E+01 0. -1.
         -5    1    1    2    0  502  0.32040239392E+02  0.26852269314E+01 -0.22049626549E+02  0.39210276904E+02  0.41800000000E+01 0. -1.
        -11    1    3    3    0    0 -0.17565137562E+02 -0.26414087724E+02  0.59272051527E+02  0.67226588341E+02  0.00000000000E+00 0.  1.
         11    1    3    3    0    0  0.57608164130E+02  0.10649720974E+01  0.21089068947E+02  0.61356202368E+02  0.00000000000E+00 0. -1.
</event>
<event>
 7    1  0.5831876E-006  0.1898688E+03  0.7561462E-02  0.1158580E+00
         -2   -1    0    0    0  501 -0.00000000000E+00  0.00000000000E+00  0.92375362402E+03  0.92375362402E+03  0.00000000000E+00 0.  1.
          2   -1    0    0  501    0  0.00000000000E+00 -0.00000000000E+00 -0.67035145428E+02  0.67035145428E+02  0.00000000000E+00 0. -1.
         23    2    1    2    0    0 -0.17568971418E+03 -0.13584540397E+02  0.69039740558E+03  0.71808593053E+03  0.89148250569E+02 0.  0.
          5    1    1    2  502    0  0.13874234603E+03 -0.90004202791E+01  0.17964742820E+03  0.22720281030E+03  0.41800000000E+01 0. -1.
         -5    1    1    2    0  502  0.36947368152E+02  0.22584960676E+02 -0.13326355191E+02  0.45500028624E+02  0.41800000000E+01 0. -1.
        -11    1    3    3    0    0 -0.34808020452E+02  0.33781075299E+02  0.18876962115E+03  0.19490184506E+03  0.00000000000E+00 0. -1.
         11    1    3    3    0    0 -0.14088169373E+03 -0.47365615696E+02  0.50162778443E+03  0.52318408547E+03  0.00000000000E+00 0.  1.
</event>
<event>
 7    1  0.5831876E-006  0.1173079E+03  0.7561462E-02  0.1247605E+00
          1   -1    0    0  501    0  0.00000000000E+00  0.00000000000E+00  0.60008781693E+02  0.60008781693E+02  0.00000000000E+00 0. -1.
         -1   -1    0    0    0  501 -0.00000000000E+00 -0.00000000000E+00 -0.29140016123E+03  0.29140016123E+03  0.00000000000E+00 0.  1.
         23    2    1    2    0    0 -0.34932174373E+02  0.48585470974E+02 -0.16437258710E+03  0.19739676946E+03  0.91467657713E+02 0.  0.
          5    1    1    2  502    0 -0.90210350848E+00 -0.83510254776E+02 -0.21740107049E+02  0.86399543390E+02  0.41800000000E+01 0. -1.
         -5    1    1    2    0  502  0.35834277882E+02  0.34924783802E+02 -0.45278685391E+02  0.67612630075E+02  0.41800000000E+01 0. -1.
        -11    1    3    3    0    0 -0.61527084472E+02  0.30952777029E+02 -0.14376520583E+03  0.15941170263E+03  0.00000000000E+00 0. -1.
         11    1    3    3    0    0  0.26594910099E+02  0.17632693945E+02 -0.20607381267E+02  0.37985066824E+02  0.00000000000E+00 0.  1.
</event>
<event>
 7    1  0.5831876E-006  0.9110339E+02  0.7561462E-02  0.1300201E+00
         -2   -1    0    0    0  501 -0.00000000000E+00  0.00000000000E+00  0.26156348644E+02  0.26156348644E+02  0.00000000000E+00 0.  1.
          2   -1    0    0  501    0  0.00000000000E+00 -0.00000000000E+00 -0.66744473984E+03  0.66744473984E+03  0.00000000000E+00 0. -1.
         23    2    1    2    0    0 -0.21908587226E+02  0.15591526069E+02 -0.96563554421E+02  0.13611219817E+03  0.92081097778E+02 0.  0.
          5    1    1    2  502    0 -0.23533260392E+02 -0.31819636005E+02 -0.44341178067E+03  0.44519409612E+03  0.41800000000E+01 0. -1.
         -5    1    1    2    0  502  0.45441847618E+02  0.16228109936E+02 -0.10131305611E+03  0.11229479420E+03  0.41800000000E+01 0.  1.
        -11    1    3    3    0    0  0.34322200393E+02 -0.37178768833E+01 -0.22804372061E+02  0.41374816416E+02  0.00000000000E+00 0. -1.
         11    1    3    3    0    0 -0.56230787619E+02  0.19309402952E+02 -0.73759182360E+02  0.94737381751E+02  0.00000000000E+00 0.  1.
</event>
<event>
 7    1  0.5831876E-006  0.9306309E+02  0.7561462E-02  0.1295599E+00
         -1   -1    0    0    0  501 -0.00000000000E+00  0.00000000000E+00  0.28954428784E+02  0.28954428784E+02  0.00000000000E+00 0.  1.
          1   -1    0    0  501    0  0.00000000000E+00 -0.00000000000E+00 -0.70874530249E+03  0.70874530249E+03  0.00000000000E+00 0. -1.
         23    2    1    2    0    0  0.17344464685E+02 -0.45043896905E+02 -0.78233633370E+02  0.12138226399E+03  0.79267707913E+02 0.  0.
          5    1    1    2  502    0 -0.36162239048E+02 -0.32420978060E+02 -0.31889633344E+03  0.32260063737E+03  0.41800000000E+01 0.  1.
         -5    1    1    2    0  502  0.18817774363E+02  0.77464874964E+02 -0.28266090690E+03  0.29371682991E+03  0.41800000000E+01 0.  1.
        -11    1    3    3    0    0  0.26342326914E+02 -0.29163012342E+02  0.17544808276E+01  0.39337992820E+02  0.00000000000E+00 0.  1.
         11    1    3    3    0    0 -0.89978622285E+01 -0.15880884563E+02 -0.79988114198E+02  0.82044271171E+02  0.00000000000E+00 0. -1.
</event>
<event>
 7    1  0.5831876E-006  0.1483703E+03  0.7561462E-02  0.1202490E+00
         -1   -1    0    0    0  501 -0.00000000000E+00  0.00000000000E+00  0.42245395220E+03  0.42245395220E+03  0.00000000000E+00 0.  1.
          1   -1    0    0  501    0  0.00000000000E+00 -0.00000000000E+00 -0.73847061585E+02  0.73847061585E+02  0.00000000000E+00 0. -1.
         23    2    1    2    0    0 -0.10367224121E+03  0.90401441137E+02  0.14586501095E+03  0.22121406908E+03  0.93481061088E+02 0.  0.
          5    1    1    2  502    0  0.86622112201E+02 -0.94779977208E+02  0.21691508863E+03  0.25210367406E+03  0.41800000000E+01 0.  1.
         -5    1    1    2    0  502  0.17050129011E+02  0.43785360708E+01 -0.14173208958E+02  0.22983270646E+02  0.41800000000E+01 0.  1.
        -11    1    3    3    0    0 -0.67703434869E+02  0.19143174024E+02  0.11662717853E+03  0.13620614882E+03  0.00000000000E+00 0.  1.
         11    1    3    3    0    0 -0.35968806342E+02  0.71258267113E+02  0.29237832412E+02  0.85007920253E+02  0.00000000000E+00 0. -1.
</event>
<event>
 7    1  0.5831876E-006  0.8124004E+02  0.7561462E-02  0.1325569E+00
         -3   -1    0    0    0  501 -0.00000000000E+00  0.00000000000E+00  0.70101061727E+02  0.70101061727E+02  0.00000000000E+00 0.  1.
          3   -1    0    0  501    0  0.00000000000E+00 -0.00000000000E+00 -0.21418582275E+03  0.21418582275E+03  0.00000000000E+00 0. -1.
         23    2    1    2    0    0 -0.19885818722E+02 -0.38454728916E+02 -0.19160001535E+02  0.10227217737E+03  0.90654733154E+02 0.  0.
          5    1    1    2  502    0 -0.18953789584E+02 -0.16862495373E+02  0.12665907339E+02  0.28661603209E+02  0.41800000000E+01 0.  1.
         -5    1    1    2    0  502  0.38839608306E+02  0.55317224290E+02 -0.13759066682E+03  0.15335310389E+03  0.41800000000E+01 0.  1.
        -11    1    3    3    0    0  0.96287164982E+01 -0.38343840246E+02 -0.47194489061E+02  0.61565266700E+02  0.00000000000E+00 0. -1.
         11    1    3    3    0    0 -0.29514535220E+02 -0.11088867002E+00  0.28034487525E+02  0.40706910671E+02  0.00000000000E+00 0.  1.
</event>
<event>
 7    1  0.5831876E-006  0.1795443E+03  0.7561462E-02  0.1168245E+00
          1   -1    0    0  501    0  0.00000000000E+00  0.00000000000E+00  0.98278510786E+03  0.98278510786E+03  0.00000000000E+00 0. -1.
         -1   -1    0    0    0  501 -0.00000000000E+00 -0.00000000000E+00 -0.41952322980E+02  0.41952322980E+02  0.00000000000E+00 0.  1.
         23    2    1    2    0    0 -0.95167767934E+02  0.13001809921E+03  0.32425556142E+03  0.37529399643E+03  0.98703112745E+02 0.  0.
          5    1    1    2  502    0  0.76850178187E+02 -0.22371581942E+02  0.38666150416E+03  0.39488103116E+03  0.41800000000E+01 0.  1.
         -5    1    1    2    0  502  0.18317589747E+02 -0.10764651726E+03  0.22991571929E+03  0.25456240326E+03  0.41800000000E+01 0.  1.
        -11    1    3    3    0    0 -0.20070288979E+02  0.72061921066E+02  0.64546177421E+02  0.98802560630E+02  0.00000000000E+00 0.  1.
         11    1    3    3    0    0 -0.75097478955E+02  0.57956178140E+02  0.25970938400E+03  0.27649143580E+03  0.00000000000E+00 0. -1.
</event>
<event>
 7    1  0.5831876E-006  0.8655493E+02  0.7561462E-02  0.1311416E+00
         -1   -1    0    0    0  501 -0.00000000000E+00  0.00000000000E+00  0.23744789004E+03  0.23744789004E+03  0.00000000000E+00 0.  1.
          1   -1    0    0  501    0  0.00000000000E+00 -0.00000000000E+00 -0.64289467845E+02  0.64289467845E+02  0.00000000000E+00 0. -1.
         23    2    1    2    0    0  0.33401161711E+02  0.32141624568E+02  0.12020427879E+03  0.15820970969E+03  0.91828764385E+02 0.  0.
          5    1    1    2  502    0 -0.38583557038E+01  0.27524723224E+02 -0.27289808502E+02  0.39175289984E+02  0.41800000000E+01 0.  1.
         -5    1    1    2    0  502 -0.29542806008E+02 -0.59666347792E+02  0.80243951909E+02  0.10435235821E+03  0.41800000000E+01 0.  1.
        -11    1    3    3    0    0 -0.11129412324E+02  0.31874203024E+02  0.10633892358E+03  0.11156968811E+03  0.00000000000E+00 0.  1.
         11    1    3    3    0    0  0.44530574036E+02  0.26742154407E+00  0.13865355211E+02  0.46640021584E+02  0.00000000000E+00 0. -1.
</event>
<event>
 7    1  0.5831876E-006  0.1068359E+03  0.7561462E-02  0.1266544E+00
          2   -1    0    0  501    0  0.00000000000E+00  0.00000000000E+00  0.89223014509E+03  0.89223014509E+03  0.00000000000E+00 0. -1.
         -2   -1    0    0    0  501 -0.00000000000E+00 -0.00000000000E+00 -0.24970255273E+02  0.24970255273E+02  0.00000000000E+00 0.  1.
         23    2    1    2    0    0 -0.70752030126E+01 -0.42490710658E+02  0.81558515410E+02  0.12043954244E+03  0.77449163692E+02 0.  0.
          5    1    1    2  502    0 -0.21648406165E+02 -0.37689309248E+02  0.35705614470E+03  0.35971613863E+03  0.41800000000E+01 0. -1.
         -5    1    1    2    0  502  0.28723609177E+02  0.80180019906E+02  0.42864522970E+03  0.43704471929E+03  0.41800000000E+01 0. -1.
        -11    1    3    3    0    0  0.20875207850E+02  0.11576469258E+02  0.84735684705E+01  0.25329632960E+02  0.00000000000E+00 0.  1.
         11    1    3    3    0    0 -0.27950410863E+02 -0.54067179916E+02  0.73084946939E+02  0.95109909476E+02  0.00000000000E+00 0. -1.
</event>
<event>
 7    1  0.5831876E-006  0.1647021E+03  0.7561462E-02  0.1183488E+00
          2   -1    0    0  501    0  0.00000000000E+00  0.00000000000E+00  0.49436282328E+02  0.49436282328E+02  0.00000000000E+00 0.  1.
         -2   -1    0    0    0  501 -0.00000000000E+00 -0.00000000000E+00 -0.10937268795E+04  0.10937268795E+04  0.00000000000E+00 0. -1.
         23    2    1    2    0    0 -0.14835582531E+03  0.15977263301E+02 -0.85097647512E+03  0.86878702412E+03  0.91461512209E+02 0.  0.
          5    1    1    2  502    0  0.12503792690E+03 -0.38543386826E+02 -0.20183071151E+03  0.24056846082E+03  0.41800000000E+01 0.  1.
         -5    1    1    2    0  502  0.23317898409E+02  0.22566123525E+02  0.85165895028E+01  0.33807676849E+02  0.41800000000E+01 0.  1.
        -11    1    3    3    0    0 -0.22656693442E+02  0.31842188894E+02 -0.10316670736E+03  0.11032053417E+03  0.00000000000E+00 0.  1.
         11    1    3    3    0    0 -0.12569913187E+03 -0.15864925593E+02 -0.74780976776E+03  0.75846648995E+03  0.00000000000E+00 0. -1.
</event>
<event>
 7    1  0.5831876E-006  0.2528580E+03  0.7561462E-02  0.1111512E+00
         -1   -1    0    0    0  501 -0.00000000000E+00  0.00000000000E+00  0.30475882481E+03  0.30475882481E+03  0.00000000000E+00 0.  1.
          1   -1    0    0  501    0  0.00000000000E+00 -0.00000000000E+00 -0.23720243556E+03  0.23720243556E+03  0.00000000000E+00 0. -1.
         23    2    1    2    0    0 -0.24030394515E+03 -0.12747551982E+02  0.82856416870E+02  0.27031828427E+03  0.91095021045E+02 0.  0.
          5    1    1    2  502    0  0.20715906782E+03 -0.24880610987E+02 -0.44618681638E+02  0.21340624015E+03  0.41800000000E+01 0.  1.
         -5    1    1    2    0  502  0.33144877323E+02  0.37628162969E+02  0.29318654012E+02  0.58236735951E+02  0.41800000000E+01 0.  1.
        -11    1    3    3    0    0 -0.14945308696E+03 -0.34293426596E+02  0.88020838296E+02  0.17680478580E+03  0.00000000000E+00 0.  1.
         11    1    3    3    0    0 -0.90850858190E+02  0.21545874614E+02 -0.51644214258E+01  0.93513498466E+02  0.00000000000E+00 0. -1.
</event>
<event>
 7    1  0.5831876E-006  0.1001195E+03  0.7561462E-02  0.1280045E+00
         -2   -1    0    0    0  501 -0.00000000000E+00  0.00000000000E+00  0.64317993144E+02  0.64317993144E+02  0.00000000000E+00 0.  1.
          2   -1    0    0  501    0  0.00000000000E+00 -0.00000000000E+00 -0.19646375357E+03  0.19646375357E+03  0.00000000000E+00 0. -1.
         23    2    1    2    0    0 -0.78345232603E+01 -0.24806325919E+02 -0.25662392440E+02  0.94460614426E+02  0.87106347252E+02 0.  0.
          5    1    1    2  502    0  0.46112411792E+02  0.58329909977E+02 -0.47592920545E+02  0.88381510539E+02  0.41800000000E+01 0. -1.
         -5    1    1    2    0  502 -0.38277888531E+02 -0.33523584058E+02 -0.58890447436E+02  0.77939621745E+02  0.41800000000E+01 0. -1.
        -11    1    3    3    0    0  0.53517118057E+01 -0.47857597035E+02 -0.41473826556E+02  0.63553667891E+02  0.00000000000E+00 0. -1.
         11    1    3    3    0    0 -0.13186235066E+02  0.23051271116E+02  0.15811434116E+02  0.30906946534E+02  0.00000000000E+00 0.  1.
</event>
<event>
 7    1  0.5831876E-006  0.7053522E+02  0.7561462E-02  0.1358282E+00
          2   -1    0    0  501    0  0.00000000000E+00  0.00000000000E+00  0.27632229729E+03  0.27632229729E+03  0.00000000000E+00 0. -1.
         -2   -1    0    0    0  501 -0.00000000000E+00 -0.00000000000E+00 -0.51466924488E+02  0.51466924488E+02  0.00000000000E+00 0.  1.
         23    2    1    2    0    0 -0.46712186404E+02  0.78076300437E+01  0.84566871746E+02  0.13395922636E+03  0.92469081779E+02 0.  0.
          5    1    1    2  502    0 -0.10721758178E+02 -0.42592997336E+01  0.13537071283E+03  0.13592571509E+03  0.41800000000E+01 0. -1.
         -5    1    1    2    0  502  0.57433944583E+02 -0.35483303102E+01  0.49177882281E+01  0.57904280320E+02  0.41800000000E+01 0. -1.
        -11    1    3    3    0    0 -0.15067197477E+02 -0.22636719440E+02 -0.10571867168E+02  0.29175432854E+02  0.00000000000E+00 0.  1.
         11    1    3    3    0    0 -0.31644988928E+02  0.30444349484E+02  0.95138738914E+02  0.10478379351E+03  0.00000000000E+00 0. -1.
</event>
<event>
 7    1  0.5831876E-006  0.1338545E+03  0.7561462E-02  0.1221846E+00
         -2   -1    0    0    0  501 -0.00000000000E+00  0.00000000000E+00  0.47818512790E+03  0.47818512790E+03  0.00000000000E+00 0.  1.
          2   -1    0    0  501    0  0.00000000000E+00 -0.00000000000E+00 -0.40086923832E+02  0.40086923832E+02  0.00000000000E+00 0. -1.
         23    2    1    2    0    0 -0.85163207885E+02 -0.44385321425E+01  0.23009934470E+03  0.26100920207E+03  0.88924814269E+02 0.  0.
          5    1    1    2  502    0  0.24689382793E+02  0.61635770168E+02  0.74470392239E+02  0.99859128312E+02  0.41800000000E+01 0. -1.
         -5    1    1    2    0  502  0.60473825091E+02 -0.57197238026E+02  0.13352846713E+03  0.15740372135E+03  0.41800000000E+01 0. -1.
        -11    1    3    3    0    0 -0.19635136123E+02  0.35878530226E+02  0.11930689741E+03  0.12612273099E+03  0.00000000000E+00 0. -1.
         11    1    3    3    0    0 -0.65528071762E+02 -0.40317062368E+02  0.11079244728E+03  0.13488647109E+03  0.00000000000E+00 0.  1.
</event>
<event>
 7    1  0.5831876E-006  0.6262112E+02  0.7561462E-02  0.1387150E+00
         -1   -1    0    0    0  501 -0.00000000000E+00  0.00000000000E+00  0.14805500678E+03  0.14805500678E+03  0.00000000000E+00 0.  1.
          1   -1    0    0  501    0  0.00000000000E+00 -0.00000000000E+00 -0.97894426854E+02  0.97894426854E+02  0.00000000000E+00 0. -1.
         23    2    1    2    0    0  0.24094606036E+02 -0.10096419437E+02  0.72152518851E+02  0.11628938916E+03  0.87377046918E+02 0.  0.
          5    1    1    2  502    0 -0.38703606858E+02  0.42781441171E+00  0.45456064455E+02  0.59848796185E+02  0.41800000000E+01 0.  1.
         -5    1    1    2    0  502  0.14609000822E+02  0.96686050255E+01 -0.67448003381E+02  0.69811248293E+02  0.41800000000E+01 0.  1.
        -11    1    3    3    0    0 -0.15959749685E+02 -0.21386972977E+02  0.69663563113E+02  0.74599787189E+02  0.00000000000E+00 0.  1.
         11    1    3    3    0    0  0.40054355721E+02  0.11290553539E+02  0.24889557385E+01  0.41689601966E+02  0.00000000000E+00 0. -1.
</event>
<event>
 7    1  0.5831876E-006  0.1012717E+03  0.7561462E-02  0.1277644E+00
          1   -1    0    0  501    0  0.00000000000E+00  0.00000000000E+00  0.17907682256E+03  0.17907682256E+03  0.00000000000E+00 0. -1.
         -1   -1    0    0    0  501 -0.00000000000E+00 -0.00000000000E+00 -0.65396019365E+02  0.65396019365E+02  0.00000000000E+00 0.  1.
         23    2    1    2    0    0  0.48415221760E+01 -0.71398680871E+01  0.38516681444E+02  0.98273206095E+02  0.89998167945E+02 0.  0.
          5    1    1    2  502    0  0.35871648330E+02 -0.37933209241E+02  0.66585812186E+02  0.84716269404E+02  0.41800000000E+01 0. -1.
         -5    1    1    2    0  502 -0.40713170506E+02  0.45073077328E+02  0.85783095682E+01  0.61483366430E+02  0.41800000000E+01 0. -1.
        -11    1    3    3    0    0  0.35018930786E+02  0.26632259127E+02  0.26711270275E+02  0.51469356896E+02  0.00000000000E+00 0.  1.
         11    1    3    3    0    0 -0.30177408610E+02 -0.33772127214E+02  0.11805411169E+02  0.46803849199E+02  0.00000000000E+00 0. -1.
</event>
<event>
 7    1  0.5831876E-006  0.1620819E+03  0.7561462E-02  0.1186366E+00
         -2   -1    0    0    0  501 -0.00000000000E+00  0.00000000000E+00  0.10704403918E+03  0.10704403918E+03  0.00000000000E+00 0.  1.
          2   -1    0    0  501    0  0.00000000000E+00 -0.00000000000E+00 -0.32314588450E+03  0.32314588450E+03  0.00000000000E+00 0. -1.
         23    2    1    2    0    0  0.33923551377E+02  0.13294507207E+03 -0.32053325451E+02  0.16876078067E+03  0.92884799034E+02 0.  0.
          5    1    1    2  502    0  0.42490194950E+02 -0.65035217966E+02 -0.11168594404E+03  0.13611105296E+03  0.41800000000E+01 0. -1.
         -5    1    1    2    0  502 -0.76413746327E+02 -0.67909854109E+02 -0.72362575829E+02  0.12531809005E+03  0.41800000000E+01 0. -1.
        -11    1    3    3    0    0  0.20702457879E+02  0.15493228166E+02  0.26355840634E+02  0.36922380974E+02  0.00000000000E+00 0.  1.
         11    1    3    3    0    0  0.13221093498E+02  0.11745184391E+03 -0.58409166085E+02  0.13183839969E+03  0.00000000000E+00 0. -1.
</event>
<event>
 7    1  0.5831876E-006  0.1287469E+03  0.7561462E-02  0.1229327E+00
          1   -1    0    0  501    0  0.00000000000E+00  0.00000000000E+00  0.17756427052E+03  0.17756427052E+03  0.00000000000E+00 0. -1.
         -1   -1    0    0    0  501 -0.00000000000E+00 -0.00000000000E+00 -0.20716514940E+03  0.20716514940E+03  0.00000000000E+00 0.  1.
         23    2    1    2    0    0 -0.10392013806E+03  0.72344706358E+02 -0.10806656712E+03  0.19019492968E+03  0.91992264423E+02 0.  0.
          5    1    1    2  502    0  0.10936260468E+02  0.17103612039E+01 -0.30816416250E+02  0.33009862752E+02  0.41800000000E+01 0.  1.
         -5    1    1    2    0  502  0.92983877596E+02 -0.74055067562E+02  0.10928210449E+03  0.16152462749E+03  0.41800000000E+01 0.  1.
        -11    1    3    3    0    0 -0.49599699490E+02  0.37528950591E+02  0.24248517147E+01  0.62244937367E+02  0.00000000000E+00 0. -1.
         11    1    3    3    0    0 -0.54320438574E+02  0.34815755767E+02 -0.11049141884E+03  0.12794999232E+03  0.00000000000E+00 0.  1.
</event>
<event>
 7    1  0.5831876E-006  0.2965238E+03  0.7561462E-02  0.1086991E+00
          1   -1    0    0  501    0  0.00000000000E+00  0.00000000000E+00  0.37512720102E+04  0.37512720102E+04  0.00000000000E+00 0. -1.
         -1   -1    0    0    0  501 -0.00000000000E+00 -0.00000000000E+00 -0.52050878227E+02  0.52050878227E+02  0.00000000000E+00 0.  1.
         23    2    1    2    0    0 -0.21116114006E+03  0.18208767334E+03  0.43521556853E+03  0.52465461069E+03  0.90027337926E+02 0.  0.
          5    1    1    2  502    0  0.21515021763E+03 -0.13607063190E+03  0.24117224193E+04  0.24251241892E+04  0.41800000000E+01 0. -1.
         -5    1    1    2    0  502 -0.39890775750E+01 -0.46017041444E+02  0.85228314416E+03  0.85354408853E+03  0.41800000000E+01 0.  1.
        -11    1    3    3    0    0 -0.39079376177E+02  0.87203570501E+02  0.16252701386E+03  0.18853830004E+03  0.00000000000E+00 0. -1.
         11    1    3    3    0    0 -0.17208176388E+03  0.94884102841E+02  0.27268855468E+03  0.33611631065E+03  0.00000000000E+00 0.  1.
</event>
<event>
 7    1  0.5831876E-006  0.1038718E+03  0.7561462E-02  0.1272359E+00
         -1   -1    0    0    0  501 -0.00000000000E+00  0.00000000000E+00  0.19083500472E+03  0.19083500472E+03  0.00000000000E+00 0.  1.
          1   -1    0    0  501    0  0.00000000000E+00 -0.00000000000E+00 -0.72679719767E+02  0.72679719767E+02  0.00000000000E+00 0. -1.
         23    2    1    2    0    0  0.32224624616E+02 -0.27710832469E+02  0.67934544110E+02  0.12217964136E+03  0.92230395271E+02 0.  0.
          5    1    1    2  502    0  0.37106276115E+02 -0.24983280939E+02  0.16887324569E+02  0.47996814319E+02  0.41800000000E+01 0. -1.
         -5    1    1    2    0  502 -0.69330900731E+02  0.52694113407E+02  0.33333416275E+02  0.93338268811E+02  0.41800000000E+01 0. -1.
        -11    1    3    3    0    0  0.34133154757E+02  0.11770038828E+02  0.73858500725E+02  0.82211216978E+02  0.00000000000E+00 0.  1.
         11    1    3    3    0    0 -0.19085301412E+01 -0.39480871297E+02 -0.59239566147E+01  0.39968424383E+02  0.00000000000E+00 0. -1.
</event>
<event>
 7    1  0.5831876E-006  0.1241922E+03  0.7561462E-02  0.1236337E+00
         -1   -1    0    0    0  501 -0.00000000000E+00  0.00000000000E+00  0.57110976653E+02  0.57110976653E+02  0.00000000000E+00 0.  1.
          1   -1    0    0  501    0  0.00000000000E+00 -0.00000000000E+00 -0.37345240403E+03  0.37345240403E+03  0.00000000000E+00 0. -1.
         23    2    1    2    0    0 -0.18127132495E+02 -0.93833439984E+02 -0.11294658288E+03  0.17473950877E+03  0.92971274867E+02 0.  0.
          5    1    1    2  502    0  0.36219865988E+02  0.24765290981E+02 -0.17227859128E+03  0.17782739874E+03  0.41800000000E+01 0. -1.
         -5    1    1    2    0  502 -0.18092733493E+02  0.69068149003E+02 -0.31116253211E+02  0.77996473163E+02  0.41800000000E+01 0.  1.
        -11    1    3    3    0    0  0.19226610229E+02  0.10543888294E+02 -0.24823986458E+02  0.33121993070E+02  0.00000000000E+00 0. -1.
         11    1    3    3    0    0 -0.37353742724E+02 -0.10437732828E+03 -0.88122596424E+02  0.14161751570E+03  0.00000000000E+00 0.  1.
</event>
<event>
 7    1  0.5831876E-006  0.9196578E+02  0.7561462E-02  0.1298160E+00
          2   -1    0    0  501    0  0.00000000000E+00  0.00000000000E+00  0.91640083118E+03  0.91640083118E+03  0.00000000000E+00 0. -1.
         -2   -1    0    0    0  501 -0.00000000000E+00 -0.00000000000E+00 -0.14435484122E+02  0.14435484122E+02  0.00000000000E+00 0.  1.
         23    2    1    2    0    0  0.65499734163E+01  0.49619396132E+01  0.22693944170E+03  0.24426918042E+03  0.89991106822E+02 0.  0.
          5    1    1    2  502    0 -0.52601772642E+02 -0.74771480275E+01  0.56056841742E+03  0.56309615274E+03  0.41800000000E+01 0.  1.
         -5    1    1    2    0  502  0.46051799226E+02  0.25152084144E+01  0.11445748794E+03  0.12347098214E+03  0.41800000000E+01 0.  1.
        -11    1    3    3    0    0 -0.30821859602E+02 -0.22321754478E+02  0.14755698171E+03  0.15238540154E+03  0.00000000000E+00 0. -1.
         11    1    3    3    0    0  0.37371833018E+02  0.27283694092E+02  0.79382459996E+02  0.91883778881E+02  0.00000000000E+00 0.  1.
</event>
<event>
 7    1  0.5831876E-006  0.1925484E+03  0.7561462E-02  0.1156183E+00
         -1   -1    0    0    0  501 -0.00000000000E+00  0.00000000000E+00  0.47113380049E+02  0.47113380049E+02  0.00000000000E+00 0.  1.
          1   -1    0    0  501    0  0.00000000000E+00 -0.00000000000E+00 -0.89501462299E+03  0.89501462299E+03  0.00000000000E+00 0. -1.
         23    2    1    2    0    0  0.99570554460E+02 -0.14246612169E+03 -0.40063075750E+03  0.44623591147E+03  0.91709289015E+02 0.  0.
          5    1    1    2  502    0  0.21458695033E+02  0.62145944159E+02 -0.10373696167E+03  0.12288784963E+03  0.41800000000E+01 0.  1.
         -5    1    1    2    0  502 -0.12102924949E+03  0.80320177531E+02 -0.34353352377E+03  0.37300424194E+03  0.41800000000E+01 0.  1.
        -11    1    3    3    0    0  0.90999871368E+01 -0.10407802947E+02  0.10188463224E+01  0.13862545794E+02  0.00000000000E+00 0.  1.
         11    1    3    3    0    0  0.90470567323E+02 -0.13205831874E+03 -0.40164960382E+03  0.43237336568E+03  0.00000000000E+00 0. -1.
</event>
<event>
 7    1  0.5831876E-006  0.2231066E+03  0.7561462E-02  0.1131588E+00
          2   -1    0    0  501    0  0.00000000000E+00  0.00000000000E+00  0.17867674173E+04  0.17867674173E+04  0.00000000000E+00 0. -1.
         -2   -1    0    0    0  501 -0.00000000000E+00 -0.00000000000E+00 -0.30606835333E+02  0.30606835333E+02  0.00000000000E+00 0.  1.
         23    2    1    2    0    0  0.14816613539E+03 -0.13908126786E+03  0.70284916843E+03  0.73739280624E+03  0.91947780781E+02 0.  0.
          5    1    1    2  502    0 -0.13897545069E+01 -0.20907913005E+02  0.92966406237E+02  0.95390237092E+02  0.41800000000E+01 0.  1.
         -5    1    1    2    0  502 -0.14677638088E+03  0.15998918087E+03  0.96034500731E+03  0.98459120931E+03  0.41800000000E+01 0.  1.
        -11    1    3    3    0    0  0.11176527196E+03 -0.76996710070E+02  0.31610336932E+03  0.34400771717E+03  0.00000000000E+00 0. -1.
         11    1    3    3    0    0  0.36400863426E+02 -0.62084557794E+02  0.38674579911E+03  0.39338508907E+03  0.00000000000E+00 0.  1.
</event>
<event>
 7    1  0.5831876E-006  0.1274799E+03  0.7561462E-02  0.1231244E+00
         -2   -1    0    0    0  501 -0.00000000000E+00  0.00000000000E+00  0.98264597510E+02  0.98264597510E+02  0.00000000000E+00 0.  1.
          2   -1    0    0  501    0  0.00000000000E+00 -0.00000000000E+00 -0.25540865722E+03  0.25540865722E+03  0.00000000000E+00 0. -1.
         23    2    1    2    0    0 -0.29391377158E+02 -0.90013702294E+02 -0.10094488491E+01  0.13233288280E+03  0.92437293513E+02 0.  0.
          5    1    1    2  502    0  0.43743443155E+02 -0.93931303913E-01 -0.11115713998E+03  0.11952773658E+03  0.41800000000E+01 0. -1.
         -5    1    1    2    0  502 -0.14352065997E+02  0.90107633598E+02 -0.44977470884E+02  0.10181263536E+03  0.41800000000E+01 0. -1.
        -11    1    3    3    0    0 -0.51599550277E+02 -0.41130937618E+02  0.27563479950E+02  0.71512327924E+02  0.00000000000E+00 0.  1.
         11    1    3    3    0    0  0.22208173119E+02 -0.48882764676E+02 -0.28572928799E+02  0.60820554879E+02  0.00000000000E+00 0. -1.
</event>
<event>
 7    1  0.5831876E-006  0.1255690E+03  0.7561462E-02  0.1234183E+00
          1   -1    0    0  501    0  0.00000000000E+00  0.00000000000E+00  0.85403374105E+03  0.85403374105E+03  0.00000000000E+00 0. -1.
         -1   -1    0    0    0  501 -0.00000000000E+00 -0.00000000000E+00 -0.21340196823E+02  0.21340196823E+02  0.00000000000E+00 0.  1.
         23    2    1    2    0    0  0.55924184263E+01 -0.71156217068E+02  0.26332251764E+03  0.28807023178E+03  0.92472848834E+02 0.  0.
          5    1    1    2  502    0  0.50787016568E+02  0.76544755978E+01  0.13113157027E+03  0.14089312676E+03  0.41800000000E+01 0. -1.
         -5    1    1    2    0  502 -0.56379434994E+02  0.63501741470E+02  0.43823945632E+03  0.44641057933E+03  0.41800000000E+01 0. -1.
        -11    1    3    3    0    0  0.47692047819E+02 -0.39116493775E+02  0.16928467641E+03  0.18017195447E+03  0.00000000000E+00 0.  1.
         11    1    3    3    0    0 -0.42099629393E+02 -0.32039723293E+02  0.94037841230E+02  0.10789827731E+03  0.00000000000E+00 0. -1.
</event>
<event>
 7    1  0.5831876E-006  0.2680624E+03  0.7561462E-02  0.1102394E+00
         -2   -1    0    0    0  501 -0.00000000000E+00  0.00000000000E+00  0.64952157128E+02  0.64952157128E+02  0.00000000000E+00 0.  1.
          2   -1    0    0  501    0  0.00000000000E+00 -0.00000000000E+00 -0.12681287420E+04  0.12681287420E+04  0.00000000000E+00 0. -1.
         23    2    1    2    0    0 -0.23148422300E+03 -0.12780923221E+03 -0.60600003297E+03  0.66810980544E+03  0.95992326931E+02 0.  0.
          5    1    1    2  502    0  0.96017188581E+02  0.19850422775E+02 -0.10757930691E+03  0.14561634339E+03  0.41800000000E+01 0. -1.
         -5    1    1    2    0  502  0.13546703442E+03  0.10795880943E+03 -0.48959724497E+03  0.51935475028E+03  0.41800000000E+01 0. -1.
        -11    1    3    3    0    0 -0.11407472617E+03 -0.70058043036E+02 -0.19303531626E+03  0.23491233656E+03  0.00000000000E+00 0.  1.
         11    1    3    3    0    0 -0.11740949684E+03 -0.57751189173E+02 -0.41296471671E+03  0.43319746888E+03  0.00000000000E+00 0. -1.
</event>
<event>
 7    1  0.5831876E-006  0.1165492E+03  0.7561462E-02  0.1248901E+00
         -2   -1    0    0    0  501 -0.00000000000E+00  0.00000000000E+00  0.65624171487E+02  0.65624171487E+02  0.00000000000E+00 0.  1.
          2   -1    0    0  501    0  0.00000000000E+00 -0.00000000000E+00 -0.31468290547E+03  0.31468290547E+03  0.00000000000E+00 0. -1.
         23    2    1    2    0    0  0.45430768157E+01  0.88066482179E+02 -0.77058692318E+02  0.15007181497E+03  0.93846485054E+02 0.  0.
          5    1    1    2  502    0 -0.43966422474E+02 -0.78250835828E+02 -0.52768520502E+02  0.10420282515E+03  0.41800000000E+01 0. -1.
         -5    1    1    2    0  502  0.39423345658E+02 -0.98156463510E+01 -0.11923152116E+03  0.12603243684E+03  0.41800000000E+01 0. -1.
        -11    1    3    3    0    0 -0.18633572405E+02  0.10372420176E+02 -0.64617305652E+02  0.68045523810E+02  0.00000000000E+00 0.  1.
         11    1    3    3    0    0  0.23176649221E+02  0.77694062003E+02 -0.12441386666E+02  0.82026291162E+02  0.00000000000E+00 0. -1.
</event>
<event>
 7    1  0.5831876E-006  0.1115772E+03  0.7561462E-02  0.1257677E+00
         -1   -1    0    0    0  501 -0.00000000000E+00  0.00000000000E+00  0.13330973429E+03  0.13330973429E+03  0.00000000000E+00 0.  1.
          1   -1    0    0  501    0  0.00000000000E+00 -0.00000000000E+00 -0.12317284040E+03  0.12317284040E+03  0.00000000000E+00 0. -1.
         23    2    1    2    0    0  0.33794676824E+02  0.10365486686E+02  0.63236500309E+02  0.11606879524E+03  0.90683993968E+02 0.  0.
          5    1    1    2  502    0  0.45524932120E+02 -0.19325971500E+02 -0.14901077686E+02  0.51822071891E+02  0.41800000000E+01 0.  1.
         -5    1    1    2    0  502 -0.79319608944E+02  0.89604848136E+01 -0.38198528726E+02  0.88591707558E+02  0.41800000000E+01 0.  1.
        -11    1    3    3    0    0 -0.29436114141E+02 -0.44263682796E+00  0.35667210257E+02  0.46247493236E+02  0.00000000000E+00 0.  1.
         11    1    3    3    0    0  0.63230790965E+02  0.10808123514E+02  0.27569290052E+02  0.69821302007E+02  0.00000000000E+00 0. -1.
</event>
<event>
 7    1  0.5831876E-006  0.8027962E+02  0.7561462E-02  0.1328260E+00
         -3   -1    0    0    0  501 -0.00000000000E+00  0.00000000000E+00  0.31932783038E+03  0.31932783038E+03  0.00000000000E+00 0.  1.
          3   -1    0    0  501    0  0.00000000000E+00 -0.00000000000E+00 -0.44831308198E+02  0.44831308198E+02  0.00000000000E+00 0. -1.
         23    2    1    2    0    0  0.39664208004E+02 -0.23144332299E+02  0.10752088842E+03  0.15053155759E+03  0.94816131908E+02 0.  0.
          5    1    1    2  502    0 -0.62107557430E+02  0.27806818301E+02  0.29659642861E+02  0.74348736698E+02  0.41800000000E+01 0.  1.
         -5    1    1    2    0  502  0.22443349426E+02 -0.46624860018E+01  0.13731599090E+03  0.13927884429E+03  0.41800000000E+01 0.  1.
        -11    1    3    3    0    0  0.17709918435E+02 -0.38441006674E+02  0.27675409447E+01  0.42414755545E+02  0.00000000000E+00 0. -1.
         11    1    3    3    0    0  0.21954289570E+02  0.15296674375E+02  0.10475334747E+03  0.10811680204E+03  0.00000000000E+00 0.  1.
</event>
<event>
 7    1  0.5831876E-006  0.6518437E+02  0.7561462E-02  0.1377279E+00
         -2   -1    0    0    0  501 -0.00000000000E+00  0.00000000000E+00  0.17503828574E+02  0.17503828574E+02  0.00000000000E+00 0.  1.
          2   -1    0    0  501    0  0.00000000000E+00 -0.00000000000E+00 -0.12761464589E+04  0.12761464589E+04  0.00000000000E+00 0. -1.
         23    2    1    2    0    0  0.28144391501E+02  0.21188077908E+02 -0.15869664108E+03  0.18605216141E+03  0.90497190326E+02 0.  0.
          5    1    1    2  502    0 -0.22264981322E+02 -0.87994052591E+01 -0.35307749931E+02  0.42863370508E+02  0.41800000000E+01 0.  1.
         -5    1    1    2    0  502 -0.58794101796E+01 -0.12388672649E+02 -0.10646382393E+04  0.10647347556E+04  0.41800000000E+01 0.  1.
        -11    1    3    3    0    0 -0.28463510170E+02 -0.57512475251E+01 -0.82023036440E+02  0.87011647301E+02  0.00000000000E+00 0. -1.
         11    1    3    3    0    0  0.56607901671E+02  0.26939325433E+02 -0.76673604637E+02  0.99040514107E+02  0.00000000000E+00 0.  1.
</event>
<event>
 7    1  0.5831876E-006  0.1014453E+03  0.7561462E-02  0.1277286E+00
          1   -1    0    0  501    0  0.00000000000E+00  0.00000000000E+00  0.41938320051E+03  0.41938320051E+03  0.00000000000E+00 0. -1.
         -1   -1    0    0    0  501 -0.00000000000E+00 -0.00000000000E+00 -0.56543202280E+02  0.56543202280E+02  0.00000000000E+00 0.  1.
         23    2    1    2    0    0 -0.61236207139E+02 -0.44109013398E+02  0.44043851395E+02  0.12525115961E+03  0.89735801162E+02 0.  0.
          5    1    1    2  502    0 -0.12002325693E+01  0.42051441399E+02  0.22606469870E+02  0.47940475195E+02  0.41800000000E+01 0. -1.
         -5    1    1    2    0  502  0.62436439708E+02  0.20575719991E+01  0.29618967697E+03  0.30273476799E+03  0.41800000000E+01 0. -1.
        -11    1    3    3    0    0 -0.24986630702E+02 -0.54786514483E+02  0.59286737702E+02  0.84503320351E+02  0.00000000000E+00 0.  1.
         11    1    3    3    0    0 -0.36249576437E+02  0.10677501085E+02 -0.15242886307E+02  0.40747839259E+02  0.00000000000E+00 0. -1.
</event>
<event>
 7    1  0.5831876E-006  0.1375936E+03  0.7561462E-02  0.1216604E+00
          2   -1    0    0  501    0  0.00000000000E+00  0.00000000000E+00  0.28788777047E+02  0.28788777047E+02  0.00000000000E+00 0. -1.
         -2   -1    0    0    0  501 -0.00000000000E+00 -0.00000000000E+00 -0.75323557545E+03  0.75323557545E+03  0.00000000000E+00 0.  1.
         23    2    1    2    0    0  0.86882949447E+02  0.14704217600E+02 -0.45256396118E+03  0.47004339185E+03  0.91442825523E+02 0.  0.
          5    1    1    2  502    0 -0.61383728178E+02 -0.66378084572E+02 -0.12653625090E+03  0.15557283628E+03  0.41800000000E+01 0.  1.
         -5    1    1    2    0  502 -0.25499221268E+02  0.51673866972E+02 -0.14534658632E+03  0.15640812437E+03  0.41800000000E+01 0.  1.
        -11    1    3    3    0    0 -0.17722184508E+02  0.13526103759E+02 -0.86238460473E+02  0.89073584027E+02  0.00000000000E+00 0.  1.
         11    1    3    3    0    0  0.10460513395E+03  0.11781138407E+01 -0.36632550071E+03  0.38096980782E+03  0.00000000000E+00 0. -1.
</event>
<event>
 7    1  0.5831876E-006  0.8657025E+02  0.7561462E-02  0.1311377E+00
         -1   -1    0    0    0  501 -0.00000000000E+00  0.00000000000E+00  0.45208886444E+02  0.45208886444E+02  0.00000000000E+00 0.  1.
          1   -1    0    0  501    0  0.00000000000E+00 -0.00000000000E+00 -0.32132515594E+03  0.32132515594E+03  0.00000000000E+00 0. -1.
         23    2    1    2    0    0  0.16829268796E+01 -0.18679329817E+02 -0.46151251697E+02  0.10407994838E+03  0.91383521575E+02 0.  0.
          5    1    1    2  502    0 -0.40010276351E+02  0.56873505582E+02 -0.15472212634E+03  0.16968154475E+03  0.41800000000E+01 0.  1.
         -5    1    1    2    0  502  0.38327349471E+02 -0.38194175765E+02 -0.75242891459E+02  0.92772549253E+02  0.41800000000E+01 0.  1.
        -11    1    3    3    0    0 -0.53196357666E+01 -0.32915410537E+02  0.18072648859E+02  0.37925498182E+02  0.00000000000E+00 0.  1.
         11    1    3    3    0    0  0.70025626462E+01  0.14236080721E+02 -0.64223900557E+02  0.66154450195E+02  0.00000000000E+00 0. -1.
</event>
<event>
 7    1  0.5831876E-006  0.1204144E+03  0.7561462E-02  0.1242415E+00
         -3   -1    0    0    0  501 -0.00000000000E+00  0.00000000000E+00  0.12215734556E+02  0.12215734556E+02  0.00000000000E+00 0.  1.
          3   -1    0    0  501    0  0.00000000000E+00 -0.00000000000E+00 -0.23814065820E+04  0.23814065820E+04  0.00000000000E+00 0. -1.
         23    2    1    2    0    0 -0.82811927973E+02  0.62741925117E+02 -0.53873832378E+03  0.55596109499E+03  0.89774122351E+02 0.  0.
          5    1    1    2  502    0  0.33078177757E+02 -0.12344061606E+02 -0.14626506604E+04  0.14630826937E+04  0.41800000000E+01 0.  1.
         -5    1    1    2    0  502  0.49733750216E+02 -0.50397863510E+02 -0.36780186318E+03  0.37457852783E+03  0.41800000000E+01 0.  1.
        -11    1    3    3    0    0 -0.35383880289E+02  0.77068056048E+02 -0.28154657881E+03  0.29404077998E+03  0.00000000000E+00 0. -1.
         11    1    3    3    0    0 -0.47428047684E+02 -0.14326130932E+02 -0.25719174497E+03  0.26192031501E+03  0.00000000000E+00 0.  1.
</event>
<event>
 7    1  0.5831876E-006  0.5816078E+02  0.7561462E-02  0.1405716E+00
         -2   -1    0    0    0  501 -0.00000000000E+00  0.00000000000E+00  0.42392180249E+02  0.42392180249E+02  0.00000000000E+00 0.  1.
          2   -1    0    0  501    0  0.00000000000E+00 -0.00000000000E+00 -0.36694949865E+03  0.36694949865E+03  0.00000000000E+00 0. -1.
         23    2    1    2    0    0 -0.21476440047E+02  0.25834540760E+02 -0.56967236930E+02  0.11204682965E+03  0.90446475768E+02 0.  0.
          5    1    1    2  502    0 -0.40589934147E+00 -0.13046458017E+02  0.10968521197E+02  0.17554363512E+02  0.41800000000E+01 0. -1.
         -5    1    1    2    0  502  0.21882339388E+02 -0.12788082743E+02 -0.27855860266E+03  0.27974048573E+03  0.41800000000E+01 0. -1.
        -11    1    3    3    0    0  0.21257526262E+02  0.26770780133E+02 -0.60149116371E+02  0.69184342823E+02  0.00000000000E+00 0. -1.
         11    1    3    3    0    0 -0.42733966309E+02 -0.93623937269E+00  0.31818794402E+01  0.42862486832E+02  0.00000000000E+00 0.  1.
</event>
<event>
 7    1  0.5831876E-006  0.1456506E+03  0.7561462E-02  0.1205922E+00
          1   -1    0    0  501    0  0.00000000000E+00  0.00000000000E+00  0.23330624642E+04  0.23330624642E+04  0.00000000000E+00 0. -1.
         -1   -1    0    0    0  501 -0.00000000000E+00 -0.00000000000E+00 -0.20018614653E+02  0.20018614653E+02  0.00000000000E+00 0.  1.
         23    2    1    2    0    0 -0.41033479551E+01 -0.13903837064E+03  0.43229766538E+03  0.46305408760E+03  0.90494809686E+02 0.  0.
          5    1    1    2  502    0  0.23786297217E+02  0.67047262952E+02  0.33604964943E+03  0.34352287069E+03  0.41800000000E+01 0. -1.
         -5    1    1    2    0  502 -0.19682949262E+02  0.71991107686E+02  0.15446965347E+04  0.15465041206E+04  0.41800000000E+01 0. -1.
        -11    1    3    3    0    0 -0.22423130172E+02 -0.57544452428E+02  0.80416751203E+02  0.10139533838E+03  0.00000000000E+00 0.  1.
         11    1    3    3    0    0  0.18319782217E+02 -0.81493918210E+02  0.35188091418E+03  0.36165874922E+03  0.00000000000E+00 0. -1.
</event>
<event>
 7    1  0.5831876E-006  0.1504648E+03  0.7561462E-02  0.1199903E+00
         -1   -1    0    0    0  501 -0.00000000000E+00  0.00000000000E+00  0.62556855561E+03  0.62556855561E+03  0.00000000000E+00 0.  1.
          1   -1    0    0  501    0  0.00000000000E+00 -0.00000000000E+00 -0.44413941513E+02  0.44413941513E+02  0.00000000000E+00 0. -1.
         23    2    1    2    0    0  0.67546880583E+02 -0.10700332317E+03  0.28746641975E+03  0.32659455310E+03  0.89525233214E+02 0.  0.
          5    1    1    2  502    0  0.94017336861E+01  0.94979265818E+02  0.19876441376E+03  0.22053167144E+03  0.41800000000E+01 0. -1.
         -5    1    1    2    0  502 -0.76948614269E+02  0.12024057350E+02  0.94923780589E+02  0.12285627259E+03  0.41800000000E+01 0. -1.
        -11    1    3    3    0    0  0.35662131944E+01 -0.14460471896E+02 -0.29182104825E+01  0.15176925790E+02  0.00000000000E+00 0. -1.
         11    1    3    3    0    0  0.63980667389E+02 -0.92542851271E+02  0.29038463023E+03  0.31141762731E+03  0.00000000000E+00 0.  1.
</event>
<event>
 7    1  0.5831876E-006  0.1622498E+03  0.7561462E-02  0.1186180E+00
         -2   -1    0    0    0  501 -0.00000000000E+00  0.00000000000E+00  0.52290715408E+02  0.52290715408E+02  0.00000000000E+00 0.  1.
          2   -1    0    0  501    0  0.00000000000E+00 -0.00000000000E+00 -0.80280973529E+03  0.80280973529E+03  0.00000000000E+00 0. -1.
         23    2    1    2    0    0 -0.91295766944E+02  0.93092535216E+02 -0.12086671442E+03  0.20003530384E+03  0.91674549095E+02 0.  0.
          5    1    1    2  502    0  0.67879479656E+02  0.12566900453E+02 -0.18769421238E+03  0.20003034896E+03  0.41800000000E+01 0.  1.
         -5    1    1    2    0  502  0.23416287287E+02 -0.10565943567E+03 -0.44195809309E+03  0.45503479790E+03  0.41800000000E+01 0.  1.
        -11    1    3    3    0    0  0.25675139982E+01  0.38228850999E+02 -0.70445547805E+02  0.80191099147E+02  0.00000000000E+00 0. -1.
         11    1    3    3    0    0 -0.93863280942E+02  0.54863684217E+02 -0.50421166616E+02  0.11984420469E+03  0.00000000000E+00 0.  1.
</event>
<event>
 7    1  0.5831876E-006  0.4502875E+03  0.7561462E-02  0.1027636E+00
          2   -1    0    0  501    0  0.00000000000E+00  0.00000000000E+00  0.12079834458E+04  0.12079834458E+04  0.00000000000E+00 0. -1.
         -2   -1    0    0    0  501 -0.00000000000E+00 -0.00000000000E+00 -0.19124015751E+03  0.19124015751E+03  0.00000000000E+00 0.  1.
         23    2    1    2    0    0 -0.11149825196E+02 -0.48984620832E+02  0.79138342777E+02  0.13062196806E+03  0.90969278128E+02 0.  0.
          5    1    1    2  502    0 -0.32448802993E+03 -0.24301664888E+03  0.51017509182E+03  0.65164842509E+03  0.41800000000E+01 0. -1.
         -5    1    1    2    0  502  0.33563785513E+03  0.29200126971E+03  0.42742985371E+03  0.61695321018E+03  0.41800000000E+01 0.  1.
        -11    1    3    3    0    0 -0.43008715300E+01 -0.16155620002E+02  0.92885351143E+02  0.94377910607E+02  0.00000000000E+00 0.  1.
         11    1    3    3    0    0 -0.68489536660E+01 -0.32829000830E+02 -0.13747008366E+02  0.36244057455E+02  0.00000000000E+00 0. -1.
</event>
<event>
 7    1  0.5831876E-006  0.1971511E+03  0.7561462E-02  0.1152165E+00
         -1   -1    0    0    0  501 -0.00000000000E+00  0.00000000000E+00  0.11413627475E+03  0.11413627475E+03  0.00000000000E+00 0.  1.
          1   -1    0    0  501    0  0.00000000000E+00 -0.00000000000E+00 -0.37824509423E+03  0.37824509423E+03  0.00000000000E+00 0. -1.
         23    2    1    2    0    0 -0.17481198082E+03  0.29456339081E+02 -0.14013459793E+03  0.24249354895E+03  0.87968808072E+02 0.  0.
          5    1    1    2  502    0  0.86060904796E+01 -0.48244072298E+02 -0.21444549877E+02  0.53655348518E+02  0.41800000000E+01 0.  1.
         -5    1    1    2    0  502  0.16620589034E+03  0.18787733217E+02 -0.10252967166E+03  0.19623247151E+03  0.41800000000E+01 0.  1.
        -11    1    3    3    0    0 -0.24700778010E+02 -0.61448248273E+00 -0.69746830449E+02  0.73994096932E+02  0.00000000000E+00 0. -1.
         11    1    3    3    0    0 -0.15011120281E+03  0.30070821563E+02 -0.70387767485E+02  0.16849945202E+03  0.00000000000E+00 0.  1.
</event>
<event>
 7    1  0.5831876E-006  0.1107003E+03  0.7561462E-02  0.1259279E+00
          1   -1    0    0  501    0  0.00000000000E+00  0.00000000000E+00  0.59887189876E+03  0.59887189876E+03  0.00000000000E+00 0. -1.
         -1   -1    0    0    0  501 -0.00000000000E+00 -0.00000000000E+00 -0.26263920371E+02  0.26263920371E+02  0.00000000000E+00 0.  1.
         23    2    1    2    0    0 -0.38996754440E+01 -0.29801510629E+02  0.11437550542E+03  0.14918687079E+03  0.90948494605E+02 0.  0.
          5    1    1    2  502    0  0.29537164356E+02  0.71781152000E+02  0.31493652424E+03  0.32438783048E+03  0.41800000000E+01 0.  1.
         -5    1    1    2    0  502 -0.25637488912E+02 -0.41979641371E+02  0.14329594873E+03  0.15156111787E+03  0.41800000000E+01 0.  1.
        -11    1    3    3    0    0 -0.12664878225E+02 -0.60790692037E+02  0.62325907333E+02  0.87979691428E+02  0.00000000000E+00 0.  1.
         11    1    3    3    0    0  0.87652027808E+01  0.30989181408E+02  0.52049598091E+02  0.61207179363E+02  0.00000000000E+00 0. -1.
</event>
<event>
 7    1  0.5831876E-006  0.1411101E+03  0.7561462E-02  0.1211843E+00
         -1   -1    0    0    0  501 -0.00000000000E+00  0.00000000000E+00  0.81863108711E+02  0.81863108711E+02  0.00000000000E+00 0.  1.
          1   -1    0    0  501    0  0.00000000000E+00 -0.00000000000E+00 -0.10205105300E+04  0.10205105300E+04  0.00000000000E+00 0. -1.
         23    2    1    2    0    0  0.23473043726E+02 -0.13801309886E+03 -0.26014180199E+02  0.17062988564E+03  0.94017131749E+02 0.  0.
          5    1    1    2  502    0 -0.12467759408E+02  0.11853732032E+03 -0.89511318581E+03  0.90302360387E+03  0.41800000000E+01 0.  1.
         -5    1    1    2    0  502 -0.11005284318E+02  0.19475778535E+02 -0.17520055237E+02  0.28720149163E+02  0.41800000000E+01 0.  1.
        -11    1    3    3    0    0  0.19555491168E+02 -0.94069367992E+02  0.28764853966E+02  0.10029396818E+03  0.00000000000E+00 0.  1.
         11    1    3    3    0    0  0.39175525580E+01 -0.43943730866E+02 -0.54779034165E+02  0.70335917457E+02  0.00000000000E+00 0. -1.
</event>
<event>
 7    1  0.1099403E-005  0.1732850E+03  0.7561462E-02  0.1174465E+00
         -1   -1    0    0    0  501 -0.00000000000E+00  0.00000000000E+00  0.11847655833E+03  0.11847655833E+03  0.00000000000E+00 0.  1.
          1   -1    0    0  501    0  0.00000000000E+00 -0.00000000000E+00 -0.37281076014E+03  0.37281076014E+03  0.00000000000E+00 0. -1.
         23    2    1    2    0    0 -0.10592159332E+03  0.13116227012E+03 -0.48969858338E+02  0.19761301915E+03  0.90718979691E+02 0.  0.
          5    1    1    2  502    0  0.68576477111E+02 -0.10403652026E+03 -0.54887494134E+02  0.13622202529E+03  0.41800000000E+01 0.  1.
         -5    1    1    2    0  502  0.37345116213E+02 -0.27125749859E+02 -0.15047684934E+03  0.15745227403E+03  0.41800000000E+01 0.  1.
        -11    1    3    3    0    0 -0.10562350574E+03  0.10348228695E+03 -0.69266901479E+02  0.16328751428E+03  0.00000000000E+00 0. -1.
         11    1    3    3    0    0 -0.29808757998E+00  0.27679983173E+02  0.20297043140E+02  0.34325504874E+02  0.00000000000E+00 0.  1.
</event>
<event>
 7    1  0.5831876E-006  0.5248484E+02  0.7561462E-02  0.1432382E+00
          1   -1    0    0  501    0  0.00000000000E+00  0.00000000000E+00  0.50081746893E+03  0.50081746893E+03  0.00000000000E+00 0. -1.
         -1   -1    0    0    0  501 -0.00000000000E+00 -0.00000000000E+00 -0.33601919276E+02  0.33601919276E+02  0.00000000000E+00 0.  1.
         23    2    1    2    0    0 -0.26756917789E+02 -0.14711659015E+02  0.79215423202E+02  0.12561087325E+03  0.92577765393E+02 0.  0.
          5    1    1    2  502    0  0.38693742754E+02  0.11492347441E+02  0.29741156295E+02  0.50311912663E+02  0.41800000000E+01 0.  1.
         -5    1    1    2    0  502 -0.11936824965E+02  0.32193115740E+01  0.35825897015E+03  0.35849660229E+03  0.41800000000E+01 0.  1.
        -11    1    3    3    0    0  0.58180636363E+01 -0.17695388322E+02  0.89424094202E+02  0.91343556183E+02  0.00000000000E+00 0. -1.
         11    1    3    3    0    0 -0.32574981426E+02  0.29837293061E+01 -0.10208671000E+02  0.34267317068E+02  0.00000000000E+00 0.  1.
</event>
<event>
 7    1  0.5831876E-006  0.1421201E+03  0.7561462E-02  0.1210504E+00
          1   -1    0    0  501    0  0.00000000000E+00  0.00000000000E+00  0.11180455144E+04  0.11180455144E+04  0.00000000000E+00 0. -1.
         -1   -1    0    0    0  501 -0.00000000000E+00 -0.00000000000E+00 -0.48147591915E+02  0.48147591915E+02  0.00000000000E+00 0.  1.
         23    2    1    2    0    0 -0.96698514202E+01  0.98398719330E+02  0.65401981996E+02  0.15046552398E+03  0.92664128258E+02 0.  0.
          5    1    1    2  502    0 -0.45588037690E+01 -0.12129730635E+03  0.87500143219E+03  0.88339051272E+03  0.41800000000E+01 0. -1.
         -5    1    1    2    0  502  0.14228655189E+02  0.22898587016E+02  0.12949450834E+03  0.13233706966E+03  0.41800000000E+01 0.  1.
        -11    1    3    3    0    0 -0.44235985977E+02  0.89462138907E+02  0.47647878409E+02  0.11059212029E+03  0.00000000000E+00 0.  1.
         11    1    3    3    0    0  0.34566134557E+02  0.89365804230E+01  0.17754103587E+02  0.39873403693E+02  0.00000000000E+00 0. -1.
</event>
<event>
 7    1  0.5831876E-006  0.8697731E+02  0.7561462E-02  0.1310341E+00
          1   -1    0    0  501    0  0.00000000000E+00  0.00000000000E+00  0.63358758756E+03  0.63358758756E+03  0.00000000000E+00 0. -1.
         -1   -1    0    0    0  501 -0.00000000000E+00 -0.00000000000E+00 -0.23833889853E+02  0.23833889853E+02  0.00000000000E+00 0.  1.
         23    2    1    2    0    0  0.28300903569E+02 -0.36141051045E+02  0.19829734392E+03  0.22492785037E+03  0.95726613593E+02 0.  0.
          5    1    1    2  502    0  0.35049837161E+02  0.51218378848E+02  0.13819737094E+03  0.15155130864E+03  0.41800000000E+01 0.  1.
         -5    1    1    2    0  502 -0.63350740730E+02 -0.15077327803E+02  0.27325898284E+03  0.28094231840E+03  0.41800000000E+01 0.  1.
        -11    1    3    3    0    0  0.97232155017E+01 -0.71701279739E+01 -0.88279568540E+01  0.14962769699E+02  0.00000000000E+00 0.  1.
         11    1    3    3    0    0  0.18577688067E+02 -0.28970923071E+02  0.20712530078E+03  0.20996508067E+03  0.00000000000E+00 0. -1.
</event>
<event>
 7    1  0.5831876E-006  0.6698838E+02  0.7561462E-02  0.1370644E+00
         -1   -1    0    0    0  501 -0.00000000000E+00  0.00000000000E+00  0.11860048573E+03  0.11860048573E+03  0.00000000000E+00 0.  1.
          1   -1    0    0  501    0  0.00000000000E+00 -0.00000000000E+00 -0.10465017822E+03  0.10465017822E+03  0.00000000000E+00 0. -1.
         23    2    1    2    0    0 -0.29596167907E+02 -0.21173496290E+02  0.79955414253E+01  0.92836661902E+02  0.85032152805E+02 0.  0.
          5    1    1    2  502    0 -0.47899656312E+01 -0.22905544152E+02  0.52447131205E+02  0.57582824655E+02  0.41800000000E+01 0. -1.
         -5    1    1    2    0  502  0.34386133538E+02  0.44079040441E+02 -0.46492365119E+02  0.72831177392E+02  0.41800000000E+01 0. -1.
        -11    1    3    3    0    0 -0.25527160304E+02 -0.32951876801E+02 -0.30968820485E+02  0.51928122825E+02  0.00000000000E+00 0. -1.
         11    1    3    3    0    0 -0.40690076032E+01  0.11778380511E+02  0.38964361911E+02  0.40908539077E+02  0.00000000000E+00 0.  1.
</event>
<event>
 7    1  0.5831876E-006  0.1919361E+03  0.7561462E-02  0.1156727E+00
          2   -1    0    0  501    0  0.00000000000E+00  0.00000000000E+00  0.15839605995E+04  0.15839605995E+04  0.00000000000E+00 0. -1.
         -2   -1    0    0    0  501 -0.00000000000E+00 -0.00000000000E+00 -0.39053315405E+02  0.39053315405E+02  0.00000000000E+00 0.  1.
         23    2    1    2    0    0 -0.49126136525E+02  0.15257916873E+03  0.24336687230E+03  0.30568729567E+03  0.92322847536E+02 0.  0.
          5    1    1    2  502    0  0.44728810875E+01  0.21659565808E+02  0.10998911505E+03  0.11226852313E+03  0.41800000000E+01 0. -1.
         -5    1    1    2    0  502  0.44653255437E+02 -0.17423873454E+03  0.11915512968E+04  0.12050580962E+04  0.41800000000E+01 0. -1.
        -11    1    3    3    0    0  0.29207018841E+00  0.12471158607E+03  0.13789690788E+03  0.18592638922E+03  0.00000000000E+00 0.  1.
         11    1    3    3    0    0 -0.49418206713E+02  0.27867582663E+02  0.10546996442E+03  0.11976090645E+03  0.00000000000E+00 0. -1.
</event>
<event>
 7    1  0.5831876E-006  0.1608748E+03  0.7561462E-02  0.1187713E+00
          1   -1    0    0  501    0  0.00000000000E+00  0.00000000000E+00  0.15001494869E+04  0.15001494869E+04  0.00000000000E+00 0. -1.
         -1   -1    0    0    0  501 -0.00000000000E+00 -0.00000000000E+00 -0.39377680369E+02  0.39377680369E+02  0.00000000000E+00 0.  1.
         23    2    1    2    0    0 -0.11302569895E+02  0.11975719925E+03  0.13684026522E+03  0.20426931772E+03  0.92364284867E+02 0.  0.
          5    1    1    2  502    0 -0.54103129957E+02 -0.78253070570E+02  0.66752199068E+03  0.67428018817E+03  0.41800000000E+01 0.  1.
         -5    1    1    2    0  502  0.65405699851E+02 -0.41504128679E+02  0.65640955067E+03  0.66097766140E+03  0.41800000000E+01 0.  1.
        -11    1    3    3    0    0  0.17291306104E+02  0.11909691305E+03  0.93756209207E+02  0.15255586101E+03  0.00000000000E+00 0.  1.
         11    1    3    3    0    0 -0.28593875999E+02  0.66028620176E+00  0.43084056009E+02  0.51713456708E+02  0.00000000000E+00 0. -1.
</event>
<event>
 7    1  0.5831876E-006  0.8935596E+02  0.7561462E-02  0.1304419E+00
         -1   -1    0    0    0  501 -0.00000000000E+00  0.00000000000E+00  0.17997700869E+03  0.17997700869E+03  0.00000000000E+00 0.  1.
          1   -1    0    0  501    0  0.00000000000E+00 -0.00000000000E+00 -0.73377061004E+02  0.73377061004E+02  0.00000000000E+00 0. -1.
         23    2    1    2    0    0  0.26392713199E+02  0.24294574483E+02  0.54896616844E+02  0.11332687006E+03  0.92425858278E+02 0.  0.
          5    1    1    2  502    0 -0.70617355596E+02 -0.34215438370E+02  0.11733074807E+02  0.79452152763E+02  0.41800000000E+01 0.  1.
         -5    1    1    2    0  502  0.44224642398E+02  0.99208638877E+01  0.39970256037E+02  0.60575046868E+02  0.41800000000E+01 0.  1.
        -11    1    3    3    0    0  0.15304447961E+02 -0.10193252003E+02  0.71246866516E+02  0.73581550012E+02  0.00000000000E+00 0.  1.
         11    1    3    3    0    0  0.11088265237E+02  0.34487826486E+02 -0.16350249673E+02  0.39745320052E+02  0.00000000000E+00 0. -1.
</event>
<event>
 7    1  0.5831876E-006  0.1163092E+03  0.7561462E-02  0.1249313E+00
         -2   -1    0    0    0  501 -0.00000000000E+00  0.00000000000E+00  0.16534719898E+02  0.16534719898E+02  0.00000000000E+00 0.  1.
          2   -1    0    0  501    0  0.00000000000E+00 -0.00000000000E+00 -0.10092246857E+04  0.10092246857E+04  0.00000000000E+00 0. -1.
         23    2    1    2    0    0 -0.39044251730E+02  0.55942568621E+02 -0.51518858004E+03  0.52745217336E+03  0.90180361494E+02 0.  0.
          5    1    1    2  502    0  0.17724439767E+01 -0.76601676751E+02 -0.15478257393E+03  0.17276016911E+03  0.41800000000E+01 0. -1.
         -5    1    1    2    0  502  0.37271807754E+02  0.20659108130E+02 -0.32271881187E+03  0.32554706316E+03  0.41800000000E+01 0. -1.
        -11    1    3    3    0    0 -0.39334920107E+02  0.79924618490E+02 -0.40926716873E+03  0.41884937147E+03  0.00000000000E+00 0.  1.
         11    1    3    3    0    0  0.29066837610E+00 -0.23982049868E+02 -0.10592141131E+03  0.10860280189E+03  0.00000000000E+00 0. -1.
</event>
<event>
 7    1  0.5831876E-006  0.9151481E+02  0.7561462E-02  0.1299224E+00
          2   -1    0    0  501    0  0.00000000000E+00  0.00000000000E+00  0.23218699457E+03  0.23218699457E+03  0.00000000000E+00 0. -1.
         -2   -1    0    0    0  501 -0.00000000000E+00 -0.00000000000E+00 -0.45454784365E+02  0.45454784365E+02  0.00000000000E+00 0.  1.
         23    2    1    2    0    0 -0.20161790157E+02 -0.37325194935E+02  0.55974086696E+02  0.91779637230E+02  0.59082446373E+02 0.  0.
          5    1    1    2  502    0  0.52061212244E+02  0.67435209753E+02  0.10321441517E+03  0.13389759234E+03  0.41800000000E+01 0.  1.
         -5    1    1    2    0  502 -0.31899422087E+02 -0.30110014818E+02  0.27543708338E+02  0.51964549366E+02  0.41800000000E+01 0.  1.
        -11    1    3    3    0    0 -0.16805288313E+02 -0.62558116801E+00 -0.74758556397E+01  0.18403735616E+02  0.00000000000E+00 0.  1.
         11    1    3    3    0    0 -0.33565018434E+01 -0.36699613767E+02  0.63449942336E+02  0.73375901614E+02  0.00000000000E+00 0. -1.
</event>
<event>
 7    1  0.5831876E-006  0.1208973E+03  0.7561462E-02  0.1241624E+00
          3   -1    0    0  501    0  0.00000000000E+00  0.00000000000E+00  0.35086508359E+03  0.35086508359E+03  0.00000000000E+00 0. -1.
         -3   -1    0    0    0  501 -0.00000000000E+00 -0.00000000000E+00 -0.49670451945E+02  0.49670451945E+02  0.00000000000E+00 0.  1.
         23    2    1    2    0    0 -0.68659579248E+02 -0.32794449566E+02  0.12610213428E+03  0.17229272452E+03  0.89405933289E+02 0.  0.
          5    1    1    2  502    0  0.91848251244E+02  0.53746219081E+01  0.65975686848E+02  0.11329276884E+03  0.41800000000E+01 0. -1.
         -5    1    1    2    0  502 -0.23188671996E+02  0.27419827658E+02  0.10911681052E+03  0.11495004218E+03  0.41800000000E+01 0. -1.
        -11    1    3    3    0    0  0.87526584591E+01 -0.35020048824E+02  0.62079303818E+02  0.71811230405E+02  0.00000000000E+00 0. -1.
         11    1    3    3    0    0 -0.77412237707E+02  0.22255992579E+01  0.64022830458E+02  0.10048149411E+03  0.00000000000E+00 0.  1.
</event>
<event>
 7    1  0.5831876E-006  0.2711120E+03  0.7561462E-02  0.1100645E+00
         -3   -1    0    0    0  501 -0.00000000000E+00  0.00000000000E+00  0.27040133408E+03  0.27040133408E+03  0.00000000000E+00 0.  1.
          3   -1    0    0  501    0  0.00000000000E+00 -0.00000000000E+00 -0.56197938543E+03  0.56197938543E+03  0.00000000000E+00 0. -1.
         23    2    1    2    0    0 -0.12467976485E+03  0.17897668397E+02  0.16624210725E+03  0.22762707330E+03  0.91171684083E+02 0.  0.
          5    1    1    2  502    0  0.67755033880E+02 -0.19346924076E+03 -0.19045468786E+03  0.27984201304E+03  0.41800000000E+01 0. -1.
         -5    1    1    2    0  502  0.56924730973E+02  0.17557157236E+03 -0.26736547074E+03  0.32491163316E+03  0.41800000000E+01 0.  1.
        -11    1    3    3    0    0 -0.98029122797E+02  0.50656653861E+02  0.13857477955E+03  0.17714055161E+03  0.00000000000E+00 0.  1.
         11    1    3    3    0    0 -0.26650642057E+02 -0.32758985464E+02  0.27667327704E+02  0.50486521696E+02  0.00000000000E+00 0. -1.
</event>
<event>
 7    1  0.5831876E-006  0.9213757E+02  0.7561462E-02  0.1297756E+00
         -2   -1    0    0    0  501 -0.00000000000E+00  0.00000000000E+00  0.72040624197E+02  0.72040624197E+02  0.00000000000E+00 0.  1.
          2   -1    0    0  501    0  0.00000000000E+00 -0.00000000000E+00 -0.20415940642E+03  0.20415940642E+03  0.00000000000E+00 0. -1.
         23    2    1    2    0    0  0.23529700521E+02 -0.45555190332E+02 -0.45476071626E+02  0.11562657868E+03  0.93126314407E+02 0.  0.
          5    1    1    2  502    0  0.28069121070E+02 -0.26145183746E+02 -0.53863157872E+02  0.66258270175E+02  0.41800000000E+01 0. -1.
         -5    1    1    2    0  502 -0.51598821590E+02  0.71700374077E+02 -0.32779552721E+02  0.94315181752E+02  0.41800000000E+01 0. -1.
        -11    1    3    3    0    0  0.28959005793E+01 -0.32942824842E+02 -0.72304047324E+02  0.79507805958E+02  0.00000000000E+00 0. -1.
         11    1    3    3    0    0  0.20633799941E+02 -0.12612365489E+02  0.26827975698E+02  0.36118772727E+02  0.00000000000E+00 0.  1.
</event>
<event>
 7    1  0.5831876E-006  0.7119802E+02  0.7561462E-02  0.1356066E+00
         -2   -1    0    0    0  501 -0.00000000000E+00  0.00000000000E+00  0.62316049600E+02  0.62316049600E+02  0.00000000000E+00 0.  1.
          2   -1    0    0  501    0  0.00000000000E+00 -0.00000000000E+00 -0.22055690650E+03  0.22055690650E+03  0.00000000000E+00 0. -1.
         23    2    1    2    0    0 -0.28347761421E+02  0.23984057249E+02 -0.26937676133E+02  0.97759350821E+02  0.86327409887E+02 0.  0.
          5    1    1    2  502    0 -0.18777843288E+02 -0.18405274157E+02  0.15477434827E+02  0.30795858555E+02  0.41800000000E+01 0.  1.
         -5    1    1    2    0  502  0.47125604709E+02 -0.55787830919E+01 -0.14678061559E+03  0.15431774672E+03  0.41800000000E+01 0.  1.
        -11    1    3    3    0    0  0.28763813140E+01 -0.16645406420E+02  0.21435784760E+02  0.27291683580E+02  0.00000000000E+00 0.  1.
         11    1    3    3    0    0 -0.31224142735E+02  0.40629463669E+02 -0.48373460893E+02  0.70467667241E+02  0.00000000000E+00 0. -1.
</event>
<event>
 7    1  0.5831876E-006  0.1117694E+03  0.7561462E-02  0.1257328E+00
          2   -1    0    0  501    0  0.00000000000E+00  0.00000000000E+00  0.18693429944E+04  0.18693429944E+04  0.00000000000E+00 0. -1.
         -2   -1    0    0    0  501 -0.00000000000E+00 -0.00000000000E+00 -0.55884047050E+02  0.55884047050E+02  0.00000000000E+00 0.  1.
         23    2    1    2    0    0  0.41604055211E+02  0.29081476964E+02 -0.18989996118E+01  0.10439131836E+03  0.91199295151E+02 0.  0.
          5    1    1    2  502    0 -0.89283052489E+02 -0.26378852582E+02  0.12030320990E+04  0.12066362380E+04  0.41800000000E+01 0. -1.
         -5    1    1    2    0  502  0.47678997278E+02 -0.27026243825E+01  0.61232584796E+03  0.61419948506E+03  0.41800000000E+01 0.  1.
        -11    1    3    3    0    0 -0.96679366604E+01  0.29594819605E+02  0.30624913198E+02  0.43671588649E+02  0.00000000000E+00 0. -1.
         11    1    3    3    0    0  0.51271991872E+02 -0.51334264108E+00 -0.32523912810E+02  0.60719729706E+02  0.00000000000E+00 0.  1.
</event>
<event>
 7    1  0.5831876E-006  0.1641932E+03  0.7561462E-02  0.1184042E+00
         -2   -1    0    0    0  501 -0.00000000000E+00  0.00000000000E+00  0.38583205049E+02  0.38583205049E+02  0.00000000000E+00 0.  1.
          2   -1    0    0  501    0  0.00000000000E+00 -0.00000000000E+00 -0.73998248327E+03  0.73998248327E+03  0.00000000000E+00 0. -1.
         23    2    1    2    0    0  0.92596112867E+02 -0.84953654522E+02 -0.25671740021E+03  0.29983668598E+03  0.90592776495E+02 0.  0.
          5    1    1    2  502    0 -0.79010059632E+02  0.11757016450E+03 -0.35263242565E+03  0.38004267276E+03  0.41800000000E+01 0. -1.
         -5    1    1    2    0  502 -0.13586053235E+02 -0.32616509973E+02 -0.92049452363E+02  0.98686329578E+02  0.41800000000E+01 0. -1.
        -11    1    3    3    0    0  0.27992455971E+02 -0.81750538348E+02 -0.17867926458E+03  0.19847671829E+03  0.00000000000E+00 0. -1.
         11    1    3    3    0    0  0.64603656896E+02 -0.32031161742E+01 -0.78038135631E+02  0.10135996769E+03  0.00000000000E+00 0.  1.
</event>
<event>
 7    1  0.5831876E-006  0.1254102E+03  0.7561462E-02  0.1234430E+00
         -1   -1    0    0    0  501 -0.00000000000E+00  0.00000000000E+00  0.15069299610E+03  0.15069299610E+03  0.00000000000E+00 0.  1.
          1   -1    0    0  501    0  0.00000000000E+00 -0.00000000000E+00 -0.14253779160E+03  0.14253779160E+03  0.00000000000E+00 0. -1.
         23    2    1    2    0    0 -0.39667567446E+02 -0.86307011804E+02  0.30985060506E+02  0.13451458198E+03  0.90064879934E+02 0.  0.
          5    1    1    2  502    0  0.77607333605E+01  0.11312928370E+03 -0.61918903655E+01  0.11364099489E+03  0.41800000000E+01 0. -1.
         -5    1    1    2    0  502  0.31906834085E+02 -0.26822271895E+02 -0.16637965647E+02  0.45075210835E+02  0.41800000000E+01 0. -1.
        -11    1    3    3    0    0 -0.29180834578E+02 -0.52558773330E+02  0.62820100408E+02  0.86950047590E+02  0.00000000000E+00 0.  1.
         11    1    3    3    0    0 -0.10486732868E+02 -0.33748238473E+02 -0.31835039902E+02  0.47564534391E+02  0.00000000000E+00 0. -1.
</event>
<event>
 7    1  0.5831876E-006  0.1051915E+03  0.7561462E-02  0.1269743E+00
         -2   -1    0    0    0  501 -0.00000000000E+00  0.00000000000E+00  0.40218496695E+02  0.40218496695E+02  0.00000000000E+00 0.  1.
          2   -1    0    0  501    0  0.00000000000E+00 -0.00000000000E+00 -0.35856269763E+03  0.35856269763E+03  0.00000000000E+00 0. -1.
         23    2    1    2    0    0  0.62895727286E+01 -0.16175140415E+02 -0.61073929305E+02  0.11218629605E+03  0.92490790294E+02 0.  0.
          5    1    1    2  502    0 -0.63283758316E+02 -0.65677895260E+01 -0.14909110825E+03  0.16215301688E+03  0.41800000000E+01 0.  1.
         -5    1    1    2    0  502  0.56994185587E+02  0.22742929941E+02 -0.10817916338E+03  0.12444188139E+03  0.41800000000E+01 0.  1.
        -11    1    3    3    0    0  0.23649910690E+02  0.28588893039E+02 -0.51098871346E+02  0.63148537067E+02  0.00000000000E+00 0. -1.
         11    1    3    3    0    0 -0.17360337961E+02 -0.44764033455E+02 -0.99750579589E+01  0.49037758988E+02  0.00000000000E+00 0.  1.
</event>
<event>
 7    1  0.5831876E-006  0.1482402E+03  0.7561462E-02  0.1202652E+00
          1   -1    0    0  501    0  0.00000000000E+00  0.00000000000E+00  0.66777658297E+03  0.66777658297E+03  0.00000000000E+00 0. -1.
         -1   -1    0    0    0  501 -0.00000000000E+00 -0.00000000000E+00 -0.34579208867E+02  0.34579208867E+02  0.00000000000E+00 0.  1.
         23    2    1    2    0    0  0.98100221245E+02  0.24738439271E+02  0.24628830348E+03  0.28333297084E+03  0.96871049078E+02 0.  0.
          5    1    1    2  502    0 -0.10994359736E+03  0.18349137544E+02  0.22683917473E+03  0.25278008039E+03  0.41800000000E+01 0.  1.
         -5    1    1    2    0  502  0.11843376111E+02 -0.43087576814E+02  0.16006989589E+03  0.16624274061E+03  0.41800000000E+01 0.  1.
        -11    1    3    3    0    0  0.71246641222E+01 -0.32036558951E+02  0.56084408135E+02  0.64981249481E+02  0.00000000000E+00 0. -1.
         11    1    3    3    0    0  0.90975557123E+02  0.56774998222E+02  0.19020389534E+03  0.21835172136E+03  0.00000000000E+00 0.  1.
</event>
<event>
 7    1  0.5831876E-006  0.1511365E+03  0.7561462E-02  0.1199083E+00
          1   -1    0    0  501    0  0.00000000000E+00  0.00000000000E+00  0.50232516443E+03  0.50232516443E+03  0.00000000000E+00 0. -1.
         -1   -1    0    0    0  501 -0.00000000000E+00 -0.00000000000E+00 -0.51678895501E+02  0.51678895501E+02  0.00000000000E+00 0.  1.
         23    2    1    2    0    0  0.11584650350E+03  0.23960851205E+02  0.18671409762E+03  0.23888177345E+03  0.90596979380E+02 0.  0.
          5    1    1    2  502    0  0.90492438394E+01  0.18789918535E+02  0.14931739479E+01  0.21322566005E+02  0.41800000000E+01 0.  1.
         -5    1    1    2    0  502 -0.12489574734E+03 -0.42750769740E+02  0.26243899736E+03  0.29379972048E+03  0.41800000000E+01 0.  1.
        -11    1    3    3    0    0  0.15433164293E+02 -0.30874081046E+02  0.46582565500E+02  0.57976951015E+02  0.00000000000E+00 0. -1.
         11    1    3    3    0    0  0.10041333920E+03  0.54834932251E+02  0.14013153212E+03  0.18090482243E+03  0.00000000000E+00 0.  1.
</event>
<event>
 7    1  0.5831876E-006  0.1092739E+03  0.7561462E-02  0.1261920E+00
         -1   -1    0    0    0  501 -0.00000000000E+00  0.00000000000E+00  0.36579202084E+03  0.36579202084E+03  0.00000000000E+00 0.  1.
          1   -1    0    0  501    0  0.00000000000E+00 -0.00000000000E+00 -0.44318227537E+02  0.44318227537E+02  0.00000000000E+00 0. -1.
         23    2    1    2    0    0  0.66336110365E+01 -0.38282513865E+02  0.22856598036E+03  0.24952342670E+03  0.92249538910E+02 0.  0.
          5    1    1    2  502    0  0.18112387262E+02 -0.38530934442E+02  0.59174918497E+02  0.73019414271E+02  0.41800000000E+01 0.  1.
         -5    1    1    2    0  502 -0.24745998298E+02  0.76813448307E+02  0.33732894445E+02  0.87567407409E+02  0.41800000000E+01 0.  1.
        -11    1    3    3    0    0  0.20615117217E+02  0.23703953934E+02  0.42108177128E+02  0.52535312609E+02  0.00000000000E+00 0. -1.
         11    1    3    3    0    0 -0.13981506180E+02 -0.61986467799E+02  0.18645780323E+03  0.19698811409E+03  0.00000000000E+00 0.  1.
</event>
<event>
 7    1  0.5831876E-006  0.1545955E+03  0.7561462E-02  0.1194937E+00
         -2   -1    0    0    0  501 -0.00000000000E+00  0.00000000000E+00  0.17135337441E+03  0.17135337441E+03  0.00000000000E+00 0.  1.
          2   -1    0    0  501    0  0.00000000000E+00 -0.00000000000E+00 -0.18820711572E+03  0.18820711572E+03  0.00000000000E+00 0. -1.
         23    2    1    2    0    0  0.11697791144E+03  0.78988802932E+02  0.10814711623E+02  0.16894048862E+03  0.92200151587E+02 0.  0.
          5    1    1    2  502    0 -0.85271560297E+00 -0.47224433179E+02  0.30977915108E+02  0.56639013387E+02  0.41800000000E+01 0.  1.
         -5    1    1    2    0  502 -0.11612519584E+03 -0.31764369753E+02 -0.58646368040E+02  0.13398098812E+03  0.41800000000E+01 0.  1.
        -11    1    3    3    0    0  0.45660115311E+02  0.34835034147E+02  0.50196577981E+02  0.76275960664E+02  0.00000000000E+00 0.  1.
         11    1    3    3    0    0  0.71317796128E+02  0.44153768785E+02 -0.39381866358E+02  0.92664527951E+02  0.00000000000E+00 0. -1.
</event>
<event>
 7    1  0.5831876E-006  0.1326935E+03  0.7561462E-02  0.1223513E+00
          2   -1    0    0  501    0  0.00000000000E+00  0.00000000000E+00  0.44406909487E+03  0.44406909487E+03  0.00000000000E+00 0. -1.
         -2   -1    0    0    0  501 -0.00000000000E+00 -0.00000000000E+00 -0.60479756431E+02  0.60479756431E+02  0.00000000000E+00 0.  1.
         23    2    1    2    0    0  0.22314736242E+02 -0.11873733440E+03  0.19317851597E+03  0.24667320734E+03  0.94515766686E+02 0.  0.
          5    1    1    2  502    0  0.22160230371E+01  0.80724515068E+02  0.22511932102E+02  0.83938177119E+02  0.41800000000E+01 0.  1.
         -5    1    1    2    0  502 -0.24530759279E+02  0.38012819336E+02  0.16789889037E+03  0.17393746684E+03  0.41800000000E+01 0.  1.
        -11    1    3    3    0    0 -0.24772175682E+02 -0.49591952101E+02  0.29357443290E+02  0.62728636823E+02  0.00000000000E+00 0.  1.
         11    1    3    3    0    0  0.47086911925E+02 -0.69145382303E+02  0.16382107268E+03  0.18394457052E+03  0.00000000000E+00 0. -1.
</event>
<event>
 7    1  0.5831876E-006  0.1029131E+03  0.7561462E-02  0.1274287E+00
          2   -1    0    0  501    0  0.00000000000E+00  0.00000000000E+00  0.65865949206E+02  0.65865949206E+02  0.00000000000E+00 0. -1.
         -2   -1    0    0    0  501 -0.00000000000E+00 -0.00000000000E+00 -0.27282172565E+03  0.27282172565E+03  0.00000000000E+00 0.  1.
         23    2    1    2    0    0 -0.20898901203E+02 -0.75025911090E+02 -0.10461494418E+03  0.15929562014E+03  0.91461230270E+02 0.  0.
          5    1    1    2  502    0  0.41752656461E+02  0.87374964992E+02 -0.11607485136E+03  0.15122338558E+03  0.41800000000E+01 0.  1.
         -5    1    1    2    0  502 -0.20853755258E+02 -0.12349053902E+02  0.13734019093E+02  0.28168669139E+02  0.41800000000E+01 0.  1.
        -11    1    3    3    0    0 -0.27875160389E+02 -0.41053801820E+02 -0.11317314167E+03  0.12357426595E+03  0.00000000000E+00 0.  1.
         11    1    3    3    0    0  0.69762591867E+01 -0.33972109270E+02  0.85581974885E+01  0.35721354184E+02  0.00000000000E+00 0. -1.
</event>
<event>
 7    1  0.5831876E-006  0.1168385E+03  0.7561462E-02  0.1248406E+00
         -2   -1    0    0    0  501 -0.00000000000E+00  0.00000000000E+00  0.11047089328E+03  0.11047089328E+03  0.00000000000E+00 0.  1.
          2   -1    0    0  501    0  0.00000000000E+00 -0.00000000000E+00 -0.16004556952E+03  0.16004556952E+03  0.00000000000E+00 0. -1.
         23    2    1    2    0    0  0.52987191413E+02  0.46358185516E+02 -0.50134515425E+02  0.12697400947E+03  0.93017232950E+02 0.  0.
          5    1    1    2  502    0 -0.49683518617E+01 -0.82686301890E+02  0.44475876224E+01  0.83059993235E+02  0.41800000000E+01 0. -1.
         -5    1    1    2    0  502 -0.48018839551E+02  0.36328116374E+02 -0.38877484389E+01  0.60482460094E+02  0.41800000000E+01 0. -1.
        -11    1    3    3    0    0  0.94817390645E+01  0.45901895353E+02 -0.65752195138E+02  0.80747994019E+02  0.00000000000E+00 0. -1.
         11    1    3    3    0    0  0.43505452348E+02  0.45629016349E+00  0.15617679713E+02  0.46226015450E+02  0.00000000000E+00 0.  1.
</event>
<event>
 7    1  0.5831876E-006  0.1124796E+03  0.7561462E-02  0.1256046E+00
          1   -1    0    0  501    0  0.00000000000E+00  0.00000000000E+00  0.45019519104E+03  0.45019519104E+03  0.00000000000E+00 0. -1.
         -1   -1    0    0    0  501 -0.00000000000E+00 -0.00000000000E+00 -0.38662185038E+02  0.38662185038E+02  0.00000000000E+00 0.  1.
         23    2    1    2    0    0  0.22193385168E+02  0.46201694323E+02  0.84664448900E+02  0.13513768037E+03  0.92016198818E+02 0.  0.
          5    1    1    2  502    0  0.47761157665E+02 -0.43834467450E+02  0.15033366539E+03  0.16376895941E+03  0.41800000000E+01 0.  1.
         -5    1    1    2    0  502 -0.69954542833E+02 -0.23672268728E+01  0.17653489171E+03  0.18995073629E+03  0.41800000000E+01 0.  1.
        -11    1    3    3    0    0 -0.23615491231E+02  0.35825143607E+02  0.57348818209E+01  0.43289966621E+02  0.00000000000E+00 0.  1.
         11    1    3    3    0    0  0.45808876399E+02  0.10376550715E+02  0.78929567080E+02  0.91847713750E+02  0.00000000000E+00 0. -1.
</event>
<event>
 7    1  0.5831876E-006  0.1317522E+03  0.7561462E-02  0.1224879E+00
         -2   -1    0    0    0  501 -0.00000000000E+00  0.00000000000E+00  0.17409861727E+03  0.17409861727E+03  0.00000000000E+00 0. -1.
          2   -1    0    0  501    0  0.00000000000E+00 -0.00000000000E+00 -0.14520809828E+03  0.14520809828E+03  0.00000000000E+00 0.  1.
         23    2    1    2    0    0 -0.85802172376E+02  0.74911650271E+02  0.36934088991E+02  0.14993692845E+03  0.90239611331E+02 0.  0.
          5    1    1    2  502    0  0.27647339533E+01 -0.14718060032E+02  0.49369126206E+02  0.51759521513E+02  0.41800000000E+01 0.  1.
         -5    1    1    2    0  502  0.83037438423E+02 -0.60193590238E+02 -0.57412696200E+02  0.11761026558E+03  0.41800000000E+01 0.  1.
        -11    1    3    3    0    0 -0.10236538861E+03  0.46516048873E+02  0.29098307520E+02  0.11614270140E+03  0.00000000000E+00 0.  1.
         11    1    3    3    0    0  0.16563216234E+02  0.28395601398E+02  0.78357814706E+01  0.33794227051E+02  0.00000000000E+00 0. -1.
</event>
<event>
 7    1  0.5831876E-006  0.1106691E+03  0.7561462E-02  0.1259336E+00
         -3   -1    0    0    0  501 -0.00000000000E+00  0.00000000000E+00  0.53970069075E+03  0.53970069075E+03  0.00000000000E+00 0.  1.
          3   -1    0    0  501    0  0.00000000000E+00 -0.00000000000E+00 -0.30867076203E+02  0.30867076203E+02  0.00000000000E+00 0. -1.
         23    2    1    2    0    0 -0.31166533284E+02  0.12422707590E+01  0.36538421243E+03  0.37769904059E+03  0.90432552432E+02 0.  0.
          5    1    1    2  502    0 -0.48648889406E+02 -0.94675536664E+00  0.49813795550E+02  0.69760285359E+02  0.41800000000E+01 0.  1.
         -5    1    1    2    0  502  0.79815422690E+02 -0.29551539240E+00  0.93635606569E+02  0.12310844100E+03  0.41800000000E+01 0.  1.
        -11    1    3    3    0    0  0.29527943606E+02  0.10165064691E+02  0.17218176050E+03  0.17499081874E+03  0.00000000000E+00 0.  1.
         11    1    3    3    0    0 -0.60694476889E+02 -0.89227939316E+01  0.19320245193E+03  0.20270822185E+03  0.00000000000E+00 0. -1.
</event>
<event>
 7    1  0.5831876E-006  0.2042893E+03  0.7561462E-02  0.1146170E+00
         -2   -1    0    0    0  501 -0.00000000000E+00  0.00000000000E+00  0.97736109543E+02  0.97736109543E+02  0.00000000000E+00 0.  1.
          2   -1    0    0  501    0  0.00000000000E+00 -0.00000000000E+00 -0.65455767760E+03  0.65455767760E+03  0.00000000000E+00 0. -1.
         23    2    1    2    0    0 -0.16609902088E+03  0.84031320133E+02 -0.74730171886E+02  0.22058958698E+03  0.91787906577E+02 0.  0.
          5    1    1    2  502    0  0.84113029025E+01  0.16167499411E+02 -0.50538332973E+01  0.19368832818E+02  0.41800000000E+01 0. -1.
         -5    1    1    2    0  502  0.15768771798E+03 -0.10019881954E+03 -0.47703756288E+03  0.51233536735E+03  0.41800000000E+01 0. -1.
        -11    1    3    3    0    0 -0.59593792061E+02 -0.10603288104E+02 -0.18535733034E+01  0.60558116755E+02  0.00000000000E+00 0. -1.
         11    1    3    3    0    0 -0.10650522882E+03  0.94634608237E+02 -0.72876598582E+02  0.16003147023E+03  0.00000000000E+00 0.  1.
</event>
<event>
 7    1  0.5831876E-006  0.7966668E+02  0.7561462E-02  0.1330000E+00
          1   -1    0    0  501    0  0.00000000000E+00  0.00000000000E+00  0.85830123801E+02  0.85830123801E+02  0.00000000000E+00 0. -1.
         -1   -1    0    0    0  501 -0.00000000000E+00 -0.00000000000E+00 -0.19201399273E+03  0.19201399273E+03  0.00000000000E+00 0.  1.
         23    2    1    2    0    0 -0.33536696013E+02 -0.72135994003E+01 -0.10979579381E+03  0.14808277397E+03  0.93255807403E+02 0.  0.
          5    1    1    2  502    0 -0.23232683781E+02  0.17730471156E+02  0.48316417999E+02  0.56622220473E+02  0.41800000000E+01 0.  1.
         -5    1    1    2    0  502  0.56769379794E+02 -0.10516871755E+02 -0.44704493119E+02  0.73139122081E+02  0.41800000000E+01 0.  1.
        -11    1    3    3    0    0 -0.16520367023E+02  0.28172581328E+02 -0.10322949914E+03  0.10827255588E+03  0.00000000000E+00 0.  1.
         11    1    3    3    0    0 -0.17016328990E+02 -0.35386180728E+02 -0.65662946695E+01  0.39810218091E+02  0.00000000000E+00 0. -1.
</event>
<event>
 7    1  0.5831876E-006  0.1256884E+03  0.7561462E-02  0.1233997E+00
         -2   -1    0    0    0  501 -0.00000000000E+00  0.00000000000E+00  0.23213036491E+02  0.23213036491E+02  0.00000000000E+00 0.  1.
          2   -1    0    0  501    0  0.00000000000E+00 -0.00000000000E+00 -0.84386792991E+03  0.84386792991E+03  0.00000000000E+00 0. -1.
         23    2    1    2    0    0  0.40266191711E+01  0.86568879677E+02 -0.30743633185E+03  0.33177901797E+03  0.89720867309E+02 0.  0.
          5    1    1    2  502    0  0.27745072022E+02 -0.99114636089E+02 -0.25848543638E+03  0.27825472741E+03  0.41800000000E+01 0. -1.
         -5    1    1    2    0  502 -0.31771691193E+02  0.12545756412E+02 -0.25473312519E+03  0.25704722102E+03  0.41800000000E+01 0. -1.
        -11    1    3    3    0    0 -0.34991857569E+02  0.43774974733E+02 -0.21908727858E+03  0.22614135877E+03  0.00000000000E+00 0. -1.
         11    1    3    3    0    0  0.39018476740E+02  0.42793904944E+02 -0.88349053269E+02  0.10563765920E+03  0.00000000000E+00 0.  1.
</event>
<event>
 7    1  0.5831876E-006  0.9918272E+02  0.7561462E-02  0.1282024E+00
         -1   -1    0    0    0  501 -0.00000000000E+00  0.00000000000E+00  0.33015801088E+02  0.33015801088E+02  0.00000000000E+00 0.  1.
          1   -1    0    0  501    0  0.00000000000E+00 -0.00000000000E+00 -0.40341095709E+03  0.40341095709E+03  0.00000000000E+00 0. -1.
         23    2    1    2    0    0 -0.75071778060E+01 -0.51540135267E+02 -0.14417599574E+03  0.17273089695E+03  0.79602146648E+02 0.  0.
          5    1    1    2  502    0 -0.50088051121E+02 -0.11752245936E+01 -0.49985962335E+02  0.70896141281E+02  0.41800000000E+01 0. -1.
         -5    1    1    2    0  502  0.57595228927E+02  0.52715359860E+02 -0.17623319792E+03  0.19279971994E+03  0.41800000000E+01 0. -1.
        -11    1    3    3    0    0  0.12311298393E+02 -0.48267953780E+02 -0.14428709530E+03  0.15264379876E+03  0.00000000000E+00 0. -1.
         11    1    3    3    0    0 -0.19818476199E+02 -0.32721814871E+01  0.11109955782E+00  0.20087098189E+02  0.00000000000E+00 0.  1.
</event>
<event>
 7    1  0.6852393E-006  0.1295236E+03  0.7561462E-02  0.1228164E+00
          2   -1    0    0  501    0  0.00000000000E+00  0.00000000000E+00  0.44521772953E+03  0.44521772953E+03  0.00000000000E+00 0. -1.
         -2   -1    0    0    0  501 -0.00000000000E+00 -0.00000000000E+00 -0.49310421965E+02  0.49310421965E+02  0.00000000000E+00 0.  1.
         23    2    1    2    0    0 -0.45441734141E+02 -0.10202376378E+03  0.14098328903E+03  0.18939314740E+03  0.59326865053E+02 0.  0.
          5    1    1    2  502    0  0.64659826485E+02  0.73853266915E+02  0.79516328420E+02  0.12639429212E+03  0.41800000000E+01 0. -1.
         -5    1    1    2    0  502 -0.19218092345E+02  0.28170496869E+02  0.17540769012E+03  0.17874071198E+03  0.41800000000E+01 0. -1.
        -11    1    3    3    0    0 -0.59872380121E+02 -0.86997064663E+02  0.11639948386E+03  0.15716879781E+03  0.00000000000E+00 0.  1.
         11    1    3    3    0    0  0.14430645980E+02 -0.15026699120E+02  0.24583805169E+02  0.32224349589E+02  0.00000000000E+00 0. -1.
</event>
<event>
 7    1  0.5831876E-006  0.1231067E+03  0.7561462E-02  0.1238058E+00
         -1   -1    0    0    0  501 -0.00000000000E+00  0.00000000000E+00  0.41349948000E+02  0.41349948000E+02  0.00000000000E+00 0.  1.
          1   -1    0    0  501    0  0.00000000000E+00 -0.00000000000E+00 -0.45681836784E+03  0.45681836784E+03  0.00000000000E+00 0. -1.
         23    2    1    2    0    0 -0.29365896649E+02 -0.79546784079E+02 -0.17242708161E+03  0.21197498436E+03  0.89511165672E+02 0.  0.
          5    1    1    2  502    0 -0.21086774368E+02 -0.12497365483E+02 -0.41288504114E+01  0.25206269121E+02  0.41800000000E+01 0. -1.
         -5    1    1    2    0  502  0.50452671017E+02  0.92044149562E+02 -0.23891248782E+03  0.26098706236E+03  0.41800000000E+01 0. -1.
        -11    1    3    3    0    0  0.27499527259E+02 -0.31852935029E+02 -0.31035805175E+02  0.52288188649E+02  0.00000000000E+00 0.  1.
         11    1    3    3    0    0 -0.56865423908E+02 -0.47693849050E+02 -0.14139127643E+03  0.15968679571E+03  0.00000000000E+00 0. -1.
</event>
<event>
 7    1  0.5831876E-006  0.1527419E+03  0.7561462E-02  0.1197144E+00
          2   -1    0    0  501    0  0.00000000000E+00  0.00000000000E+00  0.63054919876E+02  0.63054919876E+02  0.00000000000E+00 0. -1.
         -2   -1    0    0    0  501 -0.00000000000E+00 -0.00000000000E+00 -0.50099716810E+03  0.50099716810E+03  0.00000000000E+00 0.  1.
         23    2    1    2    0    0  0.28034539221E+00 -0.13665308561E+03 -0.24303129359E+03  0.29514560089E+03  0.96812042937E+02 0.  0.
          5    1    1    2  502    0  0.27715564844E+02  0.51110140870E+02 -0.47575257196E+01  0.58485087718E+02  0.41800000000E+01 0.  1.
         -5    1    1    2    0  502 -0.27995910236E+02  0.85542944744E+02 -0.19015342891E+03  0.21042139937E+03  0.41800000000E+01 0.  1.
        -11    1    3    3    0    0 -0.29746388222E+02 -0.18164505126E+02 -0.18404863502E+02  0.39414919247E+02  0.00000000000E+00 0. -1.
         11    1    3    3    0    0  0.30026733615E+02 -0.11848858049E+03 -0.22462643009E+03  0.25573068164E+03  0.00000000000E+00 0.  1.
</event>
<event>
 7    1  0.5831876E-006  0.8584974E+02  0.7561462E-02  0.1313225E+00
         -3   -1    0    0    0  501 -0.00000000000E+00  0.00000000000E+00  0.37002157449E+02  0.37002157449E+02  0.00000000000E+00 0.  1.
          3   -1    0    0  501    0  0.00000000000E+00 -0.00000000000E+00 -0.50409994820E+03  0.50409994820E+03  0.00000000000E+00 0. -1.
         23    2    1    2    0    0  0.60909116720E+01 -0.77936014359E+01 -0.55422037334E+02  0.11072672961E+03  0.95346562600E+02 0.  0.
          5    1    1    2  502    0 -0.40304926981E+02 -0.44317415430E+02 -0.15553703333E+03  0.16672660732E+03  0.41800000000E+01 0.  1.
         -5    1    1    2    0  502  0.34214015309E+02  0.52111016865E+02 -0.25613872008E+03  0.26364876872E+03  0.41800000000E+01 0.  1.
        -11    1    3    3    0    0  0.26784454308E+02 -0.94697706531E+01  0.18528334026E+02  0.33917292206E+02  0.00000000000E+00 0.  1.
         11    1    3    3    0    0 -0.20693542636E+02  0.16761692173E+01 -0.73950371361E+02  0.76809437405E+02  0.00000000000E+00 0. -1.
</event>
<event>
 7    1  0.5831876E-006  0.1591979E+03  0.7561462E-02  0.1189605E+00
          1   -1    0    0  501    0  0.00000000000E+00  0.00000000000E+00  0.63821442038E+03  0.63821442038E+03  0.00000000000E+00 0. -1.
         -1   -1    0    0    0  501 -0.00000000000E+00 -0.00000000000E+00 -0.64211329852E+02  0.64211329852E+02  0.00000000000E+00 0.  1.
         23    2    1    2    0    0  0.51874027608E+02  0.11449584160E+03  0.74362968561E+02  0.17224815983E+03  0.91320123664E+02 0.  0.
          5    1    1    2  502    0 -0.60301178030E+02 -0.19918482518E+01  0.12440312241E+03  0.13832501146E+03  0.41800000000E+01 0. -1.
         -5    1    1    2    0  502  0.84271504215E+01 -0.11250399335E+03  0.37523699956E+03  0.39185257894E+03  0.41800000000E+01 0. -1.
        -11    1    3    3    0    0  0.48247574893E+02  0.22993856717E+02 -0.12961193328E+01  0.53462377941E+02  0.00000000000E+00 0.  1.
         11    1    3    3    0    0  0.36264527152E+01  0.91501984888E+02  0.75659087893E+02  0.11878578189E+03  0.00000000000E+00 0. -1.
</event>
<event>
 7    1  0.5831876E-006  0.1869057E+03  0.7561462E-02  0.1161282E+00
          2   -1    0    0  501    0  0.00000000000E+00  0.00000000000E+00  0.35444994295E+03  0.35444994295E+03  0.00000000000E+00 0. -1.
         -2   -1    0    0    0  501 -0.00000000000E+00 -0.00000000000E+00 -0.20582398327E+03  0.20582398327E+03  0.00000000000E+00 0.  1.
         23    2    1    2    0    0 -0.49833027230E+02  0.17523140691E+03 -0.99895903642E+02  0.22769429861E+03  0.93145721770E+02 0.  0.
          5    1    1    2  502    0  0.17114479884E+02 -0.57411027138E+02  0.52614580148E+01  0.60283387423E+02  0.41800000000E+01 0.  1.
         -5    1    1    2    0  502  0.32718547345E+02 -0.11782037977E+03  0.24326040530E+03  0.27229624019E+03  0.41800000000E+01 0.  1.
        -11    1    3    3    0    0 -0.17511081790E+02  0.51078703727E+01 -0.40850080008E+02  0.44737650384E+02  0.00000000000E+00 0. -1.
         11    1    3    3    0    0 -0.32321945440E+02  0.17012353654E+03 -0.59045823634E+02  0.18295664823E+03  0.00000000000E+00 0.  1.
</event>
<event>
 7    1  0.5831876E-006  0.1399150E+03  0.7561462E-02  0.1213443E+00
          3   -1    0    0  501    0  0.00000000000E+00  0.00000000000E+00  0.79194416759E+02  0.79194416759E+02  0.00000000000E+00 0. -1.
         -3   -1    0    0    0  501 -0.00000000000E+00 -0.00000000000E+00 -0.46205815998E+03  0.46205815998E+03  0.00000000000E+00 0.  1.
         23    2    1    2    0    0  0.47549082867E+02  0.79441118575E+02 -0.31631327663E+03  0.34267506540E+03  0.93809940178E+02 0.  0.
          5    1    1    2  502    0  0.46942942044E+02 -0.33467461338E+02  0.21243186312E+02  0.61582920853E+02  0.41800000000E+01 0. -1.
         -5    1    1    2    0  502 -0.94492024911E+02 -0.45973657237E+02 -0.87793652911E+02  0.13699459049E+03  0.41800000000E+01 0.  1.
        -11    1    3    3    0    0  0.30393800146E+02  0.91154921130E+02 -0.30331312812E+03  0.31816954038E+03  0.00000000000E+00 0. -1.
         11    1    3    3    0    0  0.17155282721E+02 -0.11713802556E+02 -0.13000148505E+02  0.24505525024E+02  0.00000000000E+00 0.  1.
</event>
<event>
 7    1  0.5831876E-006  0.1654709E+03  0.7561462E-02  0.1182655E+00
          2   -1    0    0  501    0  0.00000000000E+00  0.00000000000E+00  0.20496919417E+03  0.20496919417E+03  0.00000000000E+00 0. -1.
         -2   -1    0    0    0  501 -0.00000000000E+00 -0.00000000000E+00 -0.14298155445E+03  0.14298155445E+03  0.00000000000E+00 0.  1.
         23    2    1    2    0    0  0.12960375458E+03  0.16890476392E+02  0.52596948039E+01  0.15835026137E+03  0.89245277147E+02 0.  0.
          5    1    1    2  502    0 -0.12191922634E+02  0.45876015359E+02  0.17133952531E+02  0.50638883203E+02  0.41800000000E+01 0. -1.
         -5    1    1    2    0  502 -0.11741183194E+03 -0.62766491751E+02  0.39593992380E+02  0.13896160405E+03  0.41800000000E+01 0. -1.
        -11    1    3    3    0    0  0.66563399806E+02  0.45735875032E+02 -0.22241485095E+02  0.83768371824E+02  0.00000000000E+00 0. -1.
         11    1    3    3    0    0  0.63040354770E+02 -0.28845398641E+02  0.27501179899E+02  0.74581889545E+02  0.00000000000E+00 0.  1.
</event>
<event>
 7    1  0.5831876E-006  0.3712507E+03  0.7561462E-02  0.1054216E+00
         -2   -1    0    0    0  501 -0.00000000000E+00  0.00000000000E+00  0.51785659147E+02  0.51785659147E+02  0.00000000000E+00 0. -1.
          2   -1    0    0  501    0  0.00000000000E+00 -0.00000000000E+00 -0.29529572610E+04  0.29529572610E+04  0.00000000000E+00 0.  1.
         23    2    1    2    0    0 -0.17434223534E+03  0.31533449394E+03 -0.10330452041E+04  0.10980761668E+04  0.93583205685E+02 0.  0.
          5    1    1    2  502    0  0.13850632290E+02 -0.12062186459E+03 -0.44240388123E+03  0.45878114690E+03  0.41800000000E+01 0.  1.
         -5    1    1    2    0  502  0.16049160305E+03 -0.19471262935E+03 -0.14257225165E+04  0.14478856064E+04  0.41800000000E+01 0.  1.
        -11    1    3    3    0    0 -0.11391174887E+03  0.27018344048E+03 -0.75375250067E+03  0.80877550056E+03  0.00000000000E+00 0. -1.
         11    1    3    3    0    0 -0.60430486472E+02  0.45151053460E+02 -0.27929270341E+03  0.28930066627E+03  0.00000000000E+00 0.  1.
</event>
<event>
 7    1  0.5831876E-006  0.6348079E+02  0.7561462E-02  0.1383779E+00
          2   -1    0    0  501    0  0.00000000000E+00  0.00000000000E+00  0.13065655216E+03  0.13065655216E+03  0.00000000000E+00 0. -1.
         -2   -1    0    0    0  501 -0.00000000000E+00 -0.00000000000E+00 -0.14642174076E+03  0.14642174076E+03  0.00000000000E+00 0.  1.
         23    2    1    2    0    0  0.43415259118E+02  0.61094127778E+01 -0.80215244329E+02  0.12968855538E+03  0.91991447016E+02 0.  0.
          5    1    1    2  502    0 -0.18335902262E+01 -0.19200943760E+02  0.93026631176E+02  0.95097133513E+02  0.41800000000E+01 0. -1.
         -5    1    1    2    0  502 -0.41581668892E+02  0.13091530982E+02 -0.28576575453E+02  0.52292604027E+02  0.41800000000E+01 0. -1.
        -11    1    3    3    0    0  0.33481348122E+02  0.25204104300E+02 -0.94826172715E+02  0.10367376996E+03  0.00000000000E+00 0. -1.
         11    1    3    3    0    0  0.99339109959E+01 -0.19094691522E+02  0.14610928387E+02  0.26014785418E+02  0.00000000000E+00 0.  1.
</event>
<event>
 7    1  0.5831876E-006  0.1028115E+03  0.7561462E-02  0.1274492E+00
         -1   -1    0    0    0  501 -0.00000000000E+00  0.00000000000E+00  0.17230428914E+03  0.17230428914E+03  0.00000000000E+00 0.  1.
          1   -1    0    0  501    0  0.00000000000E+00 -0.00000000000E+00 -0.80999849005E+02  0.80999849005E+02  0.00000000000E+00 0. -1.
         23    2    1    2    0    0  0.22448574168E+02  0.32053683256E+02  0.68744698777E+02  0.12030754134E+03  0.90645980617E+02 0.  0.
          5    1    1    2  502    0  0.40253365870E+02  0.72971396463E+00 -0.25060746600E+02  0.47606505506E+02  0.41800000000E+01 0.  1.
         -5    1    1    2    0  502 -0.62701940038E+02 -0.32783397220E+02  0.47620487955E+02  0.85390091293E+02  0.41800000000E+01 0.  1.
        -11    1    3    3    0    0  0.26532646265E+02 -0.25363814259E+02  0.99597666728E+01  0.38032898178E+02  0.00000000000E+00 0.  1.
         11    1    3    3    0    0 -0.40840720972E+01  0.57417497515E+02  0.58784932104E+02  0.82274643167E+02  0.00000000000E+00 0. -1.
</event>
<event>
 7    1  0.5831876E-006  0.1789659E+03  0.7561462E-02  0.1168808E+00
         -1   -1    0    0    0  501 -0.00000000000E+00  0.00000000000E+00  0.19516456521E+02  0.19516456521E+02  0.00000000000E+00 0.  1.
          1   -1    0    0  501    0  0.00000000000E+00 -0.00000000000E+00 -0.17662221656E+04  0.17662221656E+04  0.00000000000E+00 0. -1.
         23    2    1    2    0    0  0.29502159657E+02 -0.71187566132E+02 -0.38672213262E+03  0.40483100804E+03  0.91630181789E+02 0.  0.
          5    1    1    2  502    0  0.64734492290E+02 -0.52061156390E+02 -0.53942066129E+03  0.54579578665E+03  0.41800000000E+01 0. -1.
         -5    1    1    2    0  502 -0.94236651947E+02  0.12324872252E+03 -0.82056291522E+03  0.83511182748E+03  0.41800000000E+01 0.  1.
        -11    1    3    3    0    0 -0.33248784698E+02 -0.26426096507E+02 -0.12709899347E+03  0.13400736697E+03  0.00000000000E+00 0.  1.
         11    1    3    3    0    0  0.62750944355E+02 -0.44761469624E+02 -0.25962313915E+03  0.27082364107E+03  0.00000000000E+00 0. -1.
</event>
<event>
 7    1  0.5831876E-006  0.1673321E+03  0.7561462E-02  0.1180659E+00
          2   -1    0    0  501    0  0.00000000000E+00  0.00000000000E+00  0.12388830301E+04  0.12388830301E+04  0.00000000000E+00 0. -1.
         -2   -1    0    0    0  501 -0.00000000000E+00 -0.00000000000E+00 -0.48092967855E+02  0.48092967855E+02  0.00000000000E+00 0.  1.
         23    2    1    2    0    0 -0.87199299753E+02  0.12694511826E+03  0.16866097784E+03  0.24576683788E+03  0.90752587998E+02 0.  0.
          5    1    1    2  502    0 -0.44673732116E+00 -0.81734455420E+02  0.68664203079E+03  0.69150232944E+03  0.41800000000E+01 0.  1.
         -5    1    1    2    0  502  0.87646037074E+02 -0.45210662838E+02  0.33548705362E+03  0.34970683064E+03  0.41800000000E+01 0.  1.
        -11    1    3    3    0    0 -0.65082517613E+02  0.98971880235E+02  0.62820727746E+02  0.13408061385E+03  0.00000000000E+00 0.  1.
         11    1    3    3    0    0 -0.22116782140E+02  0.27973238023E+02  0.10584025010E+03  0.11168622403E+03  0.00000000000E+00 0. -1.
</event>
<event>
 7    1  0.5831876E-006  0.1196909E+03  0.7561462E-02  0.1243608E+00
          1   -1    0    0  501    0  0.00000000000E+00  0.00000000000E+00  0.17898616439E+04  0.17898616439E+04  0.00000000000E+00 0. -1.
         -1   -1    0    0    0  501 -0.00000000000E+00 -0.00000000000E+00 -0.17909385590E+02  0.17909385590E+02  0.00000000000E+00 0.  1.
         23    2    1    2    0    0  0.27254057326E+02 -0.66881975135E+02  0.20852754469E+03  0.23811568555E+03  0.89439144534E+02 0.  0.
          5    1    1    2  502    0 -0.45121374035E+02  0.93548358253E+02  0.13202602268E+04  0.13243457904E+04  0.41800000000E+01 0. -1.
         -5    1    1    2    0  502  0.17867316709E+02 -0.26666383118E+02  0.24316448681E+03  0.24530955351E+03  0.41800000000E+01 0.  1.
        -11    1    3    3    0    0 -0.80128065133E+01 -0.67321428014E+02  0.18129268803E+03  0.19355469117E+03  0.00000000000E+00 0. -1.
         11    1    3    3    0    0  0.35266863839E+02  0.43945287903E+00  0.27234856653E+02  0.44560994387E+02  0.00000000000E+00 0.  1.
</event>
<event>
 7    1  0.5831876E-006  0.1049319E+03  0.7561462E-02  0.1270254E+00
         -2   -1    0    0    0  501 -0.00000000000E+00  0.00000000000E+00  0.35661275953E+02  0.35661275953E+02  0.00000000000E+00 0.  1.
          2   -1    0    0  501    0  0.00000000000E+00 -0.00000000000E+00 -0.40287673235E+03  0.40287673235E+03  0.00000000000E+00 0. -1.
         23    2    1    2    0    0 -0.92122041144E+01 -0.21848478155E+02 -0.69614762945E+02  0.11485667124E+03  0.88224820801E+02 0.  0.
          5    1    1    2  502    0  0.62749680395E+02 -0.11652854714E+02 -0.15363170293E+03  0.16641359307E+03  0.41800000000E+01 0. -1.
         -5    1    1    2    0  502 -0.53537476280E+02  0.33501332869E+02 -0.14396899053E+03  0.15726774400E+03  0.41800000000E+01 0. -1.
        -11    1    3    3    0    0  0.31862216418E+02 -0.26275174919E+02 -0.59321174062E+02  0.72281307018E+02  0.00000000000E+00 0. -1.
         11    1    3    3    0    0 -0.41074420532E+02  0.44266967637E+01 -0.10293588882E+02  0.42575364219E+02  0.00000000000E+00 0.  1.
</event>
<event>
 7    1  0.5831876E-006  0.1009258E+03  0.7561462E-02  0.1278361E+00
          3   -1    0    0  501    0  0.00000000000E+00  0.00000000000E+00  0.39962767963E+03  0.39962767963E+03  0.00000000000E+00 0. -1.
         -3   -1    0    0    0  501 -0.00000000000E+00 -0.00000000000E+00 -0.36136003420E+02  0.36136003420E+02  0.00000000000E+00 0.  1.
         23    2    1    2    0    0 -0.22262941797E+02  0.37060696468E+01  0.70237595915E+02  0.11614681649E+03  0.89707243699E+02 0.  0.
          5    1    1    2  502    0  0.18454584398E+02  0.59333543238E+02  0.17026794251E+03  0.18129998810E+03  0.41800000000E+01 0.  1.
         -5    1    1    2    0  502  0.38083573991E+01 -0.63039612885E+02  0.12298613779E+03  0.13831687846E+03  0.41800000000E+01 0.  1.
        -11    1    3    3    0    0 -0.43675466618E+02  0.21276772810E+02  0.73658731946E+02  0.88237499043E+02  0.00000000000E+00 0. -1.
         11    1    3    3    0    0  0.21412524821E+02 -0.17570703164E+02 -0.34211360308E+01  0.27909317451E+02  0.00000000000E+00 0.  1.
</event>
<event>
 7    1  0.5831876E-006  0.9703679E+02  0.7561462E-02  0.1286654E+00
         -2   -1    0    0    0  501 -0.00000000000E+00  0.00000000000E+00  0.42525072792E+02  0.42525072792E+02  0.00000000000E+00 0.  1.
          2   -1    0    0  501    0  0.00000000000E+00 -0.00000000000E+00 -0.34746353148E+03  0.34746353148E+03  0.00000000000E+00 0. -1.
         23    2    1    2    0    0  0.68672226956E+01  0.43373970067E+02 -0.67737352697E+02  0.11825681606E+03  0.86416812985E+02 0.  0.
          5    1    1    2  502    0 -0.47283833080E+02 -0.14520478510E+00 -0.29881550884E+02  0.56090653753E+02  0.41800000000E+01 0.  1.
         -5    1    1    2    0  502  0.40416610385E+02 -0.43228765282E+02 -0.20731955510E+03  0.21564113446E+03  0.41800000000E+01 0.  1.
        -11    1    3    3    0    0  0.29832879781E+02 -0.81002471418E+01 -0.10374061865E+01  0.30930420808E+02  0.00000000000E+00 0.  1.
         11    1    3    3    0    0 -0.22965657085E+02  0.51474217209E+02 -0.66699946511E+02  0.87326395249E+02  0.00000000000E+00 0. -1.
</event>
<event>
 7    1  0.5831876E-006  0.1302769E+03  0.7561462E-02  0.1227045E+00
         -2   -1    0    0    0  501 -0.00000000000E+00  0.00000000000E+00  0.14803982089E+02  0.14803982089E+02  0.00000000000E+00 0.  1.
          2   -1    0    0  501    0  0.00000000000E+00 -0.00000000000E+00 -0.17768123870E+04  0.17768123870E+04  0.00000000000E+00 0. -1.
         23    2    1    2    0    0  0.96640981872E+01  0.11156804149E+03 -0.57092447393E+03  0.58875748600E+03  0.90220838558E+02 0.  0.
          5    1    1    2  502    0 -0.50481449050E+02 -0.56278831196E+02 -0.92208168360E+03  0.92518527181E+03  0.41800000000E+01 0.  1.
         -5    1    1    2    0  502  0.40817350863E+02 -0.55289210297E+02 -0.26900224739E+03  0.27767361129E+03  0.41800000000E+01 0.  1.
        -11    1    3    3    0    0  0.13873157366E+02  0.20112635637E+02 -0.24089713682E+02  0.34311760562E+02  0.00000000000E+00 0.  1.
         11    1    3    3    0    0 -0.42090591784E+01  0.91455405856E+02 -0.54683476025E+03  0.55444572544E+03  0.00000000000E+00 0. -1.
</event>
<event>
 7    1  0.5831876E-006  0.1156001E+03  0.7561462E-02  0.1250537E+00
          3   -1    0    0  501    0  0.00000000000E+00  0.00000000000E+00  0.27400963782E+02  0.27400963782E+02  0.00000000000E+00 0. -1.
         -3   -1    0    0    0  501 -0.00000000000E+00 -0.00000000000E+00 -0.62697764506E+03  0.62697764506E+03  0.00000000000E+00 0.  1.
         23    2    1    2    0    0  0.16814087817E+02 -0.37012389805E+02 -0.40399726812E+03  0.41868122713E+03  0.10211536005E+03 0.  0.
          5    1    1    2  502    0 -0.14387325765E+02  0.82763896393E+02 -0.10927148300E+03  0.13789339029E+03  0.41800000000E+01 0.  1.
         -5    1    1    2    0  502 -0.24267620518E+01 -0.45751506587E+02 -0.86307930162E+02  0.97803991421E+02  0.41800000000E+01 0.  1.
        -11    1    3    3    0    0  0.55356815997E+02 -0.18858410554E+02 -0.31016073966E+03  0.31562588797E+03  0.00000000000E+00 0.  1.
         11    1    3    3    0    0 -0.38542728180E+02 -0.18153979252E+02 -0.93836528453E+02  0.10305533916E+03  0.00000000000E+00 0. -1.
</event>
<event>
 7    1  0.5831876E-006  0.1232239E+03  0.7561462E-02  0.1237871E+00
         -1   -1    0    0    0  501 -0.00000000000E+00  0.00000000000E+00  0.22535557194E+03  0.22535557194E+03  0.00000000000E+00 0.  1.
          1   -1    0    0  501    0  0.00000000000E+00 -0.00000000000E+00 -0.96985690174E+02  0.96985690174E+02  0.00000000000E+00 0. -1.
         23    2    1    2    0    0 -0.86141847590E+02 -0.36124996690E+02  0.97425382154E+02  0.16318680658E+03  0.91721292302E+02 0.  0.
          5    1    1    2  502    0  0.10275678745E+03  0.11619280821E+02 -0.14754586239E+02  0.10454250460E+03  0.41800000000E+01 0. -1.
         -5    1    1    2    0  502 -0.16614939859E+02  0.24505715869E+02  0.45699085847E+02  0.54611950927E+02  0.41800000000E+01 0. -1.
        -11    1    3    3    0    0 -0.96542851007E+02 -0.34509408061E+02  0.49003928980E+02  0.11363452988E+03  0.00000000000E+00 0. -1.
         11    1    3    3    0    0  0.10401003417E+02 -0.16155886289E+01  0.48421453174E+02  0.49552276701E+02  0.00000000000E+00 0.  1.
</event>
<event>
 7    1  0.5831876E-006  0.1386806E+03  0.7561462E-02  0.1215115E+00
          2   -1    0    0  501    0  0.00000000000E+00  0.00000000000E+00  0.39386788690E+03  0.39386788690E+03  0.00000000000E+00 0. -1.
         -2   -1    0    0    0  501 -0.00000000000E+00 -0.00000000000E+00 -0.54712970870E+02  0.54712970870E+02  0.00000000000E+00 0.  1.
         23    2    1    2    0    0  0.77328591735E+02 -0.56958731414E+02  0.13037607889E+03  0.18693162185E+03  0.93388977486E+02 0.  0.
          5    1    1    2  502    0 -0.62352023613E+02 -0.19701009785E+02  0.15037364773E+03  0.16402929911E+03  0.41800000000E+01 0.  1.
         -5    1    1    2    0  502 -0.14976568122E+02  0.76659741200E+02  0.58405189418E+02  0.97619936819E+02  0.41800000000E+01 0.  1.
        -11    1    3    3    0    0  0.78098839019E+02 -0.14600716561E+01  0.69560180692E+02  0.10459531157E+03  0.00000000000E+00 0. -1.
         11    1    3    3    0    0 -0.77024728397E+00 -0.55498659758E+02  0.60815898196E+02  0.82336310272E+02  0.00000000000E+00 0.  1.
</event>
<event>
 7    1  0.5831876E-006  0.7003056E+02  0.7561462E-02  0.1359989E+00
          2   -1    0    0  501    0  0.00000000000E+00  0.00000000000E+00  0.61479275084E+02  0.61479275084E+02  0.00000000000E+00 0. -1.
         -2   -1    0    0    0  501 -0.00000000000E+00 -0.00000000000E+00 -0.20368047286E+03  0.20368047286E+03  0.00000000000E+00 0.  1.
         23    2    1    2    0    0 -0.23251011131E+02 -0.15269653188E+02 -0.58270788371E+02  0.11197460263E+03  0.91482539481E+02 0.  0.
          5    1    1    2  502    0  0.29327131527E+02  0.20873353432E+01 -0.11492812609E+03  0.11870292406E+03  0.41800000000E+01 0. -1.
         -5    1    1    2    0  502 -0.60761203958E+01  0.13182317844E+02  0.30997716688E+02  0.34482221255E+02  0.41800000000E+01 0. -1.
        -11    1    3    3    0    0 -0.55302094559E+02  0.76882152169E+01 -0.38892353373E+02  0.68044437442E+02  0.00000000000E+00 0.  1.
         11    1    3    3    0    0  0.32051083428E+02 -0.22957868405E+02 -0.19378434998E+02  0.43930165190E+02  0.00000000000E+00 0. -1.
</event>
<event>
 7    1  0.5831876E-006  0.9316778E+02  0.7561462E-02  0.1295357E+00
         -1   -1    0    0    0  501 -0.00000000000E+00  0.00000000000E+00  0.12620393188E+02  0.12620393188E+02  0.00000000000E+00 0. -1.
          1   -1    0    0  501    0  0.00000000000E+00 -0.00000000000E+00 -0.11846013652E+04  0.11846013652E+04  0.00000000000E+00 0.  1.
         23    2    1    2    0    0  0.19325010650E+02  0.41039171234E+02 -0.33427101120E+03  0.34900973546E+03  0.89515456227E+02 0.  0.
          5    1    1    2  502    0 -0.39396564233E+01  0.22899406594E+02 -0.31765234685E+02  0.39577850494E+02  0.41800000000E+01 0. -1.
         -5    1    1    2    0  502 -0.15385354227E+02 -0.63938577828E+02 -0.80594472612E+03  0.80863417243E+03  0.41800000000E+01 0. -1.
        -11    1    3    3    0    0  0.53426202753E+02  0.28023957947E+02 -0.16091273940E+03  0.17185054862E+03  0.00000000000E+00 0.  1.
         11    1    3    3    0    0 -0.34101192103E+02  0.13015213287E+02 -0.17335827180E+03  0.17715918684E+03  0.00000000000E+00 0. -1.
</event>
<event>
 7    1  0.5831876E-006  0.8347198E+02  0.7561462E-02  0.1319478E+00
         -1   -1    0    0    0  501 -0.00000000000E+00  0.00000000000E+00  0.52437260798E+02  0.52437260798E+02  0.00000000000E+00 0.  1.
          1   -1    0    0  501    0  0.00000000000E+00 -0.00000000000E+00 -0.39877565084E+03  0.39877565084E+03  0.00000000000E+00 0. -1.
         23    2    1    2    0    0 -0.18780886699E+01 -0.69323647645E+02 -0.58218922962E+02  0.12954954705E+03  0.92651750171E+02 0.  0.
          5    1    1    2  502    0 -0.15071505013E+02 -0.56938415195E+01  0.59487542980E+01  0.17675694394E+02  0.41800000000E+01 0. -1.
         -5    1    1    2    0  502  0.16949593683E+02  0.75017489165E+02 -0.29406822138E+03  0.30398767020E+03  0.41800000000E+01 0. -1.
        -11    1    3    3    0    0  0.95616917600E+01 -0.15195149411E+02 -0.70608392661E+02  0.72855086501E+02  0.00000000000E+00 0. -1.
         11    1    3    3    0    0 -0.11439780430E+02 -0.54128498234E+02  0.12389469698E+02  0.56694460548E+02  0.00000000000E+00 0.  1.
</event>
<event>
 7    1  0.5831876E-006  0.1126634E+03  0.7561462E-02  0.1255716E+00
          1   -1    0    0  501    0  0.00000000000E+00  0.00000000000E+00  0.44643041197E+03  0.44643041197E+03  0.00000000000E+00 0. -1.
         -1   -1    0    0    0  501 -0.00000000000E+00 -0.00000000000E+00 -0.54892042891E+02  0.54892042891E+02  0.00000000000E+00 0.  1.
         23    2    1    2    0    0 -0.56998469623E+02  0.15464956660E+02  0.25815116192E+02  0.11278490326E+03  0.92552816029E+02 0.  0.
          5    1    1    2  502    0 -0.14297249523E+02  0.28188418395E+02  0.20360630861E+03  0.20608735910E+03  0.41800000000E+01 0. -1.
         -5    1    1    2    0  502  0.71295719146E+02 -0.43653375054E+02  0.16211694428E+03  0.18245019251E+03  0.41800000000E+01 0.  1.
        -11    1    3    3    0    0 -0.17925586229E+01 -0.34940361218E+02  0.98033555721E+01  0.36333839447E+02  0.00000000000E+00 0.  1.
         11    1    3    3    0    0 -0.55205911000E+02  0.50405317878E+02  0.16011760620E+02  0.76451063811E+02  0.00000000000E+00 0. -1.
</event>
<event>
 7    1  0.5831876E-006  0.8098548E+02  0.7561462E-02  0.1326278E+00
          1   -1    0    0  501    0  0.00000000000E+00  0.00000000000E+00  0.25549648299E+02  0.25549648299E+02  0.00000000000E+00 0. -1.
         -1   -1    0    0    0  501 -0.00000000000E+00 -0.00000000000E+00 -0.55445376088E+03  0.55445376088E+03  0.00000000000E+00 0.  1.
         23    2    1    2    0    0  0.23892838791E+02  0.16974343437E+02 -0.32983670983E+03  0.34307613667E+03  0.89721704852E+02 0.  0.
          5    1    1    2  502    0 -0.24091477493E+02  0.21268331476E+02  0.17537471162E+01  0.32454417889E+02  0.41800000000E+01 0. -1.
         -5    1    1    2    0  502  0.19863870224E+00 -0.38242674912E+02 -0.20082114987E+03  0.20447285462E+03  0.41800000000E+01 0. -1.
        -11    1    3    3    0    0 -0.11204882276E+02 -0.30247602339E+02 -0.76990308591E+02  0.83474393984E+02  0.00000000000E+00 0.  1.
         11    1    3    3    0    0  0.35097721067E+02  0.47221945776E+02 -0.25284640124E+03  0.25960174269E+03  0.00000000000E+00 0. -1.
</event>
<event>
 7    1  0.5831876E-006  0.1426639E+03  0.7561462E-02  0.1209789E+00
          2   -1    0    0  501    0  0.00000000000E+00  0.00000000000E+00  0.88034079735E+03  0.88034079735E+03  0.00000000000E+00 0.  1.
         -2   -1    0    0    0  501 -0.00000000000E+00 -0.00000000000E+00 -0.51858070710E+02  0.51858070710E+02  0.00000000000E+00 0. -1.
         23    2    1    2    0    0  0.93124430988E+02 -0.10390967546E+03  0.10522281505E+03  0.18505623188E+03  0.60865325518E+02 0.  0.
          5    1    1    2  502    0 -0.82556573367E+02  0.10543705924E+03  0.36687063999E+03  0.39056894418E+03  0.41800000000E+01 0. -1.
         -5    1    1    2    0  502 -0.10567857621E+02 -0.15273837801E+01  0.35638927160E+03  0.35657369200E+03  0.41800000000E+01 0. -1.
        -11    1    3    3    0    0  0.18098910469E+02 -0.26419259104E+02  0.60179045209E+02  0.68169386781E+02  0.00000000000E+00 0.  1.
         11    1    3    3    0    0  0.75025520519E+02 -0.77490416358E+02  0.45043769839E+02  0.11688684510E+03  0.00000000000E+00 0. -1.
</event>
<event>
 7    1  0.5831876E-006  0.2084107E+03  0.7561462E-02  0.1142831E+00
          2   -1    0    0  501    0  0.00000000000E+00  0.00000000000E+00  0.60290920603E+03  0.60290920603E+03  0.00000000000E+00 0. -1.
         -2   -1    0    0    0  501 -0.00000000000E+00 -0.00000000000E+00 -0.97253420885E+02  0.97253420885E+02  0.00000000000E+00 0.  1.
         23    2    1    2    0    0  0.15905373840E+02 -0.18916794723E+03  0.92762375025E+02  0.22881904043E+03  0.87839637204E+02 0.  0.
          5    1    1    2  502    0 -0.36989403039E+02  0.28629485695E+02  0.19059999839E+03  0.19630001318E+03  0.41800000000E+01 0. -1.
         -5    1    1    2    0  502  0.21084029199E+02  0.16053846154E+03  0.22229341173E+03  0.27504357331E+03  0.41800000000E+01 0. -1.
        -11    1    3    3    0    0 -0.11219705396E+02 -0.17832485563E+03  0.88172400350E+02  0.19924860880E+03  0.00000000000E+00 0.  1.
         11    1    3    3    0    0  0.27125079236E+02 -0.10843091601E+02  0.45899746745E+01  0.29570431626E+02  0.00000000000E+00 0. -1.
</event>
<event>
 7    1  0.5831876E-006  0.1099877E+03  0.7561462E-02  0.1260593E+00
          3   -1    0    0  501    0  0.00000000000E+00  0.00000000000E+00  0.43864250782E+03  0.43864250782E+03  0.00000000000E+00 0. -1.
         -3   -1    0    0    0  501 -0.00000000000E+00 -0.00000000000E+00 -0.34117242038E+02  0.34117242038E+02  0.00000000000E+00 0.  1.
         23    2    1    2    0    0 -0.24692578684E+02  0.44054239061E+02  0.12441068875E+03  0.16185048685E+03  0.90371794250E+02 0.  0.
          5    1    1    2  502    0  0.34443074732E+02 -0.83803653974E+02  0.22099040803E+03  0.23887990845E+03  0.41800000000E+01 0.  1.
         -5    1    1    2    0  502 -0.97504960485E+01  0.39749414913E+02  0.59124168993E+02  0.72029354559E+02  0.41800000000E+01 0.  1.
        -11    1    3    3    0    0  0.25647954790E+02  0.18885990801E+02  0.90967531167E+02  0.96382518955E+02  0.00000000000E+00 0. -1.
         11    1    3    3    0    0 -0.50340533474E+02  0.25168248261E+02  0.33443157586E+02  0.65467967894E+02  0.00000000000E+00 0.  1.
</event>
<event>
 7    1  0.5831876E-006  0.1270706E+03  0.7561462E-02  0.1231868E+00
         -2   -1    0    0    0  501 -0.00000000000E+00  0.00000000000E+00  0.20898772564E+02  0.20898772564E+02  0.00000000000E+00 0.  1.
          2   -1    0    0  501    0  0.00000000000E+00 -0.00000000000E+00 -0.13880417607E+04  0.13880417607E+04  0.00000000000E+00 0. -1.
         23    2    1    2    0    0  0.26271974410E+02 -0.87185588561E+02 -0.25328603999E+03  0.28438852137E+03  0.91823033800E+02 0.  0.
          5    1    1    2  502    0  0.26586869947E+02  0.75689465486E+02 -0.36516033356E+03  0.37389209466E+03  0.41800000000E+01 0. -1.
         -5    1    1    2    0  502 -0.52858844357E+02  0.11496123076E+02 -0.74869661462E+03  0.75065991728E+03  0.41800000000E+01 0. -1.
        -11    1    3    3    0    0  0.53377706045E+02 -0.47241201292E+02 -0.20081223115E+03  0.21308792266E+03  0.00000000000E+00 0. -1.
         11    1    3    3    0    0 -0.27105731635E+02 -0.39944387269E+02 -0.52473808843E+02  0.71300598709E+02  0.00000000000E+00 0.  1.
</event>
<event>
 7    1  0.5831876E-006  0.1572058E+03  0.7561462E-02  0.1191888E+00
          1   -1    0    0  501    0  0.00000000000E+00  0.00000000000E+00  0.23077146331E+04  0.23077146331E+04  0.00000000000E+00 0. -1.
         -1   -1    0    0    0  501 -0.00000000000E+00 -0.00000000000E+00 -0.14337306069E+02  0.14337306069E+02  0.00000000000E+00 0.  1.
         23    2    1    2    0    0  0.36882348089E+02 -0.12159773273E+03  0.61154444059E+03  0.63079328676E+03  0.88132012355E+02 0.  0.
          5    1    1    2  502    0 -0.64267612405E+02  0.42792324692E+02  0.11791481620E+04  0.11816807392E+04  0.41800000000E+01 0.  1.
         -5    1    1    2    0  502  0.27385264316E+02  0.78805408040E+02  0.50268472440E+03  0.50957791316E+03  0.41800000000E+01 0.  1.
        -11    1    3    3    0    0  0.38467925256E+02 -0.71873314170E+01  0.12536984083E+03  0.13133558542E+03  0.00000000000E+00 0.  1.
         11    1    3    3    0    0 -0.15855771671E+01 -0.11441040131E+03  0.48617459976E+03  0.49945770135E+03  0.00000000000E+00 0. -1.
</event>
<event>
 7    1  0.5831876E-006  0.1143435E+03  0.7561462E-02  0.1252731E+00
         -2   -1    0    0    0  501 -0.00000000000E+00  0.00000000000E+00  0.88978354740E+02  0.88978354740E+02  0.00000000000E+00 0.  1.
          2   -1    0    0  501    0  0.00000000000E+00 -0.00000000000E+00 -0.19103965843E+03  0.19103965843E+03  0.00000000000E+00 0. -1.
         23    2    1    2    0    0  0.80687374126E+02  0.47488393685E+01 -0.48323018052E+02  0.12988526860E+03  0.89454262658E+02 0.  0.
          5    1    1    2  502    0 -0.19000436144E+02 -0.46508645627E+02 -0.56179470982E+02  0.75482952059E+02  0.41800000000E+01 0. -1.
         -5    1    1    2    0  502 -0.61686937982E+02  0.41759806259E+02  0.24411853395E+01  0.74649792513E+02  0.41800000000E+01 0.  1.
        -11    1    3    3    0    0  0.49492143615E+02  0.34678524972E+02  0.56925959545E+01  0.60699901339E+02  0.00000000000E+00 0.  1.
         11    1    3    3    0    0  0.31195230511E+02 -0.29929685603E+02 -0.54015614006E+02  0.69185367264E+02  0.00000000000E+00 0. -1.
</event>
<event>
 6    1  0.5831876E-006  0.2465621E+03  0.7561462E-02  0.1115497E+00
          1   -1    0    0  501    0  0.00000000000E+00  0.00000000000E+00  0.86075635239E+03  0.86075635239E+03  0.00000000000E+00 0. -1.
         -1   -1    0    0    0  501 -0.00000000000E+00 -0.00000000000E+00 -0.89163578530E+02  0.89163578530E+02  0.00000000000E+00 0.  1.
          5    1    1    2  502    0  0.24150788712E+02  0.22358261663E+03  0.53545380935E+03  0.58077594768E+03  0.41800000000E+01 0. -1.
         -5    1    1    2    0  502  0.23488405345E+02 -0.94804664009E+01  0.28676108299E+02  0.38488647885E+02  0.41800000000E+01 0.  1.
        -11    1    1    2    0    0 -0.76646533520E+02 -0.10733140817E+03  0.56481866360E+02  0.14347446988E+03  0.00000000000E+00 0.  1.
         11    1    1    2    0    0  0.29007339464E+02 -0.10677074207E+03  0.15098098985E+03  0.18718086548E+03  0.00000000000E+00 0. -1.
</event>
<event>
 7    1  0.5831876E-006  0.1536398E+03  0.7561462E-02  0.1196070E+00
         -2   -1    0    0    0  501 -0.00000000000E+00  0.00000000000E+00  0.48475681427E+02  0.48475681427E+02  0.00000000000E+00 0. -1.
          2   -1    0    0  501    0  0.00000000000E+00 -0.00000000000E+00 -0.64959184592E+03  0.64959184592E+03  0.00000000000E+00 0.  1.
         23    2    1    2    0    0  0.12759272915E+03  0.58964414959E+02 -0.26519775607E+03  0.31304164362E+03  0.88929826538E+02 0.  0.
          5    1    1    2  502    0 -0.61502090776E+02 -0.98164369350E+01 -0.32054606934E+02  0.70170077880E+02  0.41800000000E+01 0. -1.
         -5    1    1    2    0  502 -0.66090638375E+02 -0.49147978024E+02 -0.30386380149E+03  0.31485580585E+03  0.41800000000E+01 0. -1.
        -11    1    3    3    0    0  0.66341374562E+02  0.73936023291E+02 -0.19387943291E+03  0.21784615678E+03  0.00000000000E+00 0.  1.
         11    1    3    3    0    0  0.61251354589E+02 -0.14971608333E+02 -0.71318323168E+02  0.95195486839E+02  0.00000000000E+00 0. -1.
</event>
<event>
 7    1  0.5831876E-006  0.1027667E+03  0.7561462E-02  0.1274583E+00
          2   -1    0    0  501    0  0.00000000000E+00  0.00000000000E+00  0.34880248311E+03  0.34880248311E+03  0.00000000000E+00 0. -1.
         -2   -1    0    0    0  501 -0.00000000000E+00 -0.00000000000E+00 -0.45722043770E+02  0.45722043770E+02  0.00000000000E+00 0.  1.
         23    2    1    2    0    0 -0.49387474583E+02  0.24657171325E+02  0.84008825816E+02  0.13628663759E+03  0.92029701876E+02 0.  0.
          5    1    1    2  502    0 -0.32669225782E+02 -0.15989951851E+02  0.17883008651E+02  0.40745935647E+02  0.41800000000E+01 0.  1.
         -5    1    1    2    0  502  0.82056700365E+02 -0.86672194742E+01  0.20118860487E+03  0.21749195364E+03  0.41800000000E+01 0.  1.
        -11    1    3    3    0    0 -0.16846371751E+02  0.44915516359E+02  0.47003991877E+01  0.48200597543E+02  0.00000000000E+00 0.  1.
         11    1    3    3    0    0 -0.32541102832E+02 -0.20258345034E+02  0.79308426629E+02  0.88086040048E+02  0.00000000000E+00 0. -1.
</event>
<event>
 7    1  0.5831876E-006  0.1320284E+03  0.7561462E-02  0.1224477E+00
          1   -1    0    0  501    0  0.00000000000E+00  0.00000000000E+00  0.76098404989E+03  0.76098404989E+03  0.00000000000E+00 0. -1.
         -1   -1    0    0    0  501 -0.00000000000E+00 -0.00000000000E+00 -0.25293240147E+02  0.25293240147E+02  0.00000000000E+00 0.  1.
         23    2    1    2    0    0  0.91334404329E+01 -0.81234333231E+02  0.40224224915E+03  0.42087374171E+03  0.93023883121E+02 0.  0.
          5    1    1    2  502    0  0.52892664520E+02  0.40696308078E+02  0.21914337200E+03  0.22911812094E+03  0.41800000000E+01 0.  1.
         -5    1    1    2    0  502 -0.62026104953E+02  0.40538025152E+02  0.11430518859E+03  0.13628542739E+03  0.41800000000E+01 0.  1.
        -11    1    3    3    0    0  0.25153578768E+02  0.12353804970E+02  0.72295469804E+02  0.77536791114E+02  0.00000000000E+00 0.  1.
         11    1    3    3    0    0 -0.16020138336E+02 -0.93588138201E+02  0.32994677935E+03  0.34333695060E+03  0.00000000000E+00 0. -1.
</event>
<event>
 7    1  0.5831876E-006  0.1555968E+03  0.7561462E-02  0.1193760E+00
          2   -1    0    0  501    0  0.00000000000E+00  0.00000000000E+00  0.24265145939E+02  0.24265145939E+02  0.00000000000E+00 0. -1.
         -2   -1    0    0    0  501 -0.00000000000E+00 -0.00000000000E+00 -0.12613776076E+04  0.12613776076E+04  0.00000000000E+00 0.  1.
         23    2    1    2    0    0  0.11451878570E+03 -0.74404740267E+02 -0.51297439354E+03  0.53819765929E+03  0.88675669652E+02 0.  0.
          5    1    1    2  502    0 -0.62746479243E+02 -0.18633356850E+02 -0.15320830063E+03  0.16665706834E+03  0.41800000000E+01 0.  1.
         -5    1    1    2    0  502 -0.51772306456E+02  0.93038097117E+02 -0.57092976750E+03  0.58078802592E+03  0.41800000000E+01 0.  1.
        -11    1    3    3    0    0  0.86123919998E+02 -0.68511751661E+02 -0.48695598731E+03  0.49923674073E+03  0.00000000000E+00 0.  1.
         11    1    3    3    0    0  0.28394865701E+02 -0.58929886059E+01 -0.26018406227E+02  0.38960918566E+02  0.00000000000E+00 0. -1.
</event>
<event>
 7    1  0.5831876E-006  0.1038243E+03  0.7561462E-02  0.1272453E+00
          2   -1    0    0  501    0  0.00000000000E+00  0.00000000000E+00  0.63036394880E+03  0.63036394880E+03  0.00000000000E+00 0.  1.
         -2   -1    0    0    0  501 -0.00000000000E+00 -0.00000000000E+00 -0.23434374230E+02  0.23434374230E+02  0.00000000000E+00 0. -1.
         23    2    1    2    0    0 -0.23337583242E+02 -0.39657057813E+02  0.18177132374E+03  0.20823816428E+03  0.90581421391E+02 0.  0.
          5    1    1    2  502    0  0.67173110468E+02  0.27612290813E+02  0.15080255294E+03  0.16743221836E+03  0.41800000000E+01 0.  1.
         -5    1    1    2    0  502 -0.43835527226E+02  0.12044766999E+02  0.27435569789E+03  0.27812794039E+03  0.41800000000E+01 0.  1.
        -11    1    3    3    0    0 -0.51638217445E+02 -0.26474520525E+02  0.63964751557E+02  0.86364895529E+02  0.00000000000E+00 0. -1.
         11    1    3    3    0    0  0.28300634203E+02 -0.13182537288E+02  0.11780657219E+03  0.12187326875E+03  0.00000000000E+00 0.  1.
</event>
<event>
 7    1  0.5831876E-006  0.6193579E+02  0.7561462E-02  0.1389883E+00
         -3   -1    0    0    0  501 -0.00000000000E+00  0.00000000000E+00  0.82350111273E+02  0.82350111273E+02  0.00000000000E+00 0.  1.
          3   -1    0    0  501    0  0.00000000000E+00 -0.00000000000E+00 -0.15369485701E+03  0.15369485701E+03  0.00000000000E+00 0. -1.
         23    2    1    2    0    0  0.93863647506E+01 -0.30299120608E+02 -0.25477862608E+02  0.99075609529E+02  0.90336672330E+02 0.  0.
          5    1    1    2  502    0  0.20051025196E+01  0.51453528951E+01  0.43135618857E+02  0.43688088842E+02  0.41800000000E+01 0.  1.
         -5    1    1    2    0  502 -0.11391467270E+02  0.25153767713E+02 -0.89002501984E+02  0.93281269910E+02  0.41800000000E+01 0.  1.
        -11    1    3    3    0    0  0.40354310447E+02 -0.39746224489E+02 -0.33383985779E+02  0.65747420020E+02  0.00000000000E+00 0. -1.
         11    1    3    3    0    0 -0.30967945696E+02  0.94471038809E+01  0.79061231712E+01  0.33328189509E+02  0.00000000000E+00 0.  1.
</event>
<event>
 7    1  0.5831876E-006  0.1004315E+03  0.7561462E-02  0.1279391E+00
         -1   -1    0    0    0  501 -0.00000000000E+00  0.00000000000E+00  0.56954292372E+02  0.56954292372E+02  0.00000000000E+00 0.  1.
          1   -1    0    0  501    0  0.00000000000E+00 -0.00000000000E+00 -0.24893365311E+03  0.24893365311E+03  0.00000000000E+00 0. -1.
         23    2    1    2    0    0  0.47284765175E+02 -0.10643549899E+02 -0.55754080440E+02  0.11471405008E+03  0.87759111363E+02 0.  0.
          5    1    1    2  502    0  0.18760685791E+02 -0.19980092489E+02  0.85994491490E+01  0.29027406927E+02  0.41800000000E+01 0. -1.
         -5    1    1    2    0  502 -0.66045450967E+02  0.30623642389E+02 -0.14482472945E+03  0.16214648848E+03  0.41800000000E+01 0. -1.
        -11    1    3    3    0    0  0.16616536582E+02  0.38702787638E+02 -0.21945740506E+02  0.47493479398E+02  0.00000000000E+00 0. -1.
         11    1    3    3    0    0  0.30668228593E+02 -0.49346337537E+02 -0.33808339934E+02  0.67220570679E+02  0.00000000000E+00 0.  1.
</event>
<event>
 7    1  0.5831876E-006  0.1210591E+03  0.7561462E-02  0.1241360E+00
         -1   -1    0    0    0  501 -0.00000000000E+00  0.00000000000E+00  0.22316184375E+03  0.22316184375E+03  0.00000000000E+00 0.  1.
          1   -1    0    0  501    0  0.00000000000E+00 -0.00000000000E+00 -0.90077348393E+02  0.90077348393E+02  0.00000000000E+00 0. -1.
         23    2    1    2    0    0 -0.30463869301E+02  0.83629805674E+02  0.78236723367E+02  0.15021482923E+03  0.92312070210E+02 0.  0.
          5    1    1    2  502    0  0.69454474429E+02 -0.12015836346E+02  0.35877531543E+02  0.79202108627E+02  0.41800000000E+01 0.  1.
         -5    1    1    2    0  502 -0.38990605127E+02 -0.71613969328E+02  0.18970240444E+02  0.83822254286E+02  0.41800000000E+01 0.  1.
        -11    1    3    3    0    0 -0.10082444513E+02  0.45728621895E+02 -0.13628340835E+02  0.48769808506E+02  0.00000000000E+00 0. -1.
         11    1    3    3    0    0 -0.20381424788E+02  0.37901183779E+02  0.91865064201E+02  0.10144502072E+03  0.00000000000E+00 0.  1.
</event>
<event>
 7    1  0.5831876E-006  0.1020804E+03  0.7561462E-02  0.1275981E+00
         -3   -1    0    0    0  501 -0.00000000000E+00  0.00000000000E+00  0.10040683323E+02  0.10040683323E+02  0.00000000000E+00 0.  1.
          3   -1    0    0  501    0  0.00000000000E+00 -0.00000000000E+00 -0.12954213685E+04  0.12954213685E+04  0.00000000000E+00 0. -1.
         23    2    1    2    0    0 -0.15638891600E+02  0.94942090846E+00 -0.38501231496E+03  0.39630995333E+03  0.92637034202E+02 0.  0.
          5    1    1    2  502    0  0.52304275364E+02 -0.32513753432E+02 -0.27228726764E+03  0.27919654350E+03  0.41800000000E+01 0. -1.
         -5    1    1    2    0  502 -0.36665383764E+02  0.31564332523E+02 -0.62808110256E+03  0.62995555498E+03  0.41800000000E+01 0. -1.
        -11    1    3    3    0    0  0.38419965052E+02  0.83277893553E+01 -0.16937816042E+03  0.17388043886E+03  0.00000000000E+00 0. -1.
         11    1    3    3    0    0 -0.54058856652E+02 -0.73783684468E+01 -0.21563415454E+03  0.22242951447E+03  0.00000000000E+00 0.  1.
</event>
<event>
 7    1  0.5831876E-006  0.2804873E+03  0.7561462E-02  0.1095423E+00
         -2   -1    0    0    0  501 -0.00000000000E+00  0.00000000000E+00  0.26768059354E+02  0.26768059354E+02  0.00000000000E+00 0.  1.
          2   -1    0    0  501    0  0.00000000000E+00 -0.00000000000E+00 -0.32113195686E+04  0.32113195686E+04  0.00000000000E+00 0. -1.
         23    2    1    2    0    0 -0.11294180627E+03  0.23662887469E+03 -0.11532167686E+04  0.11860843822E+04  0.90211808164E+02 0.  0.
          5    1    1    2  502    0  0.81513794370E+02 -0.24194157341E+03 -0.16933113100E+04  0.17124546384E+04  0.41800000000E+01 0.  1.
         -5    1    1    2    0  502  0.31428011903E+02  0.53126987271E+01 -0.33802343064E+03  0.33954860737E+03  0.41800000000E+01 0.  1.
        -11    1    3    3    0    0 -0.54250161448E+02  0.19266680038E+03 -0.92369873915E+03  0.94513646458E+03  0.00000000000E+00 0. -1.
         11    1    3    3    0    0 -0.58691644825E+02  0.43962074304E+02 -0.22951802944E+03  0.24094791758E+03  0.00000000000E+00 0.  1.
</event>
<event>
 7    1  0.5831876E-006  0.1118920E+03  0.7561462E-02  0.1257106E+00
         -2   -1    0    0    0  501 -0.00000000000E+00  0.00000000000E+00  0.14813939108E+02  0.14813939108E+02  0.00000000000E+00 0.  1.
          2   -1    0    0  501    0  0.00000000000E+00 -0.00000000000E+00 -0.96865128407E+03  0.96865128407E+03  0.00000000000E+00 0. -1.
         23    2    1    2    0    0  0.15028085995E+02  0.29946823055E+02 -0.24636438759E+03  0.26423789009E+03  0.89462816354E+02 0.  0.
          5    1    1    2  502    0 -0.69753401945E+02 -0.19309514718E+02 -0.44496661859E+03  0.45083384800E+03  0.41800000000E+01 0. -1.
         -5    1    1    2    0  502  0.54725315950E+02 -0.10637308337E+02 -0.26250633879E+03  0.26839348509E+03  0.41800000000E+01 0. -1.
        -11    1    3    3    0    0  0.29615647256E+02 -0.24859426213E+02 -0.10723359925E+03  0.11399176480E+03  0.00000000000E+00 0.  1.
         11    1    3    3    0    0 -0.14587561261E+02  0.54806249268E+02 -0.13913078834E+03  0.15024612529E+03  0.00000000000E+00 0. -1.
</event>
<event>
 7    1  0.5831876E-006  0.9292230E+02  0.7561462E-02  0.1295925E+00
          1   -1    0    0  501    0  0.00000000000E+00  0.00000000000E+00  0.11816404885E+03  0.11816404885E+03  0.00000000000E+00 0. -1.
         -1   -1    0    0    0  501 -0.00000000000E+00 -0.00000000000E+00 -0.15289430354E+03  0.15289430354E+03  0.00000000000E+00 0.  1.
         23    2    1    2    0    0  0.14848967198E+02  0.54527522807E+02 -0.71339048981E+02  0.12899757215E+03  0.91418658598E+02 0.  0.
          5    1    1    2  502    0  0.42625921520E+01 -0.60686866668E+02 -0.33109234624E+02  0.69388466587E+02  0.41800000000E+01 0.  1.
         -5    1    1    2    0  502 -0.19111559350E+02  0.61593438610E+01  0.69718028913E+02  0.72672313663E+02  0.41800000000E+01 0.  1.
        -11    1    3    3    0    0  0.41099432977E+02  0.64326334139E+02 -0.37454665550E+02  0.85028775283E+02  0.00000000000E+00 0.  1.
         11    1    3    3    0    0 -0.26250465779E+02 -0.97988113314E+01 -0.33884383431E+02  0.43968796863E+02  0.00000000000E+00 0. -1.
</event>
<event>
 7    1  0.5831876E-006  0.1143811E+03  0.7561462E-02  0.1252665E+00
          2   -1    0    0  501    0  0.00000000000E+00  0.00000000000E+00  0.41369229945E+03  0.41369229945E+03  0.00000000000E+00 0. -1.
         -2   -1    0    0    0  501 -0.00000000000E+00 -0.00000000000E+00 -0.36727262336E+02  0.36727262336E+02  0.00000000000E+00 0.  1.
         23    2    1    2    0    0 -0.53196021383E+02 -0.46763685133E+01  0.12615646306E+03  0.16510871669E+03  0.92161543182E+02 0.  0.
          5    1    1    2  502    0 -0.39059980626E+02 -0.12300238348E+02  0.92576455860E+02  0.10131559865E+03  0.41800000000E+01 0.  1.
         -5    1    1    2    0  502  0.92256002009E+02  0.16976606861E+02  0.15823211819E+03  0.18399524644E+03  0.41800000000E+01 0.  1.
        -11    1    3    3    0    0 -0.59547939417E+02  0.24093635622E+02  0.11830127452E+03  0.13461668515E+03  0.00000000000E+00 0. -1.
         11    1    3    3    0    0  0.63519180336E+01 -0.28770004136E+02  0.78551885381E+01  0.30492031543E+02  0.00000000000E+00 0.  1.
</event>
<event>
 7    1  0.5831876E-006  0.1578865E+03  0.7561462E-02  0.1191104E+00
          3   -1    0    0  501    0  0.00000000000E+00  0.00000000000E+00  0.34726117784E+03  0.34726117784E+03  0.00000000000E+00 0. -1.
         -3   -1    0    0    0  501 -0.00000000000E+00 -0.00000000000E+00 -0.17289547700E+03  0.17289547700E+03  0.00000000000E+00 0.  1.
         23    2    1    2    0    0 -0.13890180736E+03 -0.52756145150E+02 -0.89542262767E+02  0.19542968556E+03  0.89989011772E+02 0.  0.
          5    1    1    2  502    0  0.90826315372E+02 -0.60037925340E+01  0.21707817643E+03  0.23542699967E+03  0.41800000000E+01 0. -1.
         -5    1    1    2    0  502  0.48075491985E+02  0.58759937684E+02  0.46829787169E+02  0.89299969611E+02  0.41800000000E+01 0.  1.
        -11    1    3    3    0    0 -0.54535813900E+02 -0.22367741457E+02  0.11795951460E+02  0.60113353978E+02  0.00000000000E+00 0. -1.
         11    1    3    3    0    0 -0.84365993457E+02 -0.30388403693E+02 -0.10133821423E+03  0.13531633159E+03  0.00000000000E+00 0.  1.
</event>
<event>
 7    1  0.5831876E-006  0.1054308E+03  0.7561462E-02  0.1269273E+00
          1   -1    0    0  501    0  0.00000000000E+00  0.00000000000E+00  0.26596254495E+03  0.26596254495E+03  0.00000000000E+00 0. -1.
         -1   -1    0    0    0  501 -0.00000000000E+00 -0.00000000000E+00 -0.74561455675E+02  0.74561455675E+02  0.00000000000E+00 0.  1.
         23    2    1    2    0    0 -0.65013491062E+01 -0.53469134241E+02 -0.60548826155E+01  0.10629803831E+03  0.91440666486E+02 0.  0.
          5    1    1    2  502    0  0.10844915437E+02  0.87840390866E+02  0.11904530240E+03  0.14840081834E+03  0.41800000000E+01 0. -1.
         -5    1    1    2    0  502 -0.43435663305E+01 -0.34371256625E+02  0.78410669490E+02  0.85825143986E+02  0.41800000000E+01 0.  1.
        -11    1    3    3    0    0  0.29473318276E+02 -0.10426935901E+02 -0.31783883961E+02  0.44582650910E+02  0.00000000000E+00 0.  1.
         11    1    3    3    0    0 -0.35974667382E+02 -0.43042198340E+02  0.25729001345E+02  0.61715387396E+02  0.00000000000E+00 0. -1.
</event>
<event>
 7    1  0.5831876E-006  0.1389950E+03  0.7561462E-02  0.1214688E+00
         -2   -1    0    0    0  501 -0.00000000000E+00  0.00000000000E+00  0.81512408316E+02  0.81512408316E+02  0.00000000000E+00 0.  1.
          2   -1    0    0  501    0  0.00000000000E+00 -0.00000000000E+00 -0.31213597412E+03  0.31213597412E+03  0.00000000000E+00 0. -1.
         23    2    1    2    0    0  0.13488278667E+02 -0.11328841980E+03 -0.74483454436E+02  0.16333550226E+03  0.90080528373E+02 0.  0.
          5    1    1    2  502    0  0.46462194108E+02  0.16671224105E+02 -0.21418007478E+02  0.53970998126E+02  0.41800000000E+01 0. -1.
         -5    1    1    2    0  502 -0.59950472774E+02  0.96617195691E+02 -0.13472210389E+03  0.17634188206E+03  0.41800000000E+01 0. -1.
        -11    1    3    3    0    0  0.15611298543E+02 -0.99084701932E+02 -0.14130547621E+02  0.10129739965E+03  0.00000000000E+00 0.  1.
         11    1    3    3    0    0 -0.21230198768E+01 -0.14203717864E+02 -0.60352906815E+02  0.62038102611E+02  0.00000000000E+00 0. -1.
</event>
<event>
 7    1  0.5831876E-006  0.2030273E+03  0.7561462E-02  0.1147210E+00
          2   -1    0    0  501    0  0.00000000000E+00  0.00000000000E+00  0.53041156287E+03  0.53041156287E+03  0.00000000000E+00 0. -1.
         -2   -1    0    0    0  501 -0.00000000000E+00 -0.00000000000E+00 -0.91947977684E+02  0.91947977684E+02  0.00000000000E+00 0.  1.
         23    2    1    2    0    0 -0.51771039803E+02  0.18365424010E+03  0.19818561477E+03  0.29101180721E+03  0.94874725618E+02 0.  0.
          5    1    1    2  502    0 -0.23401469747E+02 -0.15242513045E+02 -0.22881817467E+00  0.28239825566E+02  0.41800000000E+01 0. -1.
         -5    1    1    2    0  502  0.75172509549E+02 -0.16841172706E+03  0.24050678859E+03  0.30310790778E+03  0.41800000000E+01 0. -1.
        -11    1    3    3    0    0 -0.53514656534E+02  0.14357796373E+03  0.94960609814E+02  0.18026637942E+03  0.00000000000E+00 0.  1.
         11    1    3    3    0    0  0.17436167315E+01  0.40076276373E+02  0.10322500496E+03  0.11074542779E+03  0.00000000000E+00 0. -1.
</event>
<event>
 7    1  0.5831876E-006  0.9970092E+02  0.7561462E-02  0.1280926E+00
          1   -1    0    0  501    0  0.00000000000E+00  0.00000000000E+00  0.26493858355E+03  0.26493858355E+03  0.00000000000E+00 0. -1.
         -1   -1    0    0    0  501 -0.00000000000E+00 -0.00000000000E+00 -0.62771527670E+02  0.62771527670E+02  0.00000000000E+00 0.  1.
         23    2    1    2    0    0  0.62272424006E+02 -0.26333379475E+02  0.68838460227E+02  0.13278574371E+03  0.91225097750E+02 0.  0.
          5    1    1    2  502    0  0.23655014537E+02  0.31893712170E+02  0.48758069934E+01  0.40224550744E+02  0.41800000000E+01 0. -1.
         -5    1    1    2    0  502 -0.85927438543E+02 -0.55603326949E+01  0.12845278866E+03  0.15469981677E+03  0.41800000000E+01 0. -1.
        -11    1    3    3    0    0  0.29418141847E+02 -0.27666620292E+02  0.86499042363E+02  0.95461789621E+02  0.00000000000E+00 0. -1.
         11    1    3    3    0    0  0.32854282159E+02  0.13332408172E+01 -0.17660582136E+02  0.37323954086E+02  0.00000000000E+00 0.  1.
</event>
<event>
 7    1  0.5831876E-006  0.1293255E+03  0.7561462E-02  0.1228460E+00
         -2   -1    0    0    0  501 -0.00000000000E+00  0.00000000000E+00  0.89763887094E+02  0.89763887094E+02  0.00000000000E+00 0. -1.
          2   -1    0    0  501    0  0.00000000000E+00 -0.00000000000E+00 -0.26354912453E+03  0.26354912453E+03  0.00000000000E+00 0.  1.
         23    2    1    2    0    0  0.10054833954E+02 -0.83218886990E+02  0.22020664591E+01  0.12169766062E+03  0.88198575195E+02 0.  0.
          5    1    1    2  502    0 -0.91800047479E+01 -0.27645368120E+02 -0.83504456246E+01  0.30589887346E+02  0.41800000000E+01 0.  1.
         -5    1    1    2    0  502 -0.87482920569E+00  0.11086425511E+03 -0.16763685827E+03  0.20102546366E+03  0.41800000000E+01 0.  1.
        -11    1    3    3    0    0  0.44931884456E+02 -0.27926867758E+02 -0.13219991025E+02  0.54530288338E+02  0.00000000000E+00 0. -1.
         11    1    3    3    0    0 -0.34877050502E+02 -0.55292019232E+02  0.15422057484E+02  0.67167372284E+02  0.00000000000E+00 0.  1.
</event>
<event>
 6    1  0.5831876E-006  0.1008945E+03  0.7561462E-02  0.1278426E+00
         -1   -1    0    0    0  501 -0.00000000000E+00  0.00000000000E+00  0.14335067140E+03  0.14335067140E+03  0.00000000000E+00 0.  1.
          1   -1    0    0  501    0  0.00000000000E+00 -0.00000000000E+00 -0.17155710973E+03  0.17155710973E+03  0.00000000000E+00 0. -1.
          5    1    1    2  502    0 -0.30528858974E+01  0.46173703444E+02  0.48640750150E+02  0.67266083409E+02  0.41800000000E+01 0. -1.
         -5    1    1    2    0  502  0.25654114821E+02  0.33923629692E+02 -0.73499232117E+02  0.85020913783E+02  0.41800000000E+01 0. -1.
        -11    1    1    2    0    0 -0.88463831920E+01  0.14506360160E+02 -0.52461447143E+02  0.55144323525E+02  0.00000000000E+00 0. -1.
         11    1    1    2    0    0 -0.13754845732E+02 -0.94603693296E+02  0.49113490779E+02  0.10747646041E+03  0.00000000000E+00 0.  1.
</event>
<event>
 7    1  0.5831876E-006  0.1048948E+03  0.7561462E-02  0.1270327E+00
         -1   -1    0    0    0  501 -0.00000000000E+00  0.00000000000E+00  0.30144968255E+03  0.30144968255E+03  0.00000000000E+00 0.  1.
          1   -1    0    0  501    0  0.00000000000E+00 -0.00000000000E+00 -0.41617291067E+02  0.41617291067E+02  0.00000000000E+00 0. -1.
         23    2    1    2    0    0  0.19389798899E+02 -0.89812262992E+01  0.86400596678E+02  0.12816661161E+03  0.92222505375E+02 0.  0.
          5    1    1    2  502    0 -0.38260484638E+02  0.60582495640E+02  0.10013764660E+03  0.12320358814E+03  0.41800000000E+01 0.  1.
         -5    1    1    2    0  502  0.18870685739E+02 -0.51601269341E+02  0.73294148209E+02  0.91696773878E+02  0.41800000000E+01 0.  1.
        -11    1    3    3    0    0 -0.78160716562E+01 -0.40516660722E+02  0.73971970492E+02  0.84702675227E+02  0.00000000000E+00 0.  1.
         11    1    3    3    0    0  0.27205870555E+02  0.31535434422E+02  0.12428626185E+02  0.43463936381E+02  0.00000000000E+00 0. -1.
</event>
<event>
 7    1  0.5831876E-006  0.1073606E+03  0.7561462E-02  0.1265537E+00
          2   -1    0    0  501    0  0.00000000000E+00  0.00000000000E+00  0.18212998560E+03  0.18212998560E+03  0.00000000000E+00 0. -1.
         -2   -1    0    0    0  501 -0.00000000000E+00 -0.00000000000E+00 -0.10628971385E+03  0.10628971385E+03  0.00000000000E+00 0.  1.
         23    2    1    2    0    0  0.46626260278E+02  0.74239791998E+02  0.15421558141E+02  0.12415807041E+03  0.86555456958E+02 0.  0.
          5    1    1    2  502    0 -0.13456229736E+01 -0.21288911244E+02 -0.37897739208E+02  0.43689123134E+02  0.41800000000E+01 0. -1.
         -5    1    1    2    0  502 -0.45280637305E+02 -0.52950880755E+02  0.98316452817E+02  0.12057250591E+03  0.41800000000E+01 0. -1.
        -11    1    3    3    0    0 -0.25758626837E+02  0.16451780127E+02  0.31642128197E+01  0.30727514846E+02  0.00000000000E+00 0. -1.
         11    1    3    3    0    0  0.72384887115E+02  0.57788011871E+02  0.12257345321E+02  0.93430555564E+02  0.00000000000E+00 0.  1.
</event>
<event>
 7    1  0.5831876E-006  0.1096341E+03  0.7561462E-02  0.1261249E+00
         -2   -1    0    0    0  501 -0.00000000000E+00  0.00000000000E+00  0.31454387378E+03  0.31454387378E+03  0.00000000000E+00 0.  1.
          2   -1    0    0  501    0  0.00000000000E+00 -0.00000000000E+00 -0.49168023756E+02  0.49168023756E+02  0.00000000000E+00 0. -1.
         23    2    1    2    0    0 -0.45490659474E+02 -0.40596473468E+02  0.11612170436E+03  0.15964861663E+03  0.91027231157E+02 0.  0.
          5    1    1    2  502    0 -0.23583578436E+02 -0.21229867004E+02  0.85989867641E+02  0.91753049877E+02  0.41800000000E+01 0. -1.
         -5    1    1    2    0  502  0.69074237911E+02  0.61826340472E+02  0.63264278024E+02  0.11231023103E+03  0.41800000000E+01 0. -1.
        -11    1    3    3    0    0  0.19589505157E+02 -0.14392943694E+02  0.38908851333E+00  0.24311662435E+02  0.00000000000E+00 0. -1.
         11    1    3    3    0    0 -0.65080164631E+02 -0.26203529773E+02  0.11573261585E+03  0.13533695420E+03  0.00000000000E+00 0.  1.
</event>
<event>
 7    1  0.5831876E-006  0.9032401E+02  0.7561462E-02  0.1302069E+00
          4   -1    0    0  501    0  0.00000000000E+00  0.00000000000E+00  0.38278243410E+03  0.38278243410E+03  0.00000000000E+00 0. -1.
         -4   -1    0    0    0  501 -0.00000000000E+00 -0.00000000000E+00 -0.35576818698E+02  0.35576818698E+02  0.00000000000E+00 0.  1.
         23    2    1    2    0    0 -0.28839447705E+02  0.29778274139E+02  0.12795628264E+03  0.16255463719E+03  0.91283845508E+02 0.  0.
          5    1    1    2  502    0  0.41374819504E+02 -0.73227473993E+02  0.11936576997E+03  0.14608147753E+03  0.41800000000E+01 0.  1.
         -5    1    1    2    0  502 -0.12535371799E+02  0.43449199854E+02  0.99883562781E+02  0.10972313807E+03  0.41800000000E+01 0.  1.
        -11    1    3    3    0    0  0.31997103559E+01  0.15706370255E+02 -0.10882324784E+02  0.19374034315E+02  0.00000000000E+00 0.  1.
         11    1    3    3    0    0 -0.32039158061E+02  0.14071903884E+02  0.13883860743E+03  0.14318060288E+03  0.00000000000E+00 0. -1.
</event>
<event>
 7    1  0.5831876E-006  0.1414040E+03  0.7561462E-02  0.1211452E+00
         -1   -1    0    0    0  501 -0.00000000000E+00  0.00000000000E+00  0.11961990201E+03  0.11961990201E+03  0.00000000000E+00 0.  1.
          1   -1    0    0  501    0  0.00000000000E+00 -0.00000000000E+00 -0.19669354975E+03  0.19669354975E+03  0.00000000000E+00 0. -1.
         23    2    1    2    0    0 -0.83686971889E+02  0.51655104519E+02  0.10348922293E+02  0.13475974478E+03  0.91549601493E+02 0.  0.
          5    1    1    2  502    0  0.11075098545E+03 -0.56653763875E+02 -0.48245152853E+02  0.13349343397E+03  0.41800000000E+01 0.  1.
         -5    1    1    2    0  502 -0.27064013559E+02  0.49986593566E+01 -0.39177417184E+02  0.48060273017E+02  0.41800000000E+01 0.  1.
        -11    1    3    3    0    0  0.16326103456E+02  0.19528084293E+02 -0.10723916162E+02  0.27620465385E+02  0.00000000000E+00 0.  1.
         11    1    3    3    0    0 -0.10001307535E+03  0.32127020226E+02  0.21072838455E+02  0.10713927939E+03  0.00000000000E+00 0. -1.
</event>
<event>
 7    1  0.5831876E-006  0.1044235E+03  0.7561462E-02  0.1271260E+00
         -2   -1    0    0    0  501 -0.00000000000E+00  0.00000000000E+00  0.17405057440E+02  0.17405057440E+02  0.00000000000E+00 0.  1.
          2   -1    0    0  501    0  0.00000000000E+00 -0.00000000000E+00 -0.85149291063E+03  0.85149291063E+03  0.00000000000E+00 0. -1.
         23    2    1    2    0    0 -0.42963150668E+02 -0.19735041488E+01 -0.20611894248E+03  0.22966231541E+03  0.91706235535E+02 0.  0.
          5    1    1    2  502    0  0.39542149376E+02 -0.51843170551E+02 -0.35399298048E+03  0.35997194132E+03  0.41800000000E+01 0. -1.
         -5    1    1    2    0  502  0.34210012912E+01  0.53816674699E+02 -0.27397593023E+03  0.27926371134E+03  0.41800000000E+01 0.  1.
        -11    1    3    3    0    0 -0.59304462567E+02  0.19510567942E+02 -0.84370022442E+02  0.10495704945E+03  0.00000000000E+00 0.  1.
         11    1    3    3    0    0  0.16341311899E+02 -0.21484072091E+02 -0.12174892004E+03  0.12470526597E+03  0.00000000000E+00 0. -1.
</event>
<event>
 7    1  0.5831876E-006  0.9247268E+02  0.7561462E-02  0.1296972E+00
          3   -1    0    0  501    0  0.00000000000E+00  0.00000000000E+00  0.15864788179E+03  0.15864788179E+03  0.00000000000E+00 0. -1.
         -3   -1    0    0    0  501 -0.00000000000E+00 -0.00000000000E+00 -0.74543249691E+02  0.74543249691E+02  0.00000000000E+00 0.  1.
         23    2    1    2    0    0  0.26358105503E+01  0.10826667781E+02  0.28125287814E+02  0.95690221256E+02  0.90782280192E+02 0.  0.
          5    1    1    2  502    0  0.49355780053E+02 -0.24487013108E+02  0.62230949754E+02  0.83221213299E+02  0.41800000000E+01 0.  1.
         -5    1    1    2    0  502 -0.51991590603E+02  0.13660345327E+02 -0.62516054661E+01  0.54279696930E+02  0.41800000000E+01 0.  1.
        -11    1    3    3    0    0  0.37333170641E+02 -0.49436682954E+01  0.40801382811E+02  0.55524393969E+02  0.00000000000E+00 0. -1.
         11    1    3    3    0    0 -0.34697360091E+02  0.15770336076E+02 -0.12676094997E+02  0.40165827287E+02  0.00000000000E+00 0.  1.
</event>
<event>
 7    1  0.5831876E-006  0.9058296E+02  0.7561462E-02  0.1301446E+00
          2   -1    0    0  501    0  0.00000000000E+00  0.00000000000E+00  0.41937416136E+02  0.41937416136E+02  0.00000000000E+00 0. -1.
         -2   -1    0    0    0  501 -0.00000000000E+00 -0.00000000000E+00 -0.39513695743E+03  0.39513695743E+03  0.00000000000E+00 0.  1.
         23    2    1    2    0    0  0.17622879158E+02 -0.23193187667E+01 -0.26994810473E+03  0.28576498618E+03  0.92052718426E+02 0.  0.
          5    1    1    2  502    0  0.14956754165E+02  0.46472568222E+02 -0.82875802310E+02  0.96277074638E+02  0.41800000000E+01 0. -1.
         -5    1    1    2    0  502 -0.32579633323E+02 -0.44153249455E+02 -0.37563424829E+00  0.55032312744E+02  0.41800000000E+01 0. -1.
        -11    1    3    3    0    0 -0.29594652619E+02  0.23527765926E+01 -0.34194434192E+02  0.45283974550E+02  0.00000000000E+00 0. -1.
         11    1    3    3    0    0  0.47217531777E+02 -0.46720953592E+01 -0.23575367054E+03  0.24048101163E+03  0.00000000000E+00 0.  1.
</event>
<event>
 7    1  0.5831876E-006  0.1399185E+03  0.7561462E-02  0.1213439E+00
          1   -1    0    0  501    0  0.00000000000E+00  0.00000000000E+00  0.24872602241E+03  0.24872602241E+03  0.00000000000E+00 0. -1.
         -1   -1    0    0    0  501 -0.00000000000E+00 -0.00000000000E+00 -0.98934071439E+02  0.98934071439E+02  0.00000000000E+00 0.  1.
         23    2    1    2    0    0  0.10047158100E+03  0.34408467606E+02  0.14057804925E+02  0.14151319302E+03  0.92465564868E+02 0.  0.
          5    1    1    2  502    0  0.13996010640E+02  0.19937614414E+02  0.41025982641E+02  0.47895724590E+02  0.41800000000E+01 0. -1.
         -5    1    1    2    0  502 -0.11446759164E+03 -0.54346082020E+02  0.94708163405E+02  0.15825117624E+03  0.41800000000E+01 0.  1.
        -11    1    3    3    0    0  0.70013058797E+02  0.57109593102E+02  0.36439162171E+02  0.97422515704E+02  0.00000000000E+00 0. -1.
         11    1    3    3    0    0  0.30458522205E+02 -0.22701125495E+02 -0.22381357246E+02  0.44090677312E+02  0.00000000000E+00 0.  1.
</event>
<event>
 7    1  0.5831876E-006  0.2106622E+03  0.7561462E-02  0.1141043E+00
         -2   -1    0    0    0  501 -0.00000000000E+00  0.00000000000E+00  0.71896873402E+02  0.71896873402E+02  0.00000000000E+00 0. -1.
          2   -1    0    0  501    0  0.00000000000E+00 -0.00000000000E+00 -0.66604443062E+03  0.66604443062E+03  0.00000000000E+00 0.  1.
         23    2    1    2    0    0 -0.27324803655E+02 -0.18514615160E+03 -0.23106972133E+03  0.31074080245E+03  0.90226868746E+02 0.  0.
          5    1    1    2  502    0 -0.20294799543E+02 -0.94066469030E+01 -0.57134707079E+02  0.61499683311E+02  0.41800000000E+01 0.  1.
         -5    1    1    2    0  502  0.47619603198E+02  0.19455279850E+03 -0.30594312881E+03  0.36570081826E+03  0.41800000000E+01 0.  1.
        -11    1    3    3    0    0 -0.38712456839E+02 -0.18246967528E+03 -0.23343390599E+03  0.29880633390E+03  0.00000000000E+00 0.  1.
         11    1    3    3    0    0  0.11387653184E+02 -0.26764763151E+01  0.23641846568E+01  0.11934468551E+02  0.00000000000E+00 0. -1.
</event>
<event>
 7    1  0.5831876E-006  0.1067349E+03  0.7561462E-02  0.1266739E+00
         -2   -1    0    0    0  501 -0.00000000000E+00  0.00000000000E+00  0.54661163049E+03  0.54661163049E+03  0.00000000000E+00 0.  1.
          2   -1    0    0  501    0  0.00000000000E+00 -0.00000000000E+00 -0.37108220534E+02  0.37108220534E+02  0.00000000000E+00 0. -1.
         23    2    1    2    0    0  0.25510890613E+02 -0.85891386254E+02  0.27930390803E+03  0.30682658025E+03  0.90020783912E+02 0.  0.
          5    1    1    2  502    0 -0.24286853278E+02  0.22092397067E+02  0.20580741593E+03  0.20845164931E+03  0.41800000000E+01 0. -1.
         -5    1    1    2    0  502 -0.12240373353E+01  0.63798989187E+02  0.24392086000E+02  0.68441621460E+02  0.41800000000E+01 0. -1.
        -11    1    3    3    0    0 -0.24826591904E+02 -0.45712071517E+02  0.66142554255E+02  0.84147433896E+02  0.00000000000E+00 0. -1.
         11    1    3    3    0    0  0.50337482517E+02 -0.40179314736E+02  0.21316135377E+03  0.22267914635E+03  0.00000000000E+00 0.  1.
</event>
<event>
 7    1  0.5831876E-006  0.3298658E+03  0.7561462E-02  0.1071196E+00
         -2   -1    0    0    0  501 -0.00000000000E+00  0.00000000000E+00  0.32834090115E+03  0.32834090115E+03  0.00000000000E+00 0.  1.
          2   -1    0    0  501    0  0.00000000000E+00 -0.00000000000E+00 -0.57978768506E+03  0.57978768506E+03  0.00000000000E+00 0. -1.
         23    2    1    2    0    0 -0.74477718770E+01 -0.31338972999E+03  0.16622275848E+03  0.36599941048E+03  0.89760630914E+02 0.  0.
          5    1    1    2  502    0  0.64659781356E+02  0.23764755363E+03 -0.26085269559E+03  0.35877409085E+03  0.41800000000E+01 0. -1.
         -5    1    1    2    0  502 -0.57212009479E+02  0.75742176363E+02 -0.15681684681E+03  0.18335508488E+03  0.41800000000E+01 0.  1.
        -11    1    3    3    0    0  0.23501107786E+02 -0.97135130094E+02  0.90397815580E+02  0.13475644930E+03  0.00000000000E+00 0.  1.
         11    1    3    3    0    0 -0.30948879663E+02 -0.21625459990E+03  0.75824942902E+02  0.23124296118E+03  0.00000000000E+00 0. -1.
</event>
<event>
 7    1  0.5831876E-006  0.1386406E+03  0.7561462E-02  0.1215170E+00
          2   -1    0    0  501    0  0.00000000000E+00  0.00000000000E+00  0.91156564979E+03  0.91156564979E+03  0.00000000000E+00 0. -1.
         -2   -1    0    0    0  501 -0.00000000000E+00 -0.00000000000E+00 -0.36493763377E+02  0.36493763377E+02  0.00000000000E+00 0.  1.
         23    2    1    2    0    0  0.11752718280E+03 -0.27263269402E+01  0.18651183032E+03  0.23842277045E+03  0.90767191583E+02 0.  0.
          5    1    1    2  502    0 -0.98949100964E+02  0.23020062434E+02  0.24576013880E+03  0.26596309158E+03  0.41800000000E+01 0. -1.
         -5    1    1    2    0  502 -0.18578081834E+02 -0.20293735493E+02  0.44279991729E+03  0.44367355114E+03  0.41800000000E+01 0. -1.
        -11    1    3    3    0    0  0.37608662030E+01  0.29336517088E+02  0.47474508069E+02  0.55933927681E+02  0.00000000000E+00 0. -1.
         11    1    3    3    0    0  0.11376631659E+03 -0.32062844028E+02  0.13903732225E+03  0.18248884277E+03  0.00000000000E+00 0.  1.
</event>
<event>
 7    1  0.5831876E-006  0.8228073E+02  0.7561462E-02  0.1322701E+00
         -2   -1    0    0    0  501 -0.00000000000E+00  0.00000000000E+00  0.54216561879E+02  0.54216561879E+02  0.00000000000E+00 0.  1.
          2   -1    0    0  501    0  0.00000000000E+00 -0.00000000000E+00 -0.33386521199E+03  0.33386521199E+03  0.00000000000E+00 0. -1.
         23    2    1    2    0    0  0.68693337923E+02  0.27454504173E+02 -0.96893263942E+02  0.15458726735E+03  0.95059950320E+02 0.  0.
          5    1    1    2  502    0 -0.30761042513E+02  0.14124005647E+02  0.76058162004E+01  0.34943527471E+02  0.41800000000E+01 0. -1.
         -5    1    1    2    0  502 -0.37932295410E+02 -0.41578509820E+02 -0.19036120236E+03  0.19855097904E+03  0.41800000000E+01 0. -1.
        -11    1    3    3    0    0  0.23159103918E+02  0.79852994412E+01  0.17385828552E+02  0.30039576160E+02  0.00000000000E+00 0.  1.
         11    1    3    3    0    0  0.45534234005E+02  0.19469204731E+02 -0.11427909249E+03  0.12454769119E+03  0.00000000000E+00 0. -1.
</event>
<event>
 7    1  0.5831876E-006  0.1495203E+03  0.7561462E-02  0.1201064E+00
         -1   -1    0    0    0  501 -0.00000000000E+00  0.00000000000E+00  0.42161317506E+02  0.42161317506E+02  0.00000000000E+00 0.  1.
          1   -1    0    0  501    0  0.00000000000E+00 -0.00000000000E+00 -0.65098691811E+03  0.65098691811E+03  0.00000000000E+00 0. -1.
         23    2    1    2    0    0 -0.32520988153E+02  0.11863813288E+03 -0.23955138022E+03  0.28432263988E+03  0.91224330851E+02 0.  0.
          5    1    1    2  502    0  0.60422976639E+02 -0.47052546072E+02 -0.85746829603E+02  0.11504290237E+03  0.41800000000E+01 0.  1.
         -5    1    1    2    0  502 -0.27901988485E+02 -0.71585586810E+02 -0.28352739078E+03  0.29378269337E+03  0.41800000000E+01 0.  1.
        -11    1    3    3    0    0  0.18756571908E+02  0.77273864403E+02 -0.17437180763E+03  0.19164703599E+03  0.00000000000E+00 0. -1.
         11    1    3    3    0    0 -0.51277560061E+02  0.41364268479E+02 -0.65179572590E+02  0.92675603886E+02  0.00000000000E+00 0.  1.
</event>
<event>
 7    1  0.5831876E-006  0.1620611E+03  0.7561462E-02  0.1186389E+00
          4   -1    0    0  501    0  0.00000000000E+00  0.00000000000E+00  0.38466338486E+02  0.38466338486E+02  0.00000000000E+00 0. -1.
         -4   -1    0    0    0  501 -0.00000000000E+00 -0.00000000000E+00 -0.69863979159E+03  0.69863979159E+03  0.00000000000E+00 0.  1.
         23    2    1    2    0    0 -0.18502214810E+02  0.11728099986E+03 -0.35796352778E+03  0.38914651852E+03  0.95916425970E+02 0.  0.
          5    1    1    2  502    0  0.63476043869E+02 -0.22567469188E+02 -0.11477856182E+03  0.13315438207E+03  0.41800000000E+01 0.  1.
         -5    1    1    2    0  502 -0.44973829059E+02 -0.94713530669E+02 -0.18743136350E+03  0.21480522949E+03  0.41800000000E+01 0.  1.
        -11    1    3    3    0    0 -0.49981589304E+01  0.13178216205E+03 -0.32422966569E+03  0.35002342199E+03  0.00000000000E+00 0.  1.
         11    1    3    3    0    0 -0.13504055880E+02 -0.14501162195E+02 -0.33733862094E+02  0.39123096528E+02  0.00000000000E+00 0. -1.
</event>
<event>
 7    1  0.5831876E-006  0.2663999E+03  0.7561462E-02  0.1103358E+00
          1   -1    0    0  501    0  0.00000000000E+00  0.00000000000E+00  0.11339274115E+04  0.11339274115E+04  0.00000000000E+00 0. -1.
         -1   -1    0    0    0  501 -0.00000000000E+00 -0.00000000000E+00 -0.70397804535E+02  0.70397804535E+02  0.00000000000E+00 0.  1.
         23    2    1    2    0    0 -0.24152417202E+03 -0.90381697109E+02  0.44014775536E+03  0.51820940988E+03  0.91149158491E+02 0.  0.
          5    1    1    2  502    0  0.81554192542E+01 -0.11318114366E+02  0.21301563592E+01  0.14718034588E+02  0.41800000000E+01 0.  1.
         -5    1    1    2    0  502  0.23336875277E+03  0.10169981148E+03  0.62125169521E+03  0.67139777153E+03  0.41800000000E+01 0.  1.
        -11    1    3    3    0    0 -0.11366095172E+03 -0.71775204299E+02  0.15512284887E+03  0.20526468313E+03  0.00000000000E+00 0.  1.
         11    1    3    3    0    0 -0.12786322030E+03 -0.18606492810E+02  0.28502490649E+03  0.31294472675E+03  0.00000000000E+00 0. -1.
</event>
<event>
 7    1  0.5831876E-006  0.1078187E+03  0.7561462E-02  0.1264663E+00
          2   -1    0    0  501    0  0.00000000000E+00  0.00000000000E+00  0.33518895006E+03  0.33518895006E+03  0.00000000000E+00 0. -1.
         -2   -1    0    0    0  501 -0.00000000000E+00 -0.00000000000E+00 -0.44813264994E+02  0.44813264994E+02  0.00000000000E+00 0.  1.
         23    2    1    2    0    0  0.43124428227E+02 -0.40901033098E+01  0.82274031409E+02  0.13336293091E+03  0.95604444674E+02 0.  0.
          5    1    1    2  502    0 -0.41324785991E+02 -0.57283280311E+02  0.10697213239E+03  0.12825607840E+03  0.41800000000E+01 0.  1.
         -5    1    1    2    0  502 -0.17996422363E+01  0.61373383621E+02  0.10112952127E+03  0.11838320574E+03  0.41800000000E+01 0.  1.
        -11    1    3    3    0    0  0.33657479867E+02 -0.36455514230E+02  0.60141454392E+01  0.49980000141E+02  0.00000000000E+00 0.  1.
         11    1    3    3    0    0  0.94669483605E+01  0.32365410920E+02  0.76259885970E+02  0.83382930768E+02  0.00000000000E+00 0. -1.
</event>
<event>
 7    1  0.5831876E-006  0.1426289E+03  0.7561462E-02  0.1209835E+00
         -1   -1    0    0    0  501 -0.00000000000E+00  0.00000000000E+00  0.36868260090E+03  0.36868260090E+03  0.00000000000E+00 0.  1.
          1   -1    0    0  501    0  0.00000000000E+00 -0.00000000000E+00 -0.69433479824E+02  0.69433479824E+02  0.00000000000E+00 0. -1.
         23    2    1    2    0    0  0.99098799915E+02 -0.59642811613E+02  0.16036364535E+03  0.21831331335E+03  0.92554669879E+02 0.  0.
          5    1    1    2  502    0 -0.17712372462E+02 -0.35516067456E+02  0.12442424899E+02  0.41801979895E+02  0.41800000000E+01 0. -1.
         -5    1    1    2    0  502 -0.81386427453E+02  0.95158879069E+02  0.12644305083E+03  0.17800078748E+03  0.41800000000E+01 0. -1.
        -11    1    3    3    0    0  0.17127435418E+02  0.23549826724E+01 -0.95375121231E+01  0.19744850592E+02  0.00000000000E+00 0. -1.
         11    1    3    3    0    0  0.81971364497E+02 -0.61997794286E+02  0.16990115747E+03  0.19856846276E+03  0.00000000000E+00 0.  1.
</event>
<event>
 7    1  0.5831876E-006  0.1941334E+03  0.7561462E-02  0.1154785E+00
          1   -1    0    0  501    0  0.00000000000E+00  0.00000000000E+00  0.60901913042E+03  0.60901913042E+03  0.00000000000E+00 0. -1.
         -1   -1    0    0    0  501 -0.00000000000E+00 -0.00000000000E+00 -0.83280644040E+02  0.83280644040E+02  0.00000000000E+00 0.  1.
         23    2    1    2    0    0  0.70535959780E+02 -0.15598495445E+03  0.10286937534E+03  0.21925415072E+03  0.90463509699E+02 0.  0.
          5    1    1    2  502    0 -0.87229540664E+02  0.85950204028E+02  0.34866850725E+03  0.36957222661E+03  0.41800000000E+01 0.  1.
         -5    1    1    2    0  502  0.16693580884E+02  0.70034750427E+02  0.74200603792E+02  0.10347339713E+03  0.41800000000E+01 0.  1.
        -11    1    3    3    0    0  0.29821089969E+02 -0.14943222578E+03  0.81691987770E+02  0.17289554180E+03  0.00000000000E+00 0.  1.
         11    1    3    3    0    0  0.40714869811E+02 -0.65527286756E+01  0.21177387571E+02  0.46358608922E+02  0.00000000000E+00 0. -1.
</event>
<event>
 7    1  0.5831876E-006  0.9122560E+02  0.7561462E-02  0.1299911E+00
         -2   -1    0    0    0  501 -0.00000000000E+00  0.00000000000E+00  0.56623203743E+02  0.56623203743E+02  0.00000000000E+00 0.  1.
          2   -1    0    0  501    0  0.00000000000E+00 -0.00000000000E+00 -0.45618259915E+03  0.45618259915E+03  0.00000000000E+00 0. -1.
         23    2    1    2    0    0 -0.41085328003E+02 -0.59830035497E+02 -0.37626854307E+02  0.12304879542E+03  0.91965148641E+02 0.  0.
          5    1    1    2  502    0  0.25091580529E+02  0.16812916429E+02 -0.62804310411E+01  0.31131620362E+02  0.41800000000E+01 0. -1.
         -5    1    1    2    0  502  0.15993747473E+02  0.43017119068E+02 -0.35565211006E+03  0.35862538712E+03  0.41800000000E+01 0. -1.
        -11    1    3    3    0    0  0.17505907249E+01 -0.62905044154E+02 -0.47667036890E+02  0.78944636004E+02  0.00000000000E+00 0. -1.
         11    1    3    3    0    0 -0.42835918727E+02  0.30750086570E+01  0.10040182583E+02  0.44104159416E+02  0.00000000000E+00 0.  1.
</event>
<event>
 7    1  0.5831876E-006  0.1741941E+03  0.7561462E-02  0.1173543E+00
         -2   -1    0    0    0  501 -0.00000000000E+00  0.00000000000E+00  0.50838136709E+02  0.50838136709E+02  0.00000000000E+00 0.  1.
          2   -1    0    0  501    0  0.00000000000E+00 -0.00000000000E+00 -0.67167789913E+03  0.67167789913E+03  0.00000000000E+00 0. -1.
         23    2    1    2    0    0 -0.14736941615E+03 -0.20997875897E+02 -0.26631601821E+03  0.31817335918E+03  0.90285155614E+02 0.  0.
          5    1    1    2  502    0  0.15857063355E+03  0.27952736037E+02 -0.35569233697E+03  0.39046192164E+03  0.41800000000E+01 0. -1.
         -5    1    1    2    0  502 -0.11201217397E+02 -0.69548601400E+01  0.11685927599E+01  0.13880755015E+02  0.41800000000E+01 0. -1.
        -11    1    3    3    0    0 -0.14290985018E+03 -0.44412069891E+02 -0.23825461653E+03  0.28135550381E+03  0.00000000000E+00 0. -1.
         11    1    3    3    0    0 -0.44595659768E+01  0.23414193994E+02 -0.28061401686E+02  0.36817855365E+02  0.00000000000E+00 0.  1.
</event>
<event>
 7    1  0.5831876E-006  0.1560609E+03  0.7561462E-02  0.1193217E+00
          2   -1    0    0  501    0  0.00000000000E+00  0.00000000000E+00  0.22834352033E+03  0.22834352033E+03  0.00000000000E+00 0. -1.
         -2   -1    0    0    0  501 -0.00000000000E+00 -0.00000000000E+00 -0.15199217834E+03  0.15199217834E+03  0.00000000000E+00 0.  1.
         23    2    1    2    0    0 -0.81721541035E+02  0.11752708722E+03 -0.10632919478E+02  0.17127726149E+03  0.93444180277E+02 0.  0.
          5    1    1    2  502    0  0.35957802659E+01  0.64381881722E+01 -0.23832721160E+02  0.25295274273E+02  0.41800000000E+01 0.  1.
         -5    1    1    2    0  502  0.78125760769E+02 -0.12396527539E+03  0.11081698263E+03  0.18376316290E+03  0.41800000000E+01 0.  1.
        -11    1    3    3    0    0 -0.34488155911E+02  0.10146466083E+03  0.24908124587E+02  0.11002238393E+03  0.00000000000E+00 0. -1.
         11    1    3    3    0    0 -0.47233385124E+02  0.16062426394E+02 -0.35541044065E+02  0.61254877563E+02  0.00000000000E+00 0.  1.
</event>
<event>
 7    1  0.5831876E-006  0.2743984E+03  0.7561462E-02  0.1098788E+00
          2   -1    0    0  501    0  0.00000000000E+00  0.00000000000E+00  0.12602196449E+03  0.12602196449E+03  0.00000000000E+00 0.  1.
         -2   -1    0    0    0  501 -0.00000000000E+00 -0.00000000000E+00 -0.61285729092E+03  0.61285729092E+03  0.00000000000E+00 0. -1.
         23    2    1    2    0    0  0.29114018670E+01  0.25482886817E+03 -0.21435653513E+03  0.34538294302E+03  0.91621093984E+02 0.  0.
          5    1    1    2  502    0 -0.37830966416E+02 -0.23505428096E+02 -0.19198482779E+02  0.48679988814E+02  0.41800000000E+01 0.  1.
         -5    1    1    2    0  502  0.34919564549E+02 -0.23132344007E+03 -0.25328030852E+03  0.34481632357E+03  0.41800000000E+01 0.  1.
        -11    1    3    3    0    0 -0.36777700167E+02  0.53784941066E+02 -0.41132001077E+02  0.77053621768E+02  0.00000000000E+00 0.  1.
         11    1    3    3    0    0  0.39689102034E+02  0.20104392711E+03 -0.17322453405E+03  0.26832932125E+03  0.00000000000E+00 0. -1.
</event>
<event>
 7    1  0.5831876E-006  0.1080260E+03  0.7561462E-02  0.1264270E+00
         -1   -1    0    0    0  501 -0.00000000000E+00  0.00000000000E+00  0.94411043580E+02  0.94411043580E+02  0.00000000000E+00 0.  1.
          1   -1    0    0  501    0  0.00000000000E+00 -0.00000000000E+00 -0.14481267917E+03  0.14481267917E+03  0.00000000000E+00 0. -1.
         23    2    1    2    0    0  0.92330101883E+01 -0.44545114741E+02 -0.15078284009E+02  0.10151074041E+03  0.89484971060E+02 0.  0.
          5    1    1    2  502    0  0.25438377484E+02 -0.28897984740E+02  0.15613240527E+02  0.41754643464E+02  0.41800000000E+01 0.  1.
         -5    1    1    2    0  502 -0.34671387672E+02  0.73443099481E+02 -0.50936592111E+02  0.95958338878E+02  0.41800000000E+01 0.  1.
        -11    1    3    3    0    0  0.26605057692E+02  0.17319438175E+02 -0.19236084956E+02  0.37118984333E+02  0.00000000000E+00 0. -1.
         11    1    3    3    0    0 -0.17372047503E+02 -0.61864552917E+02  0.41578009467E+01  0.64391756077E+02  0.00000000000E+00 0.  1.
</event>
<event>
 7    1  0.5831876E-006  0.1411044E+03  0.7561462E-02  0.1211851E+00
          1   -1    0    0  501    0  0.00000000000E+00  0.00000000000E+00  0.11173957954E+03  0.11173957954E+03  0.00000000000E+00 0. -1.
         -1   -1    0    0    0  501 -0.00000000000E+00 -0.00000000000E+00 -0.19998624535E+03  0.19998624535E+03  0.00000000000E+00 0.  1.
         23    2    1    2    0    0 -0.75422701181E+02  0.64464123823E+02 -0.66471400902E+02  0.15058487801E+03  0.91723231697E+02 0.  0.
          5    1    1    2  502    0  0.89264245535E+02 -0.77533227891E+01 -0.42233649999E+02  0.99143195114E+02  0.41800000000E+01 0. -1.
         -5    1    1    2    0  502 -0.13841544353E+02 -0.56710801034E+02  0.20458385089E+02  0.61997751769E+02  0.41800000000E+01 0. -1.
        -11    1    3    3    0    0 -0.90971110596E+02  0.29358440544E+02 -0.56004879810E+02  0.11078902273E+03  0.00000000000E+00 0. -1.
         11    1    3    3    0    0  0.15548409414E+02  0.35105683279E+02 -0.10466521092E+02  0.39795855281E+02  0.00000000000E+00 0.  1.
</event>
<event>
 7    1  0.5831876E-006  0.1460001E+03  0.7561462E-02  0.1205476E+00
          2   -1    0    0  501    0  0.00000000000E+00  0.00000000000E+00  0.10083484575E+04  0.10083484575E+04  0.00000000000E+00 0. -1.
         -2   -1    0    0    0  501 -0.00000000000E+00 -0.00000000000E+00 -0.24317996461E+02  0.24317996461E+02  0.00000000000E+00 0.  1.
         23    2    1    2    0    0  0.48925875477E+02  0.63312507419E+02  0.29813700556E+03  0.31983559879E+03  0.83707354989E+02 0.  0.
          5    1    1    2  502    0  0.95267241447E+01  0.48693571654E+02  0.35744304363E+03  0.36089447797E+03  0.41800000000E+01 0. -1.
         -5    1    1    2    0  502 -0.58452599622E+02 -0.11200607907E+03  0.32845041182E+03  0.35193637717E+03  0.41800000000E+01 0.  1.
        -11    1    3    3    0    0  0.14919561230E+02 -0.20496785573E+02  0.64944409774E+02  0.69717199363E+02  0.00000000000E+00 0.  1.
         11    1    3    3    0    0  0.34006314248E+02  0.83809292991E+02  0.23319259579E+03  0.25011839942E+03  0.00000000000E+00 0. -1.
</event>
<event>
 7    1  0.5831876E-006  0.1120943E+03  0.7561462E-02  0.1256740E+00
          1   -1    0    0  501    0  0.00000000000E+00  0.00000000000E+00  0.46294830650E+03  0.46294830650E+03  0.00000000000E+00 0. -1.
         -1   -1    0    0    0  501 -0.00000000000E+00 -0.00000000000E+00 -0.32155560614E+02  0.32155560614E+02  0.00000000000E+00 0.  1.
         23    2    1    2    0    0 -0.49805017953E+02  0.13546341397E+02  0.11189852737E+03  0.15376923328E+03  0.91976374663E+02 0.  0.
          5    1    1    2  502    0  0.15676800971E+02 -0.59324149921E+02  0.20229811005E+03  0.21144056986E+03  0.41800000000E+01 0. -1.
         -5    1    1    2    0  502  0.34128216982E+02  0.45777808523E+02  0.11659610847E+03  0.12989406398E+03  0.41800000000E+01 0.  1.
        -11    1    3    3    0    0 -0.63162702385E+02  0.40722381739E+02  0.81546932118E+02  0.11089518242E+03  0.00000000000E+00 0.  1.
         11    1    3    3    0    0  0.13357684432E+02 -0.27176040342E+02  0.30351595251E+02  0.42874050851E+02  0.00000000000E+00 0. -1.
</event>
<event>
 7    1  0.5831876E-006  0.8331231E+02  0.7561462E-02  0.1319906E+00
         -2   -1    0    0    0  501 -0.00000000000E+00  0.00000000000E+00  0.29321932498E+02  0.29321932498E+02  0.00000000000E+00 0.  1.
          2   -1    0    0  501    0  0.00000000000E+00 -0.00000000000E+00 -0.61735861577E+03  0.61735861577E+03  0.00000000000E+00 0. -1.
         23    2    1    2    0    0  0.64439787567E+02 -0.49428162057E+02 -0.22013374017E+03  0.24969750664E+03  0.85406977675E+02 0.  0.
          5    1    1    2  502    0 -0.14903920657E+02  0.18971159283E+02 -0.32160505478E+03  0.32253575832E+03  0.41800000000E+01 0.  1.
         -5    1    1    2    0  502 -0.49535866911E+02  0.30457002774E+02 -0.46297888322E+02  0.74447283306E+02  0.41800000000E+01 0.  1.
        -11    1    3    3    0    0  0.34424572378E+02 -0.13384677370E+02 -0.16012790129E+02  0.40256803393E+02  0.00000000000E+00 0. -1.
         11    1    3    3    0    0  0.30015215189E+02 -0.36043484687E+02 -0.20412095004E+03  0.20944070325E+03  0.00000000000E+00 0.  1.
</event>
<event>
 7    1  0.5831876E-006  0.2114638E+03  0.7561462E-02  0.1140412E+00
          1   -1    0    0  501    0  0.00000000000E+00  0.00000000000E+00  0.36958767788E+03  0.36958767788E+03  0.00000000000E+00 0. -1.
         -1   -1    0    0    0  501 -0.00000000000E+00 -0.00000000000E+00 -0.13713150742E+03  0.13713150742E+03  0.00000000000E+00 0.  1.
         23    2    1    2    0    0 -0.77582914001E+02 -0.18039437677E+03  0.10711887055E+03  0.24229841530E+03  0.93128029679E+02 0.  0.
          5    1    1    2  502    0  0.92479509014E+02  0.90623649375E+02  0.30844541275E+02  0.13316892858E+03  0.41800000000E+01 0. -1.
         -5    1    1    2    0  502 -0.14896595013E+02  0.89770727399E+02  0.94492758641E+02  0.13125184142E+03  0.41800000000E+01 0. -1.
        -11    1    3    3    0    0 -0.79072389007E+01 -0.78202031913E+02  0.86550619008E+02  0.11691489158E+03  0.00000000000E+00 0.  1.
         11    1    3    3    0    0 -0.69675675100E+02 -0.10219234486E+03  0.20568251542E+02  0.12538352372E+03  0.00000000000E+00 0. -1.
</event>
<event>
 7    1  0.5831876E-006  0.1016478E+03  0.7561462E-02  0.1276869E+00
          1   -1    0    0  501    0  0.00000000000E+00  0.00000000000E+00  0.21452370279E+03  0.21452370279E+03  0.00000000000E+00 0. -1.
         -1   -1    0    0    0  501 -0.00000000000E+00 -0.00000000000E+00 -0.63859162514E+02  0.63859162514E+02  0.00000000000E+00 0.  1.
         23    2    1    2    0    0  0.12221515304E+02 -0.36614722249E+02  0.54404189127E+02  0.11589081467E+03  0.94767409005E+02 0.  0.
          5    1    1    2  502    0 -0.68354339891E+02  0.14101611561E+02  0.57613463766E+02  0.90597763977E+02  0.41800000000E+01 0. -1.
         -5    1    1    2    0  502  0.56132824587E+02  0.22513110688E+02  0.38646887382E+02  0.71894286652E+02  0.41800000000E+01 0. -1.
        -11    1    3    3    0    0 -0.24723687393E+02 -0.21752358886E+02 -0.14755577991E+02  0.36085355995E+02  0.00000000000E+00 0.  1.
         11    1    3    3    0    0  0.36945202697E+02 -0.14862363362E+02  0.69159767119E+02  0.79805458679E+02  0.00000000000E+00 0. -1.
</event>
<event>
 7    1  0.5831876E-006  0.1246936E+03  0.7561462E-02  0.1235549E+00
         -2   -1    0    0    0  501 -0.00000000000E+00  0.00000000000E+00  0.27479449709E+02  0.27479449709E+02  0.00000000000E+00 0. -1.
          2   -1    0    0  501    0  0.00000000000E+00 -0.00000000000E+00 -0.70673877235E+03  0.70673877235E+03  0.00000000000E+00 0.  1.
         23    2    1    2    0    0  0.65876132616E+02  0.57134775091E+02 -0.30651204612E+03  0.33148686256E+03  0.91268057180E+02 0.  0.
          5    1    1    2  502    0 -0.34226927154E+02  0.35485680599E+02 -0.80393695848E+02  0.94399866537E+02  0.41800000000E+01 0.  1.
         -5    1    1    2    0  502 -0.31649205462E+02 -0.92620455690E+02 -0.29235358067E+03  0.30833149296E+03  0.41800000000E+01 0.  1.
        -11    1    3    3    0    0  0.27662576675E+02  0.57408478076E+02 -0.27400128160E+03  0.28131415503E+03  0.00000000000E+00 0.  1.
         11    1    3    3    0    0  0.38213555941E+02 -0.27370298502E+00 -0.32510764515E+02  0.50172707524E+02  0.00000000000E+00 0. -1.
</event>
<event>
 7    1  0.5831876E-006  0.1895004E+03  0.7561462E-02  0.1158913E+00
         -2   -1    0    0    0  501 -0.00000000000E+00  0.00000000000E+00  0.47729669978E+02  0.47729669978E+02  0.00000000000E+00 0.  1.
          2   -1    0    0  501    0  0.00000000000E+00 -0.00000000000E+00 -0.85632136210E+03  0.85632136210E+03  0.00000000000E+00 0. -1.
         23    2    1    2    0    0  0.15031751683E+03  0.80761508519E+02 -0.39043984731E+03  0.43542058326E+03  0.89610450457E+02 0.  0.
          5    1    1    2  502    0 -0.14624013606E+02 -0.51843620102E+02 -0.22106101826E+03  0.22756772380E+03  0.41800000000E+01 0.  1.
         -5    1    1    2    0  502 -0.13569350322E+03 -0.28917888417E+02 -0.19709082654E+03  0.24106272502E+03  0.41800000000E+01 0.  1.
        -11    1    3    3    0    0  0.80614221932E+02  0.15139774934E+01 -0.22672949701E+03  0.24063916913E+03  0.00000000000E+00 0. -1.
         11    1    3    3    0    0  0.69703294894E+02  0.79247531025E+02 -0.16371035030E+03  0.19478141413E+03  0.00000000000E+00 0.  1.
</event>
<event>
 7    1  0.5831876E-006  0.1028491E+03  0.7561462E-02  0.1274416E+00
         -3   -1    0    0    0  501 -0.00000000000E+00  0.00000000000E+00  0.16057780640E+03  0.16057780640E+03  0.00000000000E+00 0.  1.
          3   -1    0    0  501    0  0.00000000000E+00 -0.00000000000E+00 -0.75066902925E+02  0.75066902925E+02  0.00000000000E+00 0. -1.
         23    2    1    2    0    0 -0.12909660022E+02 -0.21001999444E+01  0.45410444720E+02  0.10363680854E+03  0.92235619112E+02 0.  0.
          5    1    1    2  502    0  0.54551181299E+02  0.30781340096E+02  0.50074805964E+02  0.80301188481E+02  0.41800000000E+01 0. -1.
         -5    1    1    2    0  502 -0.41641521277E+02 -0.28681140151E+02 -0.99743472126E+01  0.51706712301E+02  0.41800000000E+01 0. -1.
        -11    1    3    3    0    0  0.39303260378E+02  0.44935787208E+01  0.12163362903E+02  0.41387026025E+02  0.00000000000E+00 0. -1.
         11    1    3    3    0    0 -0.52212920400E+02 -0.65937786652E+01  0.33247081816E+02  0.62249782514E+02  0.00000000000E+00 0.  1.
</event>
<event>
 7    1  0.5831876E-006  0.8794720E+02  0.7561462E-02  0.1307900E+00
         -2   -1    0    0    0  501 -0.00000000000E+00  0.00000000000E+00  0.30411809735E+02  0.30411809735E+02  0.00000000000E+00 0.  1.
          2   -1    0    0  501    0  0.00000000000E+00 -0.00000000000E+00 -0.45884897797E+03  0.45884897797E+03  0.00000000000E+00 0. -1.
         23    2    1    2    0    0  0.41560769754E+02 -0.14513736741E+02 -0.17936259068E+03  0.20708373086E+03  0.93673830465E+02 0.  0.
          5    1    1    2  502    0 -0.17068779577E+02 -0.37214471367E+02 -0.20691761019E+03  0.21097068498E+03  0.41800000000E+01 0. -1.
         -5    1    1    2    0  502 -0.24491990177E+02  0.51728208108E+02 -0.42156967369E+02  0.71206371869E+02  0.41800000000E+01 0. -1.
        -11    1    3    3    0    0 -0.53217074121E+01  0.18995490263E+02 -0.11216830285E+01  0.19758729537E+02  0.00000000000E+00 0.  1.
         11    1    3    3    0    0  0.46882477166E+02 -0.33509227003E+02 -0.17824090765E+03  0.18732500132E+03  0.00000000000E+00 0. -1.
</event>
<event>
 7    1  0.5831876E-006  0.1229284E+03  0.7561462E-02  0.1238343E+00
         -2   -1    0    0    0  501 -0.00000000000E+00  0.00000000000E+00  0.99681765897E+02  0.99681765897E+02  0.00000000000E+00 0.  1.
          2   -1    0    0  501    0  0.00000000000E+00 -0.00000000000E+00 -0.23495987333E+03  0.23495987333E+03  0.00000000000E+00 0. -1.
         23    2    1    2    0    0  0.66474992230E+02 -0.36112918015E+02  0.18906124990E+02  0.12217044187E+03  0.94048433618E+02 0.  0.
          5    1    1    2  502    0 -0.10379722336E+03  0.30078131659E+02 -0.11470835214E+03  0.15765162870E+03  0.41800000000E+01 0.  1.
         -5    1    1    2    0  502  0.37322231131E+02  0.60347863559E+01 -0.39475880280E+02  0.54819568649E+02  0.41800000000E+01 0.  1.
        -11    1    3    3    0    0  0.11708568364E+02 -0.42915424040E+02  0.43076193664E+02  0.61922392188E+02  0.00000000000E+00 0.  1.
         11    1    3    3    0    0  0.54766423866E+02  0.68025060252E+01 -0.24170068674E+02  0.60248049686E+02  0.00000000000E+00 0. -1.
</event>
<event>
 7    1  0.5831876E-006  0.1827885E+03  0.7561462E-02  0.1165131E+00
          2   -1    0    0  501    0  0.00000000000E+00  0.00000000000E+00  0.12599949800E+03  0.12599949800E+03  0.00000000000E+00 0.  1.
         -2   -1    0    0    0  501 -0.00000000000E+00 -0.00000000000E+00 -0.32068402886E+03  0.32068402886E+03  0.00000000000E+00 0. -1.
         23    2    1    2    0    0  0.59938937558E+02 -0.14864281878E+03 -0.15256708731E+03  0.23905690538E+03  0.90466148761E+02 0.  0.
          5    1    1    2  502    0  0.30829349274E+02  0.30680466820E+02  0.17721896363E+02  0.47151647179E+02  0.41800000000E+01 0. -1.
         -5    1    1    2    0  502 -0.90768286832E+02  0.11796235196E+03 -0.59839339911E+02  0.16047497429E+03  0.41800000000E+01 0. -1.
        -11    1    3    3    0    0  0.70781778346E+01 -0.10270641808E+03 -0.48953807780E+02  0.11399642193E+03  0.00000000000E+00 0. -1.
         11    1    3    3    0    0  0.52860759723E+02 -0.45936400701E+02 -0.10361327953E+03  0.12506048346E+03  0.00000000000E+00 0.  1.
</event>
<event>
 7    1  0.5831876E-006  0.1099343E+03  0.7561462E-02  0.1260692E+00
          2   -1    0    0  501    0  0.00000000000E+00  0.00000000000E+00  0.25698361635E+04  0.25698361635E+04  0.00000000000E+00 0. -1.
         -2   -1    0    0    0  501 -0.00000000000E+00 -0.00000000000E+00 -0.16144892259E+02  0.16144892259E+02  0.00000000000E+00 0.  1.
         23    2    1    2    0    0 -0.32589890731E+02 -0.50716191567E+02  0.19084474771E+03  0.21905773719E+03  0.89052464473E+02 0.  0.
          5    1    1    2  502    0  0.62017144447E+02  0.10601316193E+02  0.19572639839E+04  0.19582794206E+04  0.41800000000E+01 0.  1.
         -5    1    1    2    0  502 -0.29427253716E+02  0.40114875374E+02  0.40558253965E+03  0.40864389798E+03  0.41800000000E+01 0.  1.
        -11    1    3    3    0    0  0.16880837927E+02  0.16382028269E+02  0.52650691725E+02  0.57666531701E+02  0.00000000000E+00 0.  1.
         11    1    3    3    0    0 -0.49470728658E+02 -0.67098219836E+02  0.13819405598E+03  0.16139120549E+03  0.00000000000E+00 0. -1.
</event>
<event>
 7    1  0.5831876E-006  0.2102618E+03  0.7561462E-02  0.1141359E+00
         -1   -1    0    0    0  501 -0.00000000000E+00  0.00000000000E+00  0.40385583709E+02  0.40385583709E+02  0.00000000000E+00 0.  1.
          1   -1    0    0  501    0  0.00000000000E+00 -0.00000000000E+00 -0.11867063641E+04  0.11867063641E+04  0.00000000000E+00 0. -1.
         23    2    1    2    0    0 -0.16805333167E+03  0.87338173630E+02 -0.55451624118E+03  0.59326197128E+03  0.92744951219E+02 0.  0.
          5    1    1    2  502    0  0.16089356934E+01 -0.57071961969E+02 -0.16814132964E+03  0.17761975299E+03  0.41800000000E+01 0. -1.
         -5    1    1    2    0  502  0.16644439598E+03 -0.30266211662E+02 -0.42366320957E+03  0.45621022354E+03  0.41800000000E+01 0. -1.
        -11    1    3    3    0    0 -0.11586843354E+03  0.81238968087E+02 -0.27960960146E+03  0.31337963089E+03  0.00000000000E+00 0. -1.
         11    1    3    3    0    0 -0.52184898129E+02  0.60992055431E+01 -0.27490663972E+03  0.27988234039E+03  0.00000000000E+00 0.  1.
</event>
<event>
 7    1  0.5831876E-006  0.1046189E+03  0.7561462E-02  0.1270872E+00
         -1   -1    0    0    0  501 -0.00000000000E+00  0.00000000000E+00  0.42637086076E+02  0.42637086076E+02  0.00000000000E+00 0.  1.
          1   -1    0    0  501    0  0.00000000000E+00 -0.00000000000E+00 -0.32815084989E+03  0.32815084989E+03  0.00000000000E+00 0. -1.
         23    2    1    2    0    0  0.64315701338E+01 -0.13400779762E+02 -0.57628699778E+02  0.11040271160E+03  0.92987879307E+02 0.  0.
          5    1    1    2  502    0  0.19181974950E+01 -0.54548624918E+02 -0.75320345316E+02  0.93112076449E+02  0.41800000000E+01 0.  1.
         -5    1    1    2    0  502 -0.83497676288E+01  0.67949404680E+02 -0.15256471872E+03  0.16727314792E+03  0.41800000000E+01 0.  1.
        -11    1    3    3    0    0 -0.23617515271E+01  0.35824927019E+02 -0.47231934286E+02  0.59328398618E+02  0.00000000000E+00 0. -1.
         11    1    3    3    0    0  0.87933216609E+01 -0.49225706781E+02 -0.10396765493E+02  0.51074312983E+02  0.00000000000E+00 0.  1.
</event>
<event>
 7    1  0.5831876E-006  0.8923188E+02  0.7561462E-02  0.1304723E+00
          1   -1    0    0  501    0  0.00000000000E+00  0.00000000000E+00  0.48394886241E+02  0.48394886241E+02  0.00000000000E+00 0. -1.
         -1   -1    0    0    0  501 -0.00000000000E+00 -0.00000000000E+00 -0.34208937932E+03  0.34208937932E+03  0.00000000000E+00 0.  1.
         23    2    1    2    0    0  0.50256953657E+02 -0.10145832532E+02 -0.20027667068E+03  0.22615488866E+03  0.91687455711E+02 0.  0.
          5    1    1    2  502    0 -0.64513919114E+01 -0.26526887091E+02  0.22111088444E+02  0.35378931987E+02  0.41800000000E+01 0.  1.
         -5    1    1    2    0  502 -0.43805561746E+02  0.36672719623E+02 -0.11552891084E+03  0.12895044492E+03  0.41800000000E+01 0.  1.
        -11    1    3    3    0    0  0.67409026501E+02  0.88291521004E+01 -0.89105096288E+02  0.11207876233E+03  0.00000000000E+00 0. -1.
         11    1    3    3    0    0 -0.17152072843E+02 -0.18974984632E+02 -0.11117157440E+03  0.11407612633E+03  0.00000000000E+00 0.  1.
</event>
<event>
 7    1  0.5831876E-006  0.9816332E+02  0.7561462E-02  0.1284206E+00
         -4   -1    0    0    0  501 -0.00000000000E+00  0.00000000000E+00  0.14016050203E+03  0.14016050203E+03  0.00000000000E+00 0. -1.
          4   -1    0    0  501    0  0.00000000000E+00 -0.00000000000E+00 -0.10725232374E+03  0.10725232374E+03  0.00000000000E+00 0.  1.
         23    2    1    2    0    0  0.39473034935E+02 -0.17207847632E+02  0.52783329384E+02  0.11363017948E+03  0.90947827463E+02 0.  0.
          5    1    1    2  502    0 -0.27060682245E+02 -0.53259002069E+02 -0.16088638555E+02  0.62009019630E+02  0.41800000000E+01 0.  1.
         -5    1    1    2    0  502 -0.12412352690E+02  0.70466849701E+02 -0.37865125369E+01  0.71773626655E+02  0.41800000000E+01 0.  1.
        -11    1    3    3    0    0  0.71650748958E+01 -0.29381143580E+02 -0.17774125369E+02  0.35078617831E+02  0.00000000000E+00 0.  1.
         11    1    3    3    0    0  0.32307960039E+02  0.12173295948E+02  0.70557454752E+02  0.78551561647E+02  0.00000000000E+00 0. -1.
</event>
<event>
 7    1  0.5831876E-006  0.1641439E+03  0.7561462E-02  0.1184096E+00
         -2   -1    0    0    0  501 -0.00000000000E+00  0.00000000000E+00  0.11676422756E+03  0.11676422756E+03  0.00000000000E+00 0.  1.
          2   -1    0    0  501    0  0.00000000000E+00 -0.00000000000E+00 -0.27699638651E+03  0.27699638651E+03  0.00000000000E+00 0. -1.
         23    2    1    2    0    0  0.81430804005E+02 -0.10732325595E+03 -0.29525617882E+02  0.16818888227E+03  0.96262562293E+02 0.  0.
          5    1    1    2  502    0  0.26880468077E+02 -0.36250556040E+01 -0.10685337924E+02  0.29450796912E+02  0.41800000000E+01 0.  1.
         -5    1    1    2    0  502 -0.10831127208E+03  0.11094831156E+03 -0.12002120315E+03  0.19612093489E+03  0.41800000000E+01 0.  1.
        -11    1    3    3    0    0  0.24203071069E+02 -0.77525239529E+02 -0.55785315941E+02  0.98528944416E+02  0.00000000000E+00 0. -1.
         11    1    3    3    0    0  0.57227732935E+02 -0.29798016423E+02  0.26259698059E+02  0.69659937854E+02  0.00000000000E+00 0.  1.
</event>
<event>
 7    1  0.5831876E-006  0.1240782E+03  0.7561462E-02  0.1236517E+00
         -1   -1    0    0    0  501 -0.00000000000E+00  0.00000000000E+00  0.11773515399E+03  0.11773515399E+03  0.00000000000E+00 0.  1.
          1   -1    0    0  501    0  0.00000000000E+00 -0.00000000000E+00 -0.13202005688E+03  0.13202005688E+03  0.00000000000E+00 0. -1.
         23    2    1    2    0    0  0.30673258564E+02 -0.63393915943E+02  0.30304784481E+01  0.11702649670E+03  0.93415093857E+02 0.  0.
          5    1    1    2  502    0  0.38479575416E+02  0.22179250118E+01 -0.40819091511E+00  0.38771586702E+02  0.41800000000E+01 0. -1.
         -5    1    1    2    0  502 -0.69152833980E+02  0.61175990931E+02 -0.16907190424E+02  0.93957127467E+02  0.41800000000E+01 0.  1.
        -11    1    3    3    0    0 -0.14359349365E+01 -0.80546992290E+02  0.31794099962E+01  0.80622506312E+02  0.00000000000E+00 0.  1.
         11    1    3    3    0    0  0.32109193500E+02  0.17153076347E+02 -0.14893154809E+00  0.36403990386E+02  0.00000000000E+00 0. -1.
</event>
<event>
 7    1  0.5831876E-006  0.1428372E+03  0.7561462E-02  0.1209562E+00
          2   -1    0    0  501    0  0.00000000000E+00  0.00000000000E+00  0.75191981838E+03  0.75191981838E+03  0.00000000000E+00 0. -1.
         -2   -1    0    0    0  501 -0.00000000000E+00 -0.00000000000E+00 -0.37800931991E+02  0.37800931991E+02  0.00000000000E+00 0.  1.
         23    2    1    2    0    0 -0.24314449054E+02 -0.12194209756E+03  0.41764304093E+03  0.44474793294E+03  0.88960365490E+02 0.  0.
          5    1    1    2  502    0 -0.29738944304E+02  0.67580651896E+02  0.23577353323E+03  0.24709953600E+03  0.41800000000E+01 0. -1.
         -5    1    1    2    0  502  0.54053393358E+02  0.54361445663E+02  0.60702312227E+02  0.97873281429E+02  0.41800000000E+01 0. -1.
        -11    1    3    3    0    0  0.16596449205E+02 -0.41588185899E+02  0.54287563408E+02  0.70371577169E+02  0.00000000000E+00 0.  1.
         11    1    3    3    0    0 -0.40910898258E+02 -0.80353911660E+02  0.36335547752E+03  0.37437635577E+03  0.00000000000E+00 0. -1.
</event>
<event>
 7    1  0.5831876E-006  0.1019730E+03  0.7561462E-02  0.1276201E+00
          2   -1    0    0  501    0  0.00000000000E+00  0.00000000000E+00  0.14118093271E+03  0.14118093271E+03  0.00000000000E+00 0. -1.
         -2   -1    0    0    0  501 -0.00000000000E+00 -0.00000000000E+00 -0.15829251733E+03  0.15829251733E+03  0.00000000000E+00 0.  1.
         23    2    1    2    0    0 -0.24383055901E+01  0.21650769331E+02 -0.10879101553E+03  0.14285876545E+03  0.89991336579E+02 0.  0.
          5    1    1    2  502    0 -0.26072292209E+02  0.42776796038E+02  0.62586989412E+02  0.80275913847E+02  0.41800000000E+01 0. -1.
         -5    1    1    2    0  502  0.28510597799E+02 -0.64427565369E+02  0.29092441492E+02  0.76338770741E+02  0.41800000000E+01 0. -1.
        -11    1    3    3    0    0  0.29260444724E+02 -0.16424241548E+02 -0.14933403273E+02  0.36727862301E+02  0.00000000000E+00 0. -1.
         11    1    3    3    0    0 -0.31698750314E+02  0.38075010879E+02 -0.93857612254E+02  0.10613090315E+03  0.00000000000E+00 0.  1.
</event>
<event>
 7    1  0.5831876E-006  0.1016200E+03  0.7561462E-02  0.1276926E+00
          1   -1    0    0  501    0  0.00000000000E+00  0.00000000000E+00  0.42434505429E+03  0.42434505429E+03  0.00000000000E+00 0. -1.
         -1   -1    0    0    0  501 -0.00000000000E+00 -0.00000000000E+00 -0.52302831706E+02  0.52302831706E+02  0.00000000000E+00 0.  1.
         23    2    1    2    0    0  0.36435597586E+02 -0.54969641009E+02  0.46073421097E+02  0.12132914956E+03  0.90822839626E+02 0.  0.
          5    1    1    2  502    0 -0.31523797281E+02 -0.22501980707E+02  0.29605435696E+02  0.48928960274E+02  0.41800000000E+01 0.  1.
         -5    1    1    2    0  502 -0.49118003047E+01  0.77471621716E+02  0.29636336579E+03  0.30638977616E+03  0.41800000000E+01 0.  1.
        -11    1    3    3    0    0 -0.34335208406E+01  0.98576605620E+01  0.43972115014E+02  0.45194130548E+02  0.00000000000E+00 0. -1.
         11    1    3    3    0    0  0.39869118426E+02 -0.64827301571E+02  0.21013060831E+01  0.76135019014E+02  0.00000000000E+00 0.  1.
</event>
<event>
 7    1  0.5831876E-006  0.1139921E+03  0.7561462E-02  0.1253351E+00
         -1   -1    0    0    0  501 -0.00000000000E+00  0.00000000000E+00  0.20087340546E+03  0.20087340546E+03  0.00000000000E+00 0.  1.
          1   -1    0    0  501    0  0.00000000000E+00 -0.00000000000E+00 -0.83712941655E+02  0.83712941655E+02  0.00000000000E+00 0. -1.
         23    2    1    2    0    0 -0.19154180617E+02 -0.55200471798E+02  0.99532580040E+02  0.14540307191E+03  0.88438363339E+02 0.  0.
          5    1    1    2  502    0  0.22427425150E+02  0.94594010626E+02  0.20086156551E+02  0.99357648575E+02  0.41800000000E+01 0.  1.
         -5    1    1    2    0  502 -0.32732445335E+01 -0.39393538829E+02 -0.24582727872E+01  0.39825626628E+02  0.41800000000E+01 0.  1.
        -11    1    3    3    0    0  0.16949185750E+02  0.75330527589E+01 -0.41007487449E+01  0.18995734303E+02  0.00000000000E+00 0. -1.
         11    1    3    3    0    0 -0.36103366366E+02 -0.62733524557E+02  0.10363332878E+03  0.12640733761E+03  0.00000000000E+00 0.  1.
</event>
<event>
 7    1  0.5831876E-006  0.1072466E+03  0.7561462E-02  0.1265755E+00
          1   -1    0    0  501    0  0.00000000000E+00  0.00000000000E+00  0.95606294008E+03  0.95606294008E+03  0.00000000000E+00 0. -1.
         -1   -1    0    0    0  501 -0.00000000000E+00 -0.00000000000E+00 -0.17616001522E+02  0.17616001522E+02  0.00000000000E+00 0.  1.
         23    2    1    2    0    0  0.35905079031E+02 -0.61308235659E+02  0.42416392781E+03  0.43965441182E+03  0.91285758585E+02 0.  0.
          5    1    1    2  502    0 -0.46099874563E+02  0.90973633768E+01  0.44022231523E+03  0.44274272403E+03  0.41800000000E+01 0. -1.
         -5    1    1    2    0  502  0.10194795532E+02  0.52210872282E+02  0.74060695520E+02  0.91281805752E+02  0.41800000000E+01 0. -1.
        -11    1    3    3    0    0 -0.26685625256E+02 -0.49676767038E+00  0.70509736872E+02  0.75392256679E+02  0.00000000000E+00 0.  1.
         11    1    3    3    0    0  0.62590704287E+02 -0.60811467988E+02  0.35365419094E+03  0.36426215514E+03  0.00000000000E+00 0. -1.
</event>
<event>
 7    1  0.5831876E-006  0.1663197E+03  0.7561462E-02  0.1181741E+00
         -1   -1    0    0    0  501 -0.00000000000E+00  0.00000000000E+00  0.51611149777E+02  0.51611149777E+02  0.00000000000E+00 0.  1.
          1   -1    0    0  501    0  0.00000000000E+00 -0.00000000000E+00 -0.86675575746E+03  0.86675575746E+03  0.00000000000E+00 0. -1.
         23    2    1    2    0    0  0.11221824365E+03 -0.11295129984E+03 -0.20233678074E+03  0.27297443373E+03  0.90685932142E+02 0.  0.
          5    1    1    2  502    0 -0.52152567026E+02  0.59189016494E+02 -0.50268172166E+03  0.50885127062E+03  0.41800000000E+01 0.  1.
         -5    1    1    2    0  502 -0.60065676626E+02  0.53762283348E+02 -0.11012610529E+03  0.13654120288E+03  0.41800000000E+01 0.  1.
        -11    1    3    3    0    0  0.21196081641E+02 -0.68345637435E+02 -0.41094312563E+02  0.82517528795E+02  0.00000000000E+00 0.  1.
         11    1    3    3    0    0  0.91022162011E+02 -0.44605662407E+02 -0.16124246817E+03  0.19045690494E+03  0.00000000000E+00 0. -1.
</event>
<event>
 7    1  0.5831876E-006  0.1353302E+03  0.7561462E-02  0.1219754E+00
         -1   -1    0    0    0  501 -0.00000000000E+00  0.00000000000E+00  0.42445399650E+02  0.42445399650E+02  0.00000000000E+00 0.  1.
          1   -1    0    0  501    0  0.00000000000E+00 -0.00000000000E+00 -0.82403800896E+03  0.82403800896E+03  0.00000000000E+00 0. -1.
         23    2    1    2    0    0 -0.88820088009E+02  0.61229087967E+02 -0.12211669851E+03  0.18663451028E+03  0.91005181848E+02 0.  0.
          5    1    1    2  502    0  0.97942731452E+02 -0.88574355172E+02 -0.58810237447E+03  0.60276037552E+03  0.41800000000E+01 0.  1.
         -5    1    1    2    0  502 -0.91226434433E+01  0.27345267205E+02 -0.71373536324E+02  0.77088522811E+02  0.41800000000E+01 0.  1.
        -11    1    3    3    0    0 -0.78898402617E+02  0.46280144799E+02 -0.13603444774E+03  0.16392736413E+03  0.00000000000E+00 0. -1.
         11    1    3    3    0    0 -0.99216853917E+01  0.14948943168E+02  0.13917749224E+02  0.22707146151E+02  0.00000000000E+00 0.  1.
</event>
<event>
 7    1  0.5831876E-006  0.9519678E+02  0.7561462E-02  0.1290734E+00
          1   -1    0    0  501    0  0.00000000000E+00  0.00000000000E+00  0.12656702273E+03  0.12656702273E+03  0.00000000000E+00 0. -1.
         -1   -1    0    0    0  501 -0.00000000000E+00 -0.00000000000E+00 -0.14845382142E+03  0.14845382142E+03  0.00000000000E+00 0.  1.
         23    2    1    2    0    0  0.46910743724E+02 -0.68428031728E+02 -0.99251468569E+01  0.12444045442E+03  0.92216618644E+02 0.  0.
          5    1    1    2  502    0  0.11794657506E+02  0.51574882249E+01  0.45061162065E+02  0.47049913466E+02  0.41800000000E+01 0. -1.
         -5    1    1    2    0  502 -0.58705401230E+02  0.63270543503E+02 -0.57022813908E+02  0.10353047626E+03  0.41800000000E+01 0. -1.
        -11    1    3    3    0    0  0.52689813065E+02 -0.56881040503E+02  0.29497937015E+02  0.82956599844E+02  0.00000000000E+00 0. -1.
         11    1    3    3    0    0 -0.57790693412E+01 -0.11546991225E+02 -0.39423083872E+02  0.41483854579E+02  0.00000000000E+00 0.  1.
</event>
<event>
 7    1  0.5831876E-006  0.1619342E+03  0.7561462E-02  0.1186530E+00
          2   -1    0    0  501    0  0.00000000000E+00  0.00000000000E+00  0.60824865700E+03  0.60824865700E+03  0.00000000000E+00 0.  1.
         -2   -1    0    0    0  501 -0.00000000000E+00 -0.00000000000E+00 -0.57705587951E+02  0.57705587951E+02  0.00000000000E+00 0. -1.
         23    2    1    2    0    0 -0.14453463968E+03  0.42229300740E+02  0.24138847626E+03  0.30003441065E+03  0.95282082226E+02 0.  0.
          5    1    1    2  502    0  0.47514545147E+02 -0.56993305417E+02  0.22370718794E+03  0.23572918190E+03  0.41800000000E+01 0. -1.
         -5    1    1    2    0  502  0.97020094533E+02  0.14764004677E+02  0.85447404848E+02  0.13019065240E+03  0.41800000000E+01 0. -1.
        -11    1    3    3    0    0 -0.83082927989E+02  0.16514880003E+02  0.20990792282E+03  0.22635558364E+03  0.00000000000E+00 0.  1.
         11    1    3    3    0    0 -0.61451711692E+02  0.25714420737E+02  0.31480553439E+02  0.73678827003E+02  0.00000000000E+00 0. -1.
</event>
<event>
 7    1  0.5831876E-006  0.9868104E+02  0.7561462E-02  0.1283094E+00
         -4   -1    0    0    0  501 -0.00000000000E+00  0.00000000000E+00  0.41746964954E+03  0.41746964954E+03  0.00000000000E+00 0.  1.
          4   -1    0    0  501    0  0.00000000000E+00 -0.00000000000E+00 -0.36298624707E+02  0.36298624707E+02  0.00000000000E+00 0. -1.
         23    2    1    2    0    0  0.51460221974E+02  0.78112575267E+01  0.11534149257E+03  0.15540271653E+03  0.90206286956E+02 0.  0.
          5    1    1    2  502    0  0.18620107403E+02 -0.30164312420E+02  0.18735296458E+03  0.19072283523E+03  0.41800000000E+01 0. -1.
         -5    1    1    2    0  502 -0.70080329376E+02  0.22353054894E+02  0.78476567687E+02  0.10764272249E+03  0.41800000000E+01 0. -1.
        -11    1    3    3    0    0  0.56013721385E+01 -0.28781404811E+02  0.83822991391E+02  0.88803369973E+02  0.00000000000E+00 0.  1.
         11    1    3    3    0    0  0.45858849835E+02  0.36592662337E+02  0.31518501180E+02  0.66599346557E+02  0.00000000000E+00 0. -1.
</event>
<event>
 7    1  0.5831876E-006  0.9836914E+02  0.7561462E-02  0.1283763E+00
          1   -1    0    0  501    0  0.00000000000E+00  0.00000000000E+00  0.12726058981E+03  0.12726058981E+03  0.00000000000E+00 0. -1.
         -1   -1    0    0    0  501 -0.00000000000E+00 -0.00000000000E+00 -0.19835784764E+03  0.19835784764E+03  0.00000000000E+00 0.  1.
         23    2    1    2    0    0 -0.25499487564E+02 -0.19918166987E+02 -0.14631860632E+03  0.17604461614E+03  0.92388392523E+02 0.  0.
          5    1    1    2  502    0  0.51493770335E+02  0.49802517251E+02  0.90315119987E+01  0.72325235685E+02  0.41800000000E+01 0. -1.
         -5    1    1    2    0  502 -0.25994282772E+02 -0.29884350265E+02  0.66189836490E+02  0.77248585632E+02  0.41800000000E+01 0. -1.
        -11    1    3    3    0    0 -0.45444053827E+02 -0.37225537827E+02 -0.13516504152E+03  0.14737873369E+03  0.00000000000E+00 0.  1.
         11    1    3    3    0    0  0.19944566264E+02  0.17307370840E+02 -0.11153564805E+02  0.28665882451E+02  0.00000000000E+00 0. -1.
</event>
<event>
 7    1  0.5831876E-006  0.1497769E+03  0.7561462E-02  0.1200747E+00
         -1   -1    0    0    0  501 -0.00000000000E+00  0.00000000000E+00  0.28511982785E+02  0.28511982785E+02  0.00000000000E+00 0.  1.
          1   -1    0    0  501    0  0.00000000000E+00 -0.00000000000E+00 -0.97655849907E+03  0.97655849907E+03  0.00000000000E+00 0. -1.
         23    2    1    2    0    0 -0.28653772908E+02  0.11892122567E+03 -0.38779094724E+03  0.41813298331E+03  0.97417022953E+02 0.  0.
          5    1    1    2  502    0 -0.45215122160E+01  0.23321521847E+02 -0.13855514741E+03  0.14063903699E+03  0.41800000000E+01 0. -1.
         -5    1    1    2    0  502  0.33175285124E+02 -0.14224274752E+03 -0.42170042164E+03  0.44629846154E+03  0.41800000000E+01 0. -1.
        -11    1    3    3    0    0  0.61573288243E+01  0.63954534757E+02 -0.75507161155E+02  0.99143464736E+02  0.00000000000E+00 0.  1.
         11    1    3    3    0    0 -0.34811101733E+02  0.54966690911E+02 -0.31228378608E+03  0.31898951858E+03  0.00000000000E+00 0. -1.
</event>
<event>
 7    1  0.5831876E-006  0.1982547E+03  0.7561462E-02  0.1151220E+00
          2   -1    0    0  501    0  0.00000000000E+00  0.00000000000E+00  0.18380321449E+03  0.18380321449E+03  0.00000000000E+00 0. -1.
         -2   -1    0    0    0  501 -0.00000000000E+00 -0.00000000000E+00 -0.21944737693E+03  0.21944737693E+03  0.00000000000E+00 0.  1.
         23    2    1    2    0    0 -0.26582523402E+02 -0.16547095652E+03 -0.44248589783E+00  0.19109284937E+03  0.91809657898E+02 0.  0.
          5    1    1    2  502    0 -0.45958983271E+02  0.95520022898E+02 -0.24478530858E+01  0.10611205069E+03  0.41800000000E+01 0. -1.
         -5    1    1    2    0  502  0.72541506673E+02  0.69950933625E+02 -0.32753823456E+02  0.10604569136E+03  0.41800000000E+01 0. -1.
        -11    1    3    3    0    0 -0.52199596712E+02 -0.53676175949E+02 -0.11966980220E+02  0.75823072854E+02  0.00000000000E+00 0.  1.
         11    1    3    3    0    0  0.25617073310E+02 -0.11179478057E+03  0.11524494322E+02  0.11526977652E+03  0.00000000000E+00 0. -1.
</event>
<event>
 7    1  0.5831876E-006  0.1244038E+03  0.7561462E-02  0.1236004E+00
          2   -1    0    0  501    0  0.00000000000E+00  0.00000000000E+00  0.70241261242E+03  0.70241261242E+03  0.00000000000E+00 0. -1.
         -2   -1    0    0    0  501 -0.00000000000E+00 -0.00000000000E+00 -0.27675331315E+02  0.27675331315E+02  0.00000000000E+00 0.  1.
         23    2    1    2    0    0 -0.48518620991E+01 -0.73083600690E+02  0.17245273401E+03  0.20730755409E+03  0.88722732481E+02 0.  0.
          5    1    1    2  502    0  0.50347937174E+02 -0.70494081862E+01  0.14233959249E+03  0.15120397126E+03  0.41800000000E+01 0.  1.
         -5    1    1    2    0  502 -0.45496075075E+02  0.80133008876E+02  0.35994495460E+03  0.37157641838E+03  0.41800000000E+01 0.  1.
        -11    1    3    3    0    0 -0.24747838743E+02  0.47661943239E+01  0.12116590592E+02  0.27963975010E+02  0.00000000000E+00 0.  1.
         11    1    3    3    0    0  0.19895976644E+02 -0.77849795014E+02  0.16033614342E+03  0.17934357908E+03  0.00000000000E+00 0. -1.
</event>
<event>
 7    1  0.5831876E-006  0.1074329E+03  0.7561462E-02  0.1265399E+00
         -2   -1    0    0    0  501 -0.00000000000E+00  0.00000000000E+00  0.16681568128E+03  0.16681568128E+03  0.00000000000E+00 0.  1.
          2   -1    0    0  501    0  0.00000000000E+00 -0.00000000000E+00 -0.83759357554E+02  0.83759357554E+02  0.00000000000E+00 0. -1.
         23    2    1    2    0    0  0.26479345596E+02  0.33164150087E+02  0.57654832598E+02  0.11606469225E+03  0.91355987601E+02 0.  0.
          5    1    1    2  502    0  0.22192682352E+02 -0.55876570326E+02 -0.20577900405E+02  0.63683817776E+02  0.41800000000E+01 0.  1.
         -5    1    1    2    0  502 -0.48672027948E+02  0.22712420239E+02  0.45979391533E+02  0.70826528811E+02  0.41800000000E+01 0.  1.
        -11    1    3    3    0    0  0.60609828405E+02  0.25436116924E+02  0.38258166816E+02  0.76054156175E+02  0.00000000000E+00 0.  1.
         11    1    3    3    0    0 -0.34130482809E+02  0.77280331631E+01  0.19396665782E+02  0.40010536072E+02  0.00000000000E+00 0. -1.
</event>
<event>
 7    1  0.5831876E-006  0.8118921E+02  0.7561462E-02  0.1325710E+00
          2   -1    0    0  501    0  0.00000000000E+00  0.00000000000E+00  0.82848556748E+02  0.82848556748E+02  0.00000000000E+00 0. -1.
         -2   -1    0    0    0  501 -0.00000000000E+00 -0.00000000000E+00 -0.18518747055E+03  0.18518747055E+03  0.00000000000E+00 0.  1.
         23    2    1    2    0    0 -0.57553868643E+02 -0.79527880395E+01 -0.54545516356E+02  0.12206693795E+03  0.92463124285E+02 0.  0.
          5    1    1    2  502    0  0.26648233611E+02 -0.28625662458E+02  0.33408749835E+02  0.51605948022E+02  0.41800000000E+01 0.  1.
         -5    1    1    2    0  502  0.30905635033E+02  0.36578450498E+02 -0.81202147278E+02  0.94363141322E+02  0.41800000000E+01 0.  1.
        -11    1    3    3    0    0 -0.63043670582E+02  0.25834874451E+01  0.31361217522E+01  0.63174473226E+02  0.00000000000E+00 0. -1.
         11    1    3    3    0    0  0.54898019385E+01 -0.10536275485E+02 -0.57681638108E+02  0.58892464724E+02  0.00000000000E+00 0.  1.
</event>
<event>
 7    1  0.5831876E-006  0.8519618E+02  0.7561462E-02  0.1314920E+00
          1   -1    0    0  501    0  0.00000000000E+00  0.00000000000E+00  0.30837226893E+03  0.30837226893E+03  0.00000000000E+00 0. -1.
         -1   -1    0    0    0  501 -0.00000000000E+00 -0.00000000000E+00 -0.59442618894E+02  0.59442618894E+02  0.00000000000E+00 0.  1.
         23    2    1    2    0    0 -0.26452498628E+02  0.61430375702E+01  0.80906637781E+01  0.95072029159E+02  0.90751089766E+02 0.  0.
          5    1    1    2  502    0  0.26037284169E+02 -0.46761512150E+02  0.22084362262E+03  0.22727506955E+03  0.41800000000E+01 0.  1.
         -5    1    1    2    0  502  0.41521445884E+00  0.40618474580E+02  0.19995363638E+02  0.45467789118E+02  0.41800000000E+01 0.  1.
        -11    1    3    3    0    0 -0.47754939518E+02  0.18537510969E+02  0.32271828781E+02  0.60544566182E+02  0.00000000000E+00 0. -1.
         11    1    3    3    0    0  0.21302440890E+02 -0.12394473399E+02 -0.24181165003E+02  0.34527462977E+02  0.00000000000E+00 0.  1.
</event>
<event>
 7    1  0.5831876E-006  0.5692476E+02  0.7561462E-02  0.1411210E+00
          3   -1    0    0  501    0  0.00000000000E+00  0.00000000000E+00  0.64788265091E+02  0.64788265091E+02  0.00000000000E+00 0. -1.
         -3   -1    0    0    0  501 -0.00000000000E+00 -0.00000000000E+00 -0.18198468089E+03  0.18198468089E+03  0.00000000000E+00 0.  1.
         23    2    1    2    0    0 -0.69469638733E+01  0.19494025631E+02 -0.81853852344E+02  0.11514861733E+03  0.78299895195E+02 0.  0.
          5    1    1    2  502    0  0.21701993520E+02 -0.18103207010E+02  0.43086767932E+02  0.51697626615E+02  0.41800000000E+01 0. -1.
         -5    1    1    2    0  502 -0.14755029646E+02 -0.13908186207E+01 -0.78429331389E+02  0.79926702037E+02  0.41800000000E+01 0. -1.
        -11    1    3    3    0    0  0.14148711724E+02 -0.20357504452E+02 -0.39043342237E+01  0.25096969074E+02  0.00000000000E+00 0. -1.
         11    1    3    3    0    0 -0.21095675598E+02  0.39851530083E+02 -0.77949518120E+02  0.90051648258E+02  0.00000000000E+00 0.  1.
</event>
<event>
 7    1  0.5831876E-006  0.1136361E+03  0.7561462E-02  0.1253981E+00
         -1   -1    0    0    0  501 -0.00000000000E+00  0.00000000000E+00  0.64933142915E+03  0.64933142915E+03  0.00000000000E+00 0.  1.
          1   -1    0    0  501    0  0.00000000000E+00 -0.00000000000E+00 -0.34740448756E+02  0.34740448756E+02  0.00000000000E+00 0. -1.
         23    2    1    2    0    0 -0.92307211926E+01  0.59697020360E+02  0.47413866967E+03  0.48653508010E+03  0.90884353122E+02 0.  0.
          5    1    1    2  502    0 -0.47253112699E+02 -0.40236278845E+02  0.11834790170E+03  0.13369933819E+03  0.41800000000E+01 0.  1.
         -5    1    1    2    0  502  0.56483833891E+02 -0.19460741515E+02  0.22104409021E+02  0.63837459611E+02  0.41800000000E+01 0.  1.
        -11    1    3    3    0    0  0.38491173176E+02  0.31604005971E+02  0.16064537900E+03  0.16818835096E+03  0.00000000000E+00 0. -1.
         11    1    3    3    0    0 -0.47721894368E+02  0.28093014389E+02  0.31349329067E+03  0.31834672914E+03  0.00000000000E+00 0.  1.
</event>
<event>
 7    1  0.5831876E-006  0.1197216E+03  0.7561462E-02  0.1243557E+00
         -2   -1    0    0    0  501 -0.00000000000E+00  0.00000000000E+00  0.35943463191E+02  0.35943463191E+02  0.00000000000E+00 0. -1.
          2   -1    0    0  501    0  0.00000000000E+00 -0.00000000000E+00 -0.51345742790E+03  0.51345742790E+03  0.00000000000E+00 0.  1.
         23    2    1    2    0    0  0.48932619796E+01 -0.63139177278E+02 -0.11066114602E+03  0.15666738590E+03  0.91039995860E+02 0.  0.
          5    1    1    2  502    0  0.12688302366E+02  0.93414034179E+02 -0.32279002376E+03  0.33630053024E+03  0.41800000000E+01 0.  1.
         -5    1    1    2    0  502 -0.17581564345E+02 -0.30274856902E+02 -0.44062794923E+02  0.56432974950E+02  0.41800000000E+01 0.  1.
        -11    1    3    3    0    0 -0.51385557408E+01 -0.85320989668E+02 -0.94630204491E+02  0.12751843645E+03  0.00000000000E+00 0.  1.
         11    1    3    3    0    0  0.10031817720E+02  0.22181812390E+02 -0.16030941532E+02  0.29148949450E+02  0.00000000000E+00 0. -1.
</event>
<event>
 7    1  0.5831876E-006  0.5731539E+02  0.7561462E-02  0.1409456E+00
          1   -1    0    0  501    0  0.00000000000E+00  0.00000000000E+00  0.23697669726E+03  0.23697669726E+03  0.00000000000E+00 0. -1.
         -1   -1    0    0    0  501 -0.00000000000E+00 -0.00000000000E+00 -0.58601886263E+02  0.58601886263E+02  0.00000000000E+00 0.  1.
         23    2    1    2    0    0  0.10883695542E+02  0.22042342470E+02  0.28740819907E+02  0.98999095316E+02  0.91490253330E+02 0.  0.
          5    1    1    2  502    0 -0.92266001543E+00 -0.21581469352E+02 -0.18104367565E+02  0.28493010473E+02  0.41800000000E+01 0.  1.
         -5    1    1    2    0  502 -0.99610355269E+01 -0.46087311813E+00  0.16773835866E+03  0.16808647774E+03  0.41800000000E+01 0.  1.
        -11    1    3    3    0    0 -0.10890598469E+02 -0.26480246991E+02 -0.12947226388E+02  0.31423546694E+02  0.00000000000E+00 0.  1.
         11    1    3    3    0    0  0.21774294011E+02  0.48522589461E+02  0.41688046295E+02  0.67575548622E+02  0.00000000000E+00 0. -1.
</event>
<event>
 7    1  0.5831876E-006  0.1083707E+03  0.7561462E-02  0.1263617E+00
         -1   -1    0    0    0  501 -0.00000000000E+00  0.00000000000E+00  0.33457685329E+02  0.33457685329E+02  0.00000000000E+00 0.  1.
          1   -1    0    0  501    0  0.00000000000E+00 -0.00000000000E+00 -0.57205889599E+03  0.57205889599E+03  0.00000000000E+00 0. -1.
         23    2    1    2    0    0  0.24063014764E+02 -0.54364053300E+02 -0.10890569923E+03  0.15405256877E+03  0.91308617604E+02 0.  0.
          5    1    1    2  502    0 -0.59305824317E+02  0.30336801173E+02 -0.38010066620E+03  0.38591643027E+03  0.41800000000E+01 0.  1.
         -5    1    1    2    0  502  0.35242809553E+02  0.24027252127E+02 -0.49594845229E+02  0.65547582284E+02  0.41800000000E+01 0.  1.
        -11    1    3    3    0    0 -0.18482994614E+02  0.16306546354E+02 -0.14147216027E+02  0.28419505013E+02  0.00000000000E+00 0. -1.
         11    1    3    3    0    0  0.42546009378E+02 -0.70670599655E+02 -0.94758483204E+02  0.12563306376E+03  0.00000000000E+00 0.  1.
</event>
<event>
 7    1  0.5831876E-006  0.1045819E+03  0.7561462E-02  0.1270946E+00
         -1   -1    0    0    0  501 -0.00000000000E+00  0.00000000000E+00  0.32783921641E+03  0.32783921641E+03  0.00000000000E+00 0.  1.
          1   -1    0    0  501    0  0.00000000000E+00 -0.00000000000E+00 -0.49863148723E+02  0.49863148723E+02  0.00000000000E+00 0. -1.
         23    2    1    2    0    0 -0.29885166874E+02  0.54301694308E+02  0.16442140646E+03  0.19775264106E+03  0.90718856603E+02 0.  0.
          5    1    1    2  502    0 -0.18722750475E+02  0.13989928857E+02  0.89567351442E+02  0.92660899732E+02  0.41800000000E+01 0.  1.
         -5    1    1    2    0  502  0.48607917350E+02 -0.68291623165E+02  0.23987309792E+02  0.87288824340E+02  0.41800000000E+01 0.  1.
        -11    1    3    3    0    0 -0.43199383273E+02 -0.23831005995E+01  0.10938784023E+03  0.11763318186E+03  0.00000000000E+00 0.  1.
         11    1    3    3    0    0  0.13314216399E+02  0.56684794907E+02  0.55033566221E+02  0.80119459203E+02  0.00000000000E+00 0. -1.
</event>
<event>
 7    1  0.5831876E-006  0.1052332E+03  0.7561462E-02  0.1269661E+00
         -1   -1    0    0    0  501 -0.00000000000E+00  0.00000000000E+00  0.79600036362E+02  0.79600036362E+02  0.00000000000E+00 0.  1.
          1   -1    0    0  501    0  0.00000000000E+00 -0.00000000000E+00 -0.23385051666E+03  0.23385051666E+03  0.00000000000E+00 0. -1.
         23    2    1    2    0    0 -0.70576950954E+02 -0.24117413405E+02 -0.23114319326E+02  0.11747343895E+03  0.87766630708E+02 0.  0.
          5    1    1    2  502    0  0.23553267652E+02 -0.44933157015E+02 -0.15408304238E+02  0.53184896878E+02  0.41800000000E+01 0. -1.
         -5    1    1    2    0  502  0.47023683302E+02  0.69050570420E+02 -0.11572785674E+03  0.14279221720E+03  0.41800000000E+01 0. -1.
        -11    1    3    3    0    0 -0.11933614285E+02 -0.10068381359E+02  0.32109853209E+02  0.35704707340E+02  0.00000000000E+00 0.  1.
         11    1    3    3    0    0 -0.58643336669E+02 -0.14049032046E+02 -0.55224172536E+02  0.81768731611E+02  0.00000000000E+00 0. -1.
</event>
<event>
 7    1  0.5831876E-006  0.1072526E+03  0.7561462E-02  0.1265744E+00
         -2   -1    0    0    0  501 -0.00000000000E+00  0.00000000000E+00  0.20052981924E+02  0.20052981924E+02  0.00000000000E+00 0.  1.
          2   -1    0    0  501    0  0.00000000000E+00 -0.00000000000E+00 -0.65414171421E+03  0.65414171421E+03  0.00000000000E+00 0. -1.
         23    2    1    2    0    0  0.14616323863E+02 -0.11702501269E+02 -0.17548318841E+03  0.19846689785E+03  0.90797437584E+02 0.  0.
          5    1    1    2  502    0 -0.53906069725E+02  0.46584648544E+02 -0.21680195516E+03  0.22824669547E+03  0.41800000000E+01 0. -1.
         -5    1    1    2    0  502  0.39289745862E+02 -0.34882147275E+02 -0.24180358872E+03  0.24748110280E+03  0.41800000000E+01 0. -1.
        -11    1    3    3    0    0  0.15905608055E+02  0.37748616349E+02 -0.10165695618E+03  0.10959964938E+03  0.00000000000E+00 0. -1.
         11    1    3    3    0    0 -0.12892841919E+01 -0.49451117617E+02 -0.73826232228E+02  0.88867248479E+02  0.00000000000E+00 0.  1.
</event>
<event>
 7    1  0.5831876E-006  0.9995766E+02  0.7561462E-02  0.1280385E+00
         -1   -1    0    0    0  501 -0.00000000000E+00  0.00000000000E+00  0.83521218796E+02  0.83521218796E+02  0.00000000000E+00 0.  1.
          1   -1    0    0  501    0  0.00000000000E+00 -0.00000000000E+00 -0.15089667709E+03  0.15089667709E+03  0.00000000000E+00 0. -1.
         23    2    1    2    0    0 -0.14662551067E+02 -0.26379167248E+01  0.34180146944E+01  0.89218589604E+02  0.87899515915E+02 0.  0.
          5    1    1    2  502    0  0.37235885899E+02 -0.45218118692E+02 -0.70976721304E+02  0.92121424347E+02  0.41800000000E+01 0. -1.
         -5    1    1    2    0  502 -0.22573334832E+02  0.47856035416E+02  0.18324831178E+00  0.53077881939E+02  0.41800000000E+01 0.  1.
        -11    1    3    3    0    0  0.36704310424E+02 -0.13752267224E+01 -0.52721762648E+01  0.37106515530E+02  0.00000000000E+00 0. -1.
         11    1    3    3    0    0 -0.51366861490E+02 -0.12626900023E+01  0.86901909592E+01  0.52112074074E+02  0.00000000000E+00 0.  1.
</event>
<event>
 7    1  0.5831876E-006  0.5900193E+02  0.7561462E-02  0.1402069E+00
          1   -1    0    0  501    0  0.00000000000E+00  0.00000000000E+00  0.35818745892E+03  0.35818745892E+03  0.00000000000E+00 0. -1.
         -1   -1    0    0    0  501 -0.00000000000E+00 -0.00000000000E+00 -0.38082153004E+02  0.38082153004E+02  0.00000000000E+00 0.  1.
         23    2    1    2    0    0 -0.18088566414E+02  0.15620264051E+02  0.75968720590E+02  0.12091732596E+03  0.90986616188E+02 0.  0.
          5    1    1    2  502    0 -0.14631742541E+02  0.29478776226E+01  0.23615954930E+03  0.23666766360E+03  0.41800000000E+01 0. -1.
         -5    1    1    2    0  502  0.32720308955E+02 -0.18568141674E+02  0.79770360317E+01  0.38684622361E+02  0.41800000000E+01 0. -1.
        -11    1    3    3    0    0 -0.39588871872E+02  0.29591268535E+01 -0.12992952528E+01  0.39720566159E+02  0.00000000000E+00 0.  1.
         11    1    3    3    0    0  0.21500305457E+02  0.12661137198E+02  0.77268015843E+02  0.81196759801E+02  0.00000000000E+00 0. -1.
</event>
<event>
 7    1  0.5831876E-006  0.1681087E+03  0.7561462E-02  0.1179835E+00
          2   -1    0    0  501    0  0.00000000000E+00  0.00000000000E+00  0.63300936028E+03  0.63300936028E+03  0.00000000000E+00 0. -1.
         -2   -1    0    0    0  501 -0.00000000000E+00 -0.00000000000E+00 -0.71612472360E+02  0.71612472360E+02  0.00000000000E+00 0.  1.
         23    2    1    2    0    0  0.95054621759E+02 -0.12183506610E+03  0.10892255021E+03  0.21039386123E+03  0.92316252369E+02 0.  0.
          5    1    1    2  502    0 -0.11024538989E+03  0.11446128640E+03  0.44923374842E+03  0.47653317324E+03  0.41800000000E+01 0. -1.
         -5    1    1    2    0  502  0.15190768131E+02  0.73737796951E+01  0.32405892957E+01  0.17694798173E+02  0.41800000000E+01 0. -1.
        -11    1    3    3    0    0  0.35578318659E+02 -0.78722800999E+02  0.10618044535E+03  0.13688456133E+03  0.00000000000E+00 0. -1.
         11    1    3    3    0    0  0.59476303101E+02 -0.43112265099E+02  0.27421048520E+01  0.73509299898E+02  0.00000000000E+00 0.  1.
</event>
<event>
 7    1  0.5831876E-006  0.1335117E+03  0.7561462E-02  0.1222336E+00
          4   -1    0    0  501    0  0.00000000000E+00  0.00000000000E+00  0.44495770870E+03  0.44495770870E+03  0.00000000000E+00 0. -1.
         -4   -1    0    0    0  501 -0.00000000000E+00 -0.00000000000E+00 -0.51668292253E+02  0.51668292253E+02  0.00000000000E+00 0.  1.
         23    2    1    2    0    0 -0.17064965481E+02 -0.97094168052E+02  0.11113954604E+03  0.17262811380E+03  0.87920284696E+02 0.  0.
          5    1    1    2  502    0  0.69774853697E+02  0.66781193114E+02  0.19502943669E+03  0.21767455418E+03  0.41800000000E+01 0. -1.
         -5    1    1    2    0  502 -0.52709888216E+02  0.30312974938E+02  0.87120433721E+02  0.10632333298E+03  0.41800000000E+01 0. -1.
        -11    1    3    3    0    0  0.15872046984E+02 -0.19756110411E+02  0.78440278583E+02  0.82432415215E+02  0.00000000000E+00 0. -1.
         11    1    3    3    0    0 -0.32937012465E+02 -0.77338057641E+02  0.32699267461E+02  0.90195698580E+02  0.00000000000E+00 0.  1.
</event>
<event>
 7    1  0.5831876E-006  0.1306832E+03  0.7561462E-02  0.1226446E+00
         -2   -1    0    0    0  501 -0.00000000000E+00  0.00000000000E+00  0.17466724166E+02  0.17466724166E+02  0.00000000000E+00 0.  1.
          2   -1    0    0  501    0  0.00000000000E+00 -0.00000000000E+00 -0.14401372573E+04  0.14401372573E+04  0.00000000000E+00 0. -1.
         23    2    1    2    0    0 -0.26973760319E+02  0.11083035513E+03 -0.61145178215E+03  0.62890906219E+03  0.92964376220E+02 0.  0.
          5    1    1    2  502    0  0.11052541117E+02 -0.69874917007E+02 -0.14886913158E+03  0.16487617605E+03  0.41800000000E+01 0.  1.
         -5    1    1    2    0  502  0.15921219202E+02 -0.40955438120E+02 -0.66234961936E+03  0.66381874318E+03  0.41800000000E+01 0.  1.
        -11    1    3    3    0    0  0.32533454585E+02  0.21401296903E+02 -0.13540036965E+03  0.14088896791E+03  0.00000000000E+00 0.  1.
         11    1    3    3    0    0 -0.59507214905E+02  0.89429058225E+02 -0.47605141250E+03  0.48802009428E+03  0.00000000000E+00 0. -1.
</event>
<event>
 7    1  0.5831876E-006  0.2339392E+03  0.7561462E-02  0.1123897E+00
         -1   -1    0    0    0  501 -0.00000000000E+00  0.00000000000E+00  0.21930288145E+03  0.21930288145E+03  0.00000000000E+00 0.  1.
          1   -1    0    0  501    0  0.00000000000E+00 -0.00000000000E+00 -0.28335100916E+03  0.28335100916E+03  0.00000000000E+00 0. -1.
         23    2    1    2    0    0 -0.20549480896E+03 -0.70849976731E+02 -0.84966409615E+02  0.25099616824E+03  0.92368555235E+02 0.  0.
          5    1    1    2  502    0  0.89061754421E+02  0.95692314337E+02  0.21392140398E+02  0.13252966156E+03  0.41800000000E+01 0.  1.
         -5    1    1    2    0  502  0.11643305454E+03 -0.24842337606E+02 -0.47385849007E+00  0.11912806080E+03  0.41800000000E+01 0.  1.
        -11    1    3    3    0    0 -0.10018353405E+03 -0.26048108794E+02 -0.88949649005E+02  0.13648181024E+03  0.00000000000E+00 0. -1.
         11    1    3    3    0    0 -0.10531127491E+03 -0.44801867938E+02  0.39832393897E+01  0.11451435801E+03  0.00000000000E+00 0.  1.
</event>
<event>
 7    1  0.5831876E-006  0.3873436E+03  0.7561462E-02  0.1048252E+00
         -1   -1    0    0    0  501 -0.00000000000E+00  0.00000000000E+00  0.52950011268E+03  0.52950011268E+03  0.00000000000E+00 0.  1.
          1   -1    0    0  501    0  0.00000000000E+00 -0.00000000000E+00 -0.32712132509E+03  0.32712132509E+03  0.00000000000E+00 0. -1.
         23    2    1    2    0    0 -0.19933508725E+03  0.32334983993E+03  0.23371770475E+03  0.45547332908E+03  0.92425061521E+02 0.  0.
          5    1    1    2  502    0  0.17349482855E+03 -0.18387818026E+03 -0.50854772280E+02  0.25790564354E+03  0.41800000000E+01 0. -1.
         -5    1    1    2    0  502  0.25840258699E+02 -0.13947165967E+03  0.19515855123E+02  0.14324246515E+03  0.41800000000E+01 0. -1.
        -11    1    3    3    0    0 -0.11833771676E+03  0.19936665158E+03  0.19358354595E+03  0.30203553803E+03  0.00000000000E+00 0. -1.
         11    1    3    3    0    0 -0.80997370487E+02  0.12398318835E+03  0.40134158802E+02  0.15343779105E+03  0.00000000000E+00 0.  1.
</event>
<event>
 7    1  0.5831876E-006  0.8007497E+02  0.7561462E-02  0.1328839E+00
         -2   -1    0    0    0  501 -0.00000000000E+00  0.00000000000E+00  0.60917772039E+03  0.60917772039E+03  0.00000000000E+00 0.  1.
          2   -1    0    0  501    0  0.00000000000E+00 -0.00000000000E+00 -0.25901839883E+02  0.25901839883E+02  0.00000000000E+00 0. -1.
         23    2    1    2    0    0  0.48020056023E+02  0.35803449277E+02  0.31062188081E+03  0.32917676829E+03  0.91014170266E+02 0.  0.
          5    1    1    2  502    0 -0.50354503008E+01 -0.98514147528E+01 -0.11985436561E+02  0.16838325984E+02  0.41800000000E+01 0.  1.
         -5    1    1    2    0  502 -0.42984605722E+02 -0.25952034525E+02  0.28463943627E+03  0.28906446600E+03  0.41800000000E+01 0.  1.
        -11    1    3    3    0    0  0.13612843768E+02  0.56277049251E+02  0.24934525207E+03  0.25597943378E+03  0.00000000000E+00 0.  1.
         11    1    3    3    0    0  0.34407212255E+02 -0.20473599974E+02  0.61276628734E+02  0.73197334515E+02  0.00000000000E+00 0. -1.
</event>
<event>
 7    1  0.5831876E-006  0.9282842E+02  0.7561462E-02  0.1296143E+00
         -1   -1    0    0    0  501 -0.00000000000E+00  0.00000000000E+00  0.51862909152E+02  0.51862909152E+02  0.00000000000E+00 0.  1.
          1   -1    0    0  501    0  0.00000000000E+00 -0.00000000000E+00 -0.26370685655E+03  0.26370685655E+03  0.00000000000E+00 0. -1.
         23    2    1    2    0    0  0.33180734404E+02  0.21765207646E+02 -0.64340776110E+02  0.11813762383E+03  0.90785887089E+02 0.  0.
          5    1    1    2  502    0  0.24541223307E+02  0.20265123974E+01  0.10799276901E+02  0.27211673515E+02  0.41800000000E+01 0.  1.
         -5    1    1    2    0  502 -0.57721957711E+02 -0.23791720044E+02 -0.15830244819E+03  0.17022046836E+03  0.41800000000E+01 0.  1.
        -11    1    3    3    0    0  0.32744915836E+02 -0.31147357543E+02 -0.21457458574E+02  0.50028091344E+02  0.00000000000E+00 0. -1.
         11    1    3    3    0    0  0.43581856791E+00  0.52912565190E+02 -0.42883317536E+02  0.68109532488E+02  0.00000000000E+00 0.  1.
</event>
<event>
 7    1  0.5831876E-006  0.1478653E+03  0.7561462E-02  0.1203121E+00
          2   -1    0    0  501    0  0.00000000000E+00  0.00000000000E+00  0.76519786943E+03  0.76519786943E+03  0.00000000000E+00 0. -1.
         -2   -1    0    0    0  501 -0.00000000000E+00 -0.00000000000E+00 -0.34823922117E+02  0.34823922117E+02  0.00000000000E+00 0.  1.
         23    2    1    2    0    0 -0.12408427560E+02 -0.12011202151E+03  0.31351284029E+03  0.34835636158E+03  0.92092273495E+02 0.  0.
          5    1    1    2  502    0 -0.51923187260E+02  0.25759392179E+02  0.16948009979E+03  0.17916623646E+03  0.41800000000E+01 0. -1.
         -5    1    1    2    0  502  0.64331614820E+02  0.94352629333E+02  0.24738100723E+03  0.27249919351E+03  0.41800000000E+01 0. -1.
        -11    1    3    3    0    0 -0.18125086762E+02 -0.53479043049E+02  0.46660068595E+02  0.73250862225E+02  0.00000000000E+00 0.  1.
         11    1    3    3    0    0  0.57166592014E+01 -0.66632978463E+02  0.26685277170E+03  0.27510549935E+03  0.00000000000E+00 0. -1.
</event>
<event>
 7    1  0.5831876E-006  0.1407874E+03  0.7561462E-02  0.1212273E+00
         -1   -1    0    0    0  501 -0.00000000000E+00  0.00000000000E+00  0.10035575834E+03  0.10035575834E+03  0.00000000000E+00 0.  1.
          1   -1    0    0  501    0  0.00000000000E+00 -0.00000000000E+00 -0.25969827092E+03  0.25969827092E+03  0.00000000000E+00 0. -1.
         23    2    1    2    0    0  0.60199309999E+02 -0.69496537367E+02  0.11261013339E+02  0.12938855434E+03  0.90337489135E+02 0.  0.
          5    1    1    2  502    0  0.38010525126E+02  0.23666680041E+02 -0.34772665863E+02  0.56846481472E+02  0.41800000000E+01 0.  1.
         -5    1    1    2    0  502 -0.98209835125E+02  0.45829857326E+02 -0.13583086006E+03  0.17381899344E+03  0.41800000000E+01 0.  1.
        -11    1    3    3    0    0 -0.21838495663E+02 -0.29970926297E+02  0.96195532369E+01  0.38310731139E+02  0.00000000000E+00 0.  1.
         11    1    3    3    0    0  0.82037805662E+02 -0.39525611070E+02  0.16414601018E+01  0.91077823204E+02  0.00000000000E+00 0. -1.
</event>
<event>
 7    1  0.5831876E-006  0.1732190E+03  0.7561462E-02  0.1174532E+00
          1   -1    0    0  501    0  0.00000000000E+00  0.00000000000E+00  0.35682378565E+03  0.35682378565E+03  0.00000000000E+00 0. -1.
         -1   -1    0    0    0  501 -0.00000000000E+00 -0.00000000000E+00 -0.17461585171E+03  0.17461585171E+03  0.00000000000E+00 0.  1.
         23    2    1    2    0    0 -0.16239392328E+02  0.15278763535E+03 -0.90057136186E+02  0.19882454871E+03  0.88391934111E+02 0.  0.
          5    1    1    2  502    0 -0.33398078669E+02 -0.92050185338E+02  0.85726780429E+02  0.13021221741E+03  0.41800000000E+01 0. -1.
         -5    1    1    2    0  502  0.49637470996E+02 -0.60737450008E+02  0.18653828970E+03  0.20240287124E+03  0.41800000000E+01 0.  1.
        -11    1    3    3    0    0  0.24498257357E+02  0.22128317616E+02 -0.42757764261E+02  0.54019010160E+02  0.00000000000E+00 0.  1.
         11    1    3    3    0    0 -0.40737649685E+02  0.13065931773E+03 -0.47299371924E+02  0.14480553855E+03  0.00000000000E+00 0. -1.
</event>
<event>
 7    1  0.5831876E-006  0.1007465E+03  0.7561462E-02  0.1278734E+00
          2   -1    0    0  501    0  0.00000000000E+00  0.00000000000E+00  0.13172239284E+03  0.13172239284E+03  0.00000000000E+00 0. -1.
         -2   -1    0    0    0  501 -0.00000000000E+00 -0.00000000000E+00 -0.17365936805E+03  0.17365936805E+03  0.00000000000E+00 0.  1.
         23    2    1    2    0    0 -0.82007667649E+02 -0.25666916750E+02 -0.87722579491E+02  0.14686647991E+03  0.80563414768E+02 0.  0.
          5    1    1    2  502    0  0.88248103944E+02  0.36584129956E+02  0.78180833661E+02  0.12351453990E+03  0.41800000000E+01 0.  1.
         -5    1    1    2    0  502 -0.62404362944E+01 -0.10917213206E+02 -0.32395229384E+02  0.35000741081E+02  0.41800000000E+01 0.  1.
        -11    1    3    3    0    0 -0.40493412148E+02  0.52847545013E+01  0.45168025869E+01  0.41085843829E+02  0.00000000000E+00 0. -1.
         11    1    3    3    0    0 -0.41514255501E+02 -0.30951671251E+02 -0.92239382078E+02  0.10578063608E+03  0.00000000000E+00 0.  1.
</event>
<event>
 7    1  0.5831876E-006  0.7130456E+02  0.7561462E-02  0.1355712E+00
          2   -1    0    0  501    0  0.00000000000E+00  0.00000000000E+00  0.47852552063E+03  0.47852552063E+03  0.00000000000E+00 0. -1.
         -2   -1    0    0    0  501 -0.00000000000E+00 -0.00000000000E+00 -0.28506400302E+02  0.28506400302E+02  0.00000000000E+00 0.  1.
         23    2    1    2    0    0  0.36754746547E+01  0.26770613588E+02  0.12931854659E+03  0.16174025398E+03  0.93308351183E+02 0.  0.
          5    1    1    2  502    0 -0.10641943757E+02  0.11537138080E+02 -0.51937976994E+01  0.17052989666E+02  0.41800000000E+01 0.  1.
         -5    1    1    2    0  502  0.69664691025E+01 -0.38307751668E+02  0.32589437144E+03  0.32823867729E+03  0.41800000000E+01 0.  1.
        -11    1    3    3    0    0 -0.15159677433E+02 -0.26596270208E+02  0.14804490063E+02  0.34005151594E+02  0.00000000000E+00 0.  1.
         11    1    3    3    0    0  0.18835152088E+02  0.53366883797E+02  0.11451405653E+03  0.12773510239E+03  0.00000000000E+00 0. -1.
</event>
<event>
 7    1  0.5831876E-006  0.1110959E+03  0.7561462E-02  0.1258554E+00
          1   -1    0    0  501    0  0.00000000000E+00  0.00000000000E+00  0.11647732772E+03  0.11647732772E+03  0.00000000000E+00 0. -1.
         -1   -1    0    0    0  501 -0.00000000000E+00 -0.00000000000E+00 -0.15120262581E+03  0.15120262581E+03  0.00000000000E+00 0.  1.
         23    2    1    2    0    0  0.34439520703E+02 -0.63877475209E+02 -0.21393072839E+01  0.11943893259E+03  0.94840231738E+02 0.  0.
          5    1    1    2  502    0 -0.41090583915E+02  0.96121577092E+02 -0.44204076185E+01  0.10471296994E+03  0.41800000000E+01 0. -1.
         -5    1    1    2    0  502  0.66510632115E+01 -0.32244101883E+02 -0.28165583185E+02  0.43528051004E+02  0.41800000000E+01 0. -1.
        -11    1    3    3    0    0 -0.76233356882E+01 -0.28253111556E+02  0.40348290012E+02  0.49843134598E+02  0.00000000000E+00 0. -1.
         11    1    3    3    0    0  0.42062856391E+02 -0.35624363653E+02 -0.42487597296E+02  0.69595797987E+02  0.00000000000E+00 0.  1.
</event>
<event>
 7    1  0.5831876E-006  0.1082621E+03  0.7561462E-02  0.1263823E+00
         -2   -1    0    0    0  501 -0.00000000000E+00  0.00000000000E+00  0.55281576070E+02  0.55281576070E+02  0.00000000000E+00 0. -1.
          2   -1    0    0  501    0  0.00000000000E+00 -0.00000000000E+00 -0.27061055363E+03  0.27061055363E+03  0.00000000000E+00 0.  1.
         23    2    1    2    0    0  0.29506669040E+02  0.17640695380E+02 -0.28156734325E+02  0.98170674015E+02  0.87537659880E+02 0.  0.
          5    1    1    2  502    0 -0.69377617802E+02  0.16381347528E+02 -0.73491864466E+02  0.10247013683E+03  0.41800000000E+01 0. -1.
         -5    1    1    2    0  502  0.39870948762E+02 -0.34022042907E+02 -0.11368037877E+03  0.12525131886E+03  0.41800000000E+01 0. -1.
        -11    1    3    3    0    0  0.31333669916E+02 -0.30873116893E+02 -0.46566449379E+01  0.44233839526E+02  0.00000000000E+00 0. -1.
         11    1    3    3    0    0 -0.18270008766E+01  0.48513812273E+02 -0.23500089387E+02  0.53936834489E+02  0.00000000000E+00 0.  1.
</event>
<event>
 7    1  0.5831876E-006  0.8946650E+02  0.7561462E-02  0.1304149E+00
          2   -1    0    0  501    0  0.00000000000E+00  0.00000000000E+00  0.86021093505E+02  0.86021093505E+02  0.00000000000E+00 0. -1.
         -2   -1    0    0    0  501 -0.00000000000E+00 -0.00000000000E+00 -0.19356708153E+03  0.19356708153E+03  0.00000000000E+00 0.  1.
         23    2    1    2    0    0  0.60412792727E+02 -0.19277881399E+02 -0.76751035767E+02  0.13600204474E+03  0.92652536104E+02 0.  0.
          5    1    1    2  502    0  0.92837797457E+01  0.22553787815E+02 -0.62211180942E+02  0.66951962969E+02  0.41800000000E+01 0.  1.
         -5    1    1    2    0  502 -0.69696572472E+02 -0.32759064157E+01  0.31416228682E+02  0.76634167327E+02  0.41800000000E+01 0.  1.
        -11    1    3    3    0    0  0.69018631230E+02 -0.71079144318E+01 -0.91633954928E+02  0.11493857316E+03  0.00000000000E+00 0.  1.
         11    1    3    3    0    0 -0.86058385038E+01 -0.12169966967E+02  0.14882919161E+02  0.21063471582E+02  0.00000000000E+00 0. -1.
</event>
<event>
 7    1  0.5831876E-006  0.1064452E+03  0.7561462E-02  0.1267298E+00
          1   -1    0    0  501    0  0.00000000000E+00  0.00000000000E+00  0.21241079556E+03  0.21241079556E+03  0.00000000000E+00 0. -1.
         -1   -1    0    0    0  501 -0.00000000000E+00 -0.00000000000E+00 -0.12006907007E+03  0.12006907007E+03  0.00000000000E+00 0.  1.
         23    2    1    2    0    0  0.11026328114E+02 -0.91015362903E+02 -0.36026748736E+02  0.13108616785E+03  0.86488615330E+02 0.  0.
          5    1    1    2  502    0 -0.43968009162E+02  0.66415718170E+02  0.13760415200E+03  0.15904907575E+03  0.41800000000E+01 0. -1.
         -5    1    1    2    0  502  0.32941681048E+02  0.24599644733E+02 -0.92356777743E+01  0.42344622034E+02  0.41800000000E+01 0. -1.
        -11    1    3    3    0    0  0.10607235250E+02 -0.71269602191E+02  0.17399991371E+02  0.74125767016E+02  0.00000000000E+00 0. -1.
         11    1    3    3    0    0  0.41909286387E+00 -0.19745760712E+02 -0.53426740107E+02  0.56960400836E+02  0.00000000000E+00 0.  1.
</event>
<event>
 7    1  0.5831876E-006  0.7907837E+02  0.7561462E-02  0.1331687E+00
          2   -1    0    0  501    0  0.00000000000E+00  0.00000000000E+00  0.12361898488E+03  0.12361898488E+03  0.00000000000E+00 0. -1.
         -2   -1    0    0    0  501 -0.00000000000E+00 -0.00000000000E+00 -0.22955992472E+03  0.22955992472E+03  0.00000000000E+00 0.  1.
         23    2    1    2    0    0 -0.29644464771E+02  0.35645732823E+02 -0.17444630277E+03  0.20321032146E+03  0.93346181702E+02 0.  0.
          5    1    1    2  502    0  0.39140256211E+01 -0.34964221360E+02 -0.31015756628E+02  0.47087853329E+02  0.41800000000E+01 0.  1.
         -5    1    1    2    0  502  0.25730439150E+02 -0.68151146272E+00  0.99521119556E+02  0.10288073481E+03  0.41800000000E+01 0.  1.
        -11    1    3    3    0    0 -0.37240996262E+02 -0.18771969230E+02 -0.39227646480E+02  0.57254579552E+02  0.00000000000E+00 0. -1.
         11    1    3    3    0    0  0.75965314909E+01  0.54417702053E+02 -0.13521865629E+03  0.14595574191E+03  0.00000000000E+00 0.  1.
</event>
<event>
 7    1  0.5831876E-006  0.9818299E+02  0.7561462E-02  0.1284164E+00
         -2   -1    0    0    0  501 -0.00000000000E+00  0.00000000000E+00  0.26034619510E+03  0.26034619510E+03  0.00000000000E+00 0.  1.
          2   -1    0    0  501    0  0.00000000000E+00 -0.00000000000E+00 -0.67788355524E+02  0.67788355524E+02  0.00000000000E+00 0. -1.
         23    2    1    2    0    0 -0.73689632891E+02 -0.22942756756E+02  0.89349805474E+02  0.14853564411E+03  0.90127230901E+02 0.  0.
          5    1    1    2  502    0  0.33117350957E+01 -0.26636934635E+02  0.87974628013E+02  0.92073348207E+02  0.41800000000E+01 0.  1.
         -5    1    1    2    0  502  0.70377897795E+02  0.49579691390E+02  0.15233406094E+02  0.87525558311E+02  0.41800000000E+01 0.  1.
        -11    1    3    3    0    0 -0.47316169608E+02  0.10914657311E+01 -0.50690218281E+01  0.47599434725E+02  0.00000000000E+00 0. -1.
         11    1    3    3    0    0 -0.26373463283E+02 -0.24034222487E+02  0.94418827302E+02  0.10093620939E+03  0.00000000000E+00 0.  1.
</event>
<event>
 7    1  0.5831876E-006  0.9276287E+02  0.7561462E-02  0.1296296E+00
          3   -1    0    0  501    0  0.00000000000E+00  0.00000000000E+00  0.24812240201E+03  0.24812240201E+03  0.00000000000E+00 0. -1.
         -3   -1    0    0    0  501 -0.00000000000E+00 -0.00000000000E+00 -0.52383004403E+02  0.52383004403E+02  0.00000000000E+00 0.  1.
         23    2    1    2    0    0 -0.38657457587E+02 -0.15403626336E+02  0.48199507784E+02  0.11153617365E+03  0.91572128672E+02 0.  0.
          5    1    1    2  502    0  0.49473964899E+02 -0.37676146286E+02  0.64155107642E+02  0.89445600442E+02  0.41800000000E+01 0. -1.
         -5    1    1    2    0  502 -0.10816507312E+02  0.53079772622E+02  0.83384782176E+02  0.99523632322E+02  0.41800000000E+01 0.  1.
        -11    1    3    3    0    0  0.12622624796E+02 -0.12092619359E+02  0.56804990479E+02  0.59433736573E+02  0.00000000000E+00 0. -1.
         11    1    3    3    0    0 -0.51280082384E+02 -0.33110069774E+01 -0.86054826953E+01  0.52102437072E+02  0.00000000000E+00 0.  1.
</event>
<event>
 7    1  0.5831876E-006  0.1112749E+03  0.7561462E-02  0.1258227E+00
         -1   -1    0    0    0  501 -0.00000000000E+00  0.00000000000E+00  0.47876207341E+02  0.47876207341E+02  0.00000000000E+00 0.  1.
          1   -1    0    0  501    0  0.00000000000E+00 -0.00000000000E+00 -0.39521325707E+03  0.39521325707E+03  0.00000000000E+00 0. -1.
         23    2    1    2    0    0 -0.73724602996E+02  0.13981106960E+01 -0.86473844993E+02  0.14453726413E+03  0.89308583316E+02 0.  0.
          5    1    1    2  502    0  0.45422448190E+01  0.34099594325E+02 -0.19041952007E+03  0.19354710110E+03  0.41800000000E+01 0. -1.
         -5    1    1    2    0  502  0.69182358178E+02 -0.35497705021E+02 -0.70443684671E+02  0.10500509918E+03  0.41800000000E+01 0. -1.
        -11    1    3    3    0    0  0.27709428353E+01 -0.27954874700E+02 -0.41635008348E+01  0.28398730305E+02  0.00000000000E+00 0.  1.
         11    1    3    3    0    0 -0.76495545832E+02  0.29352985396E+02 -0.82310344158E+02  0.11613853383E+03  0.00000000000E+00 0. -1.
</event>
<event>
 7    1  0.5831876E-006  0.1904855E+03  0.7561462E-02  0.1158024E+00
         -1   -1    0    0    0  501 -0.00000000000E+00  0.00000000000E+00  0.58656265088E+02  0.58656265088E+02  0.00000000000E+00 0.  1.
          1   -1    0    0  501    0  0.00000000000E+00 -0.00000000000E+00 -0.82663641016E+03  0.82663641016E+03  0.00000000000E+00 0. -1.
         23    2    1    2    0    0 -0.53460681011E+02 -0.17184166903E+03 -0.23893171473E+03  0.31264481458E+03  0.90944005586E+02 0.  0.
          5    1    1    2  502    0  0.30644417775E+02  0.10120032198E+03 -0.45708044519E+03  0.46917010911E+03  0.41800000000E+01 0. -1.
         -5    1    1    2    0  502  0.22816263236E+02  0.70641347046E+02 -0.71967985157E+02  0.10347775156E+03  0.41800000000E+01 0. -1.
        -11    1    3    3    0    0  0.23759061146E+02 -0.63123570268E+02 -0.94064422103E+02  0.11574624666E+03  0.00000000000E+00 0. -1.
         11    1    3    3    0    0 -0.77219742157E+02 -0.10871809876E+03 -0.14486729262E+03  0.19689856792E+03  0.00000000000E+00 0.  1.
</event>
<event>
 7    1  0.5831876E-006  0.1097449E+03  0.7561462E-02  0.1261043E+00
         -2   -1    0    0    0  501 -0.00000000000E+00  0.00000000000E+00  0.33356860531E+02  0.33356860531E+02  0.00000000000E+00 0.  1.
          2   -1    0    0  501    0  0.00000000000E+00 -0.00000000000E+00 -0.44011225179E+03  0.44011225179E+03  0.00000000000E+00 0. -1.
         23    2    1    2    0    0 -0.21665359580E+02  0.51688452248E+01 -0.82390236606E+02  0.12510638890E+03  0.91473234818E+02 0.  0.
          5    1    1    2  502    0  0.69312072010E+02  0.20760505072E+02 -0.17610877273E+03  0.19043879366E+03  0.41800000000E+01 0.  1.
         -5    1    1    2    0  502 -0.47646712430E+02 -0.25929350297E+02 -0.14825638192E+03  0.15792392977E+03  0.41800000000E+01 0.  1.
        -11    1    3    3    0    0  0.35394432992E+02  0.26461721413E+01 -0.20931664559E+02  0.41205614849E+02  0.00000000000E+00 0.  1.
         11    1    3    3    0    0 -0.57059792572E+02  0.25226730835E+01 -0.61458572046E+02  0.83900774048E+02  0.00000000000E+00 0. -1.
</event>
<event>
 7    1  0.5831876E-006  0.1070569E+03  0.7561462E-02  0.1266119E+00
         -1   -1    0    0    0  501 -0.00000000000E+00  0.00000000000E+00  0.49064961341E+02  0.49064961341E+02  0.00000000000E+00 0.  1.
          1   -1    0    0  501    0  0.00000000000E+00 -0.00000000000E+00 -0.31589935431E+03  0.31589935431E+03  0.00000000000E+00 0. -1.
         23    2    1    2    0    0 -0.55457168804E+02 -0.18991505557E+02 -0.13482746427E+03  0.17389147922E+03  0.92863483513E+02 0.  0.
          5    1    1    2  502    0  0.41685401761E+02 -0.31187458264E+02 -0.12855177931E+03  0.13875648683E+03  0.41800000000E+01 0. -1.
         -5    1    1    2    0  502  0.13771767043E+02  0.50178963822E+02 -0.34551493863E+01  0.52316349595E+02  0.41800000000E+01 0. -1.
        -11    1    3    3    0    0  0.55712670420E+01  0.30564754231E+02 -0.34392387254E+02  0.46347378768E+02  0.00000000000E+00 0.  1.
         11    1    3    3    0    0 -0.61028435846E+02 -0.49556259788E+02 -0.10043507702E+03  0.12754410046E+03  0.00000000000E+00 0. -1.
</event>
<event>
 7    1  0.5831876E-006  0.1541312E+03  0.7561462E-02  0.1195487E+00
         -2   -1    0    0    0  501 -0.00000000000E+00  0.00000000000E+00  0.30492771608E+02  0.30492771608E+02  0.00000000000E+00 0.  1.
          2   -1    0    0  501    0  0.00000000000E+00 -0.00000000000E+00 -0.81909781268E+03  0.81909781268E+03  0.00000000000E+00 0. -1.
         23    2    1    2    0    0 -0.10969845047E+03 -0.30662214330E+02 -0.33707087746E+03  0.36740253475E+03  0.91618364357E+02 0.  0.
          5    1    1    2  502    0  0.13246256000E+03  0.42237300561E+02 -0.41279948071E+03  0.43560441117E+03  0.41800000000E+01 0.  1.
         -5    1    1    2    0  502 -0.22764109522E+02 -0.11575086230E+02 -0.38734682906E+02  0.46583638366E+02  0.41800000000E+01 0.  1.
        -11    1    3    3    0    0 -0.88540745983E+02 -0.60117694334E+02 -0.28030191451E+03  0.30003793785E+03  0.00000000000E+00 0. -1.
         11    1    3    3    0    0 -0.21157704492E+02  0.29455480003E+02 -0.56768962951E+02  0.67364596905E+02  0.00000000000E+00 0.  1.
</event>
<event>
 7    1  0.5831876E-006  0.8294833E+02  0.7561462E-02  0.1320887E+00
         -2   -1    0    0    0  501 -0.00000000000E+00  0.00000000000E+00  0.10257211567E+03  0.10257211567E+03  0.00000000000E+00 0.  1.
          2   -1    0    0  501    0  0.00000000000E+00 -0.00000000000E+00 -0.12501418257E+03  0.12501418257E+03  0.00000000000E+00 0. -1.
         23    2    1    2    0    0  0.28387693957E+02 -0.54767619814E+01 -0.21483005574E+01  0.97617319838E+02  0.93213034748E+02 0.  0.
          5    1    1    2  502    0 -0.51557567742E+02 -0.19179571957E+02 -0.57376673525E+02  0.79596443619E+02  0.41800000000E+01 0.  1.
         -5    1    1    2    0  502  0.23169873785E+02  0.24656333938E+02  0.37082907182E+02  0.50372534774E+02  0.41800000000E+01 0.  1.
        -11    1    3    3    0    0  0.36678673547E+02  0.25433515859E+02  0.28782901376E+02  0.53109737654E+02  0.00000000000E+00 0.  1.
         11    1    3    3    0    0 -0.82909795900E+01 -0.30910277841E+02 -0.30931201933E+02  0.44507582183E+02  0.00000000000E+00 0. -1.
</event>
<event>
 7    1  0.5831876E-006  0.1165492E+03  0.7561462E-02  0.1248901E+00
          2   -1    0    0  501    0  0.00000000000E+00  0.00000000000E+00  0.17753880996E+02  0.17753880996E+02  0.00000000000E+00 0. -1.
         -2   -1    0    0    0  501 -0.00000000000E+00 -0.00000000000E+00 -0.95638980873E+03  0.95638980873E+03  0.00000000000E+00 0.  1.
         23    2    1    2    0    0  0.25115568565E+02  0.63710993250E+02 -0.51358317552E+03  0.52580625468E+03  0.89524615848E+02 0.  0.
          5    1    1    2  502    0  0.40109399452E+02  0.27917260059E+01 -0.66178232765E+02  0.77547331033E+02  0.41800000000E+01 0.  1.
         -5    1    1    2    0  502 -0.65224968017E+02 -0.66502719256E+02 -0.35887451945E+03  0.37079010401E+03  0.41800000000E+01 0.  1.
        -11    1    3    3    0    0  0.42819947317E+02  0.68776295569E+02 -0.48557090808E+03  0.49228328582E+03  0.00000000000E+00 0.  1.
         11    1    3    3    0    0 -0.17704378752E+02 -0.50653023189E+01 -0.28012267435E+02  0.33522968864E+02  0.00000000000E+00 0. -1.
</event>
<event>
 7    1  0.5831876E-006  0.1204828E+03  0.7561462E-02  0.1242303E+00
         -1   -1    0    0    0  501 -0.00000000000E+00  0.00000000000E+00  0.11822999888E+02  0.11822999888E+02  0.00000000000E+00 0.  1.
          1   -1    0    0  501    0  0.00000000000E+00 -0.00000000000E+00 -0.14998390507E+04  0.14998390507E+04  0.00000000000E+00 0. -1.
         23    2    1    2    0    0 -0.85099632936E+01 -0.47235874160E+02 -0.41428052330E+03  0.42683507810E+03  0.90863549489E+02 0.  0.
          5    1    1    2  502    0 -0.60954552661E+02  0.40459901036E+02 -0.34223423391E+03  0.34999172039E+03  0.41800000000E+01 0. -1.
         -5    1    1    2    0  502  0.69464515954E+02  0.67759731242E+01 -0.73150129355E+03  0.73483525205E+03  0.41800000000E+01 0.  1.
        -11    1    3    3    0    0 -0.14882384079E+02 -0.71318687732E+02 -0.35721855213E+03  0.36457226247E+03  0.00000000000E+00 0.  1.
         11    1    3    3    0    0  0.63724207852E+01  0.24082813572E+02 -0.57061971173E+02  0.62262815632E+02  0.00000000000E+00 0. -1.
</event>
<event>
 7    1  0.5831876E-006  0.9337023E+02  0.7561462E-02  0.1294890E+00
          2   -1    0    0  501    0  0.00000000000E+00  0.00000000000E+00  0.61026221182E+03  0.61026221182E+03  0.00000000000E+00 0. -1.
         -2   -1    0    0    0  501 -0.00000000000E+00 -0.00000000000E+00 -0.22059722566E+02  0.22059722566E+02  0.00000000000E+00 0.  1.
         23    2    1    2    0    0 -0.34421524769E+02 -0.10800206131E+02  0.26641181312E+03  0.28519263901E+03  0.95174058196E+02 0.  0.
          5    1    1    2  502    0  0.53522553048E+02 -0.18458822786E+02  0.30089158532E+03  0.30620027815E+03  0.41800000000E+01 0. -1.
         -5    1    1    2    0  502 -0.19101028279E+02  0.29259028916E+02  0.20899090811E+02  0.40929017227E+02  0.41800000000E+01 0. -1.
        -11    1    3    3    0    0 -0.57015102093E+02 -0.30626282924E+02  0.12657501729E+03  0.14216161955E+03  0.00000000000E+00 0.  1.
         11    1    3    3    0    0  0.22593577324E+02  0.19826076793E+02  0.13983679584E+03  0.14303101946E+03  0.00000000000E+00 0. -1.
</event>
<event>
 7    1  0.5831876E-006  0.8625322E+02  0.7561462E-02  0.1312187E+00
         -1   -1    0    0    0  501 -0.00000000000E+00  0.00000000000E+00  0.64893043919E+02  0.64893043919E+02  0.00000000000E+00 0.  1.
          1   -1    0    0  501    0  0.00000000000E+00 -0.00000000000E+00 -0.31649067279E+03  0.31649067279E+03  0.00000000000E+00 0. -1.
         23    2    1    2    0    0  0.72617579338E+01 -0.48529936091E+02 -0.51096568825E+01  0.10332166462E+03  0.90781991391E+02 0.  0.
          5    1    1    2  502    0  0.33035517169E+02  0.27343267618E+02 -0.22210859539E+03  0.22624919939E+03  0.41800000000E+01 0. -1.
         -5    1    1    2    0  502 -0.40297275103E+02  0.21186668473E+02 -0.24379376600E+02  0.51812852702E+02  0.41800000000E+01 0.  1.
        -11    1    3    3    0    0  0.34425242735E+02 -0.44466644029E+02  0.25886894173E+02  0.61907277912E+02  0.00000000000E+00 0.  1.
         11    1    3    3    0    0 -0.27163484802E+02 -0.40632920623E+01 -0.30996551055E+02  0.41414386707E+02  0.00000000000E+00 0. -1.
</event>
<event>
 7    1  0.5831876E-006  0.1240912E+03  0.7561462E-02  0.1236496E+00
         -2   -1    0    0    0  501 -0.00000000000E+00  0.00000000000E+00  0.19467658124E+02  0.19467658124E+02  0.00000000000E+00 0.  1.
          2   -1    0    0  501    0  0.00000000000E+00 -0.00000000000E+00 -0.11957495765E+04  0.11957495765E+04  0.00000000000E+00 0. -1.
         23    2    1    2    0    0  0.11275292358E+02 -0.10622812132E+03 -0.55767756166E+03  0.57511577669E+03  0.91336454095E+02 0.  0.
          5    1    1    2  502    0 -0.39890160139E+02  0.72723454089E+02 -0.56271198024E+03  0.56880767466E+03  0.41800000000E+01 0. -1.
         -5    1    1    2    0  502  0.28614867781E+02  0.33504667230E+02 -0.55892376475E+02  0.71293783266E+02  0.41800000000E+01 0. -1.
        -11    1    3    3    0    0 -0.11715874958E+02 -0.94199697026E+02 -0.52437660875E+03  0.53289930799E+03  0.00000000000E+00 0. -1.
         11    1    3    3    0    0  0.22991167316E+02 -0.12028424293E+02 -0.33300952904E+02  0.42216468704E+02  0.00000000000E+00 0.  1.
</event>
<event>
 7    1  0.5831876E-006  0.1078752E+03  0.7561462E-02  0.1264556E+00
          1   -1    0    0  501    0  0.00000000000E+00  0.00000000000E+00  0.90176290426E+03  0.90176290426E+03  0.00000000000E+00 0. -1.
         -1   -1    0    0    0  501 -0.00000000000E+00 -0.00000000000E+00 -0.17144616215E+02  0.17144616215E+02  0.00000000000E+00 0.  1.
         23    2    1    2    0    0 -0.29589722063E+02  0.42629812017E+02  0.27935966557E+03  0.29868136529E+03  0.92064557223E+02 0.  0.
          5    1    1    2  502    0  0.65421764942E+02 -0.64725956711E+02  0.37804982575E+03  0.38911258005E+03  0.41800000000E+01 0.  1.
         -5    1    1    2    0  502 -0.35832042879E+02  0.22096144694E+02  0.22720879671E+03  0.23111357513E+03  0.41800000000E+01 0.  1.
        -11    1    3    3    0    0 -0.40371517312E+02  0.32608912794E+01  0.43981832024E+02  0.59790420388E+02  0.00000000000E+00 0.  1.
         11    1    3    3    0    0  0.10781795248E+02  0.39368920738E+02  0.23537783355E+03  0.23889094490E+03  0.00000000000E+00 0. -1.
</event>
<event>
 7    1  0.5831876E-006  0.1355859E+03  0.7561462E-02  0.1219395E+00
          1   -1    0    0  501    0  0.00000000000E+00  0.00000000000E+00  0.72090579070E+03  0.72090579070E+03  0.00000000000E+00 0. -1.
         -1   -1    0    0    0  501 -0.00000000000E+00 -0.00000000000E+00 -0.28183334084E+02  0.28183334084E+02  0.00000000000E+00 0.  1.
         23    2    1    2    0    0 -0.85338125270E+02 -0.35010984108E+02  0.29373327426E+03  0.32089714325E+03  0.90484117409E+02 0.  0.
          5    1    1    2  502    0  0.22519424427E+02  0.67767467517E+02  0.28561892083E+03  0.29444047695E+03  0.41800000000E+01 0.  1.
         -5    1    1    2    0  502  0.62818700843E+02 -0.32756483409E+02  0.11337026152E+03  0.13375150458E+03  0.41800000000E+01 0.  1.
        -11    1    3    3    0    0  0.18484090575E+02  0.16657987015E+01  0.32875720277E+02  0.37752476388E+02  0.00000000000E+00 0.  1.
         11    1    3    3    0    0 -0.10382221585E+03 -0.36676782810E+02  0.26085755398E+03  0.28314466686E+03  0.00000000000E+00 0. -1.
</event>
<event>
 7    1  0.5831876E-006  0.7286817E+02  0.7561462E-02  0.1350603E+00
          1   -1    0    0  501    0  0.00000000000E+00  0.00000000000E+00  0.13122170437E+03  0.13122170437E+03  0.00000000000E+00 0. -1.
         -1   -1    0    0    0  501 -0.00000000000E+00 -0.00000000000E+00 -0.10534031939E+03  0.10534031939E+03  0.00000000000E+00 0.  1.
         23    2    1    2    0    0  0.78648279906E+01 -0.39908856910E+02 -0.14450186339E+02  0.98979086292E+02  0.89070080604E+02 0.  0.
          5    1    1    2  502    0  0.28691253241E+02  0.50778809530E+02 -0.23572688145E+02  0.63046169878E+02  0.41800000000E+01 0. -1.
         -5    1    1    2    0  502 -0.36556081232E+02 -0.10869952620E+02  0.63904259470E+02  0.74536767594E+02  0.41800000000E+01 0. -1.
        -11    1    3    3    0    0 -0.67875715957E+01 -0.31030470876E+02  0.34631882972E+02  0.46992856576E+02  0.00000000000E+00 0. -1.
         11    1    3    3    0    0  0.14652399586E+02 -0.88783860342E+01 -0.49082069311E+02  0.51986229716E+02  0.00000000000E+00 0.  1.
</event>
<event>
 7    1  0.5831876E-006  0.1403817E+03  0.7561462E-02  0.1212816E+00
          1   -1    0    0  501    0  0.00000000000E+00  0.00000000000E+00  0.10106996467E+03  0.10106996467E+03  0.00000000000E+00 0. -1.
         -1   -1    0    0    0  501 -0.00000000000E+00 -0.00000000000E+00 -0.24995580120E+03  0.24995580120E+03  0.00000000000E+00 0.  1.
         23    2    1    2    0    0 -0.21441122014E+02  0.10661991717E+03 -0.10861781230E+03  0.18044927251E+03  0.94533498568E+02 0.  0.
          5    1    1    2  502    0  0.50173331391E+02 -0.30931299438E+02 -0.63008484176E+02  0.86380842471E+02  0.41800000000E+01 0. -1.
         -5    1    1    2    0  502 -0.28732209377E+02 -0.75688617735E+02  0.22740459942E+02  0.84195650889E+02  0.41800000000E+01 0. -1.
        -11    1    3    3    0    0  0.32791254275E+02  0.19995574269E+02 -0.13150122272E+02  0.40595751786E+02  0.00000000000E+00 0.  1.
         11    1    3    3    0    0 -0.54232376289E+02  0.86624342904E+02 -0.95467690025E+02  0.13985352073E+03  0.00000000000E+00 0. -1.
</event>
<event>
 7    1  0.5831876E-006  0.1300988E+03  0.7561462E-02  0.1227309E+00
          1   -1    0    0  501    0  0.00000000000E+00  0.00000000000E+00  0.11516206624E+03  0.11516206624E+03  0.00000000000E+00 0. -1.
         -1   -1    0    0    0  501 -0.00000000000E+00 -0.00000000000E+00 -0.20055395881E+03  0.20055395881E+03  0.00000000000E+00 0.  1.
         23    2    1    2    0    0 -0.94300999090E+02  0.47546529758E+02 -0.48532713050E+02  0.14790435279E+03  0.91470882883E+02 0.  0.
          5    1    1    2  502    0 -0.11725888016E+02 -0.18685504855E+01  0.31260608911E+02  0.33699940656E+02  0.41800000000E+01 0.  1.
         -5    1    1    2    0  502  0.10602688711E+03 -0.45677979272E+02 -0.68119788425E+02  0.13411173161E+03  0.41800000000E+01 0.  1.
        -11    1    3    3    0    0 -0.10766816544E+03  0.49632369093E+02 -0.25617216460E+02  0.12129323019E+03  0.00000000000E+00 0. -1.
         11    1    3    3    0    0  0.13367166347E+02 -0.20858393348E+01 -0.22915496590E+02  0.26611122597E+02  0.00000000000E+00 0.  1.
</event>
<event>
 7    1  0.5831876E-006  0.2054234E+03  0.7561462E-02  0.1145242E+00
         -2   -1    0    0    0  501 -0.00000000000E+00  0.00000000000E+00  0.88825596157E+02  0.88825596157E+02  0.00000000000E+00 0.  1.
          2   -1    0    0  501    0  0.00000000000E+00 -0.00000000000E+00 -0.72863802328E+03  0.72863802328E+03  0.00000000000E+00 0. -1.
         23    2    1    2    0    0 -0.12309910479E+03 -0.14205362605E+03 -0.99882648447E+02  0.23222423608E+03  0.92838193047E+02 0.  0.
          5    1    1    2  502    0  0.13188093655E+03  0.15075588454E+03 -0.53501237133E+03  0.57129294414E+03  0.41800000000E+01 0. -1.
         -5    1    1    2    0  502 -0.87818317574E+01 -0.87022584946E+01 -0.49174073508E+01  0.13946439222E+02  0.41800000000E+01 0. -1.
        -11    1    3    3    0    0 -0.72256540035E+02 -0.37993838921E+02 -0.37734514964E+01  0.81723792802E+02  0.00000000000E+00 0.  1.
         11    1    3    3    0    0 -0.50842564753E+02 -0.10405978713E+03 -0.96109196950E+02  0.15050044328E+03  0.00000000000E+00 0. -1.
</event>
<event>
 7    1  0.5831876E-006  0.1409648E+03  0.7561462E-02  0.1212037E+00
         -2   -1    0    0    0  501 -0.00000000000E+00  0.00000000000E+00  0.52018731132E+02  0.52018731132E+02  0.00000000000E+00 0.  1.
          2   -1    0    0  501    0  0.00000000000E+00 -0.00000000000E+00 -0.56308380668E+03  0.56308380668E+03  0.00000000000E+00 0. -1.
         23    2    1    2    0    0 -0.10242601969E+03  0.72075248528E+02 -0.16895302353E+03  0.22990781701E+03  0.92879218354E+02 0.  0.
          5    1    1    2  502    0  0.83170520455E+02 -0.39665525429E+02 -0.33387363681E+03  0.34638095666E+03  0.41800000000E+01 0.  1.
         -5    1    1    2    0  502  0.19255499233E+02 -0.32409723098E+02 -0.82384152117E+01  0.38813764146E+02  0.41800000000E+01 0.  1.
        -11    1    3    3    0    0 -0.20711149809E+02  0.66731029581E+02 -0.10444926930E+03  0.12566475995E+03  0.00000000000E+00 0. -1.
         11    1    3    3    0    0 -0.81714869879E+02  0.53442189469E+01 -0.64503754226E+02  0.10424305706E+03  0.00000000000E+00 0.  1.
</event>
<event>
 7    1  0.5831876E-006  0.1565491E+03  0.7561462E-02  0.1192649E+00
          2   -1    0    0  501    0  0.00000000000E+00  0.00000000000E+00  0.26649971502E+03  0.26649971502E+03  0.00000000000E+00 0.  1.
         -2   -1    0    0    0  501 -0.00000000000E+00 -0.00000000000E+00 -0.12138205925E+03  0.12138205925E+03  0.00000000000E+00 0. -1.
         23    2    1    2    0    0  0.88889537012E+02  0.73157344300E+02 -0.24042825834E+02  0.14805731913E+03  0.89942011636E+02 0.  0.
          5    1    1    2  502    0  0.31377190412E+02 -0.25143507880E+02  0.41450500232E+02  0.57899399273E+02  0.41800000000E+01 0.  1.
         -5    1    1    2    0  502 -0.12026672742E+03 -0.48013836420E+02  0.12770998137E+03  0.18192505587E+03  0.41800000000E+01 0.  1.
        -11    1    3    3    0    0  0.55396429727E+02 -0.73787675985E+01 -0.24033360342E+02  0.60834308142E+02  0.00000000000E+00 0.  1.
         11    1    3    3    0    0  0.33493107285E+02  0.80536111899E+02 -0.94654917599E-02  0.87223010983E+02  0.00000000000E+00 0. -1.
</event>
<event>
 7    1  0.5831876E-006  0.2624724E+03  0.7561462E-02  0.1105667E+00
         -1   -1    0    0    0  501 -0.00000000000E+00  0.00000000000E+00  0.10531140342E+03  0.10531140342E+03  0.00000000000E+00 0.  1.
          1   -1    0    0  501    0  0.00000000000E+00 -0.00000000000E+00 -0.68585363342E+03  0.68585363342E+03  0.00000000000E+00 0. -1.
         23    2    1    2    0    0 -0.21591165977E+03 -0.11677330275E+03 -0.29040350133E+03  0.39106117282E+03  0.91327970774E+02 0.  0.
          5    1    1    2  502    0 -0.12526856092E+02  0.10050932780E+02 -0.46852412965E+02  0.49704772144E+02  0.41800000000E+01 0.  1.
         -5    1    1    2    0  502  0.22843851586E+03  0.10672236997E+03 -0.24328631571E+03  0.35039909188E+03  0.41800000000E+01 0.  1.
        -11    1    3    3    0    0 -0.12854571584E+03 -0.10886927993E+03 -0.15028482078E+03  0.22574775421E+03  0.00000000000E+00 0.  1.
         11    1    3    3    0    0 -0.87365943934E+02 -0.79040228187E+01 -0.14011868054E+03  0.16531341861E+03  0.00000000000E+00 0. -1.
</event>
<event>
 7    1  0.5831876E-006  0.1314409E+03  0.7561462E-02  0.1225333E+00
         -2   -1    0    0    0  501 -0.00000000000E+00  0.00000000000E+00  0.47019081228E+02  0.47019081228E+02  0.00000000000E+00 0.  1.
          2   -1    0    0  501    0  0.00000000000E+00 -0.00000000000E+00 -0.75416355519E+03  0.75416355519E+03  0.00000000000E+00 0. -1.
         23    2    1    2    0    0 -0.51630132687E+02 -0.89771763038E+02 -0.95063553958E+02  0.16792521961E+03  0.91854014880E+02 0.  0.
          5    1    1    2  502    0  0.13474410736E+01 -0.25301835954E+02 -0.22100838317E+03  0.22249534003E+03  0.41800000000E+01 0.  1.
         -5    1    1    2    0  502  0.50282691614E+02  0.11507359899E+03 -0.39107253683E+03  0.41076207678E+03  0.41800000000E+01 0.  1.
        -11    1    3    3    0    0  0.21189474078E+01 -0.34108606510E+02 -0.82808070044E+02  0.89582718426E+02  0.00000000000E+00 0. -1.
         11    1    3    3    0    0 -0.53749080095E+02 -0.55663156528E+02 -0.12255483914E+02  0.78342501184E+02  0.00000000000E+00 0.  1.
</event>
<event>
 7    1  0.5831876E-006  0.9958400E+02  0.7561462E-02  0.1281173E+00
          4   -1    0    0  501    0  0.00000000000E+00  0.00000000000E+00  0.26899436886E+03  0.26899436886E+03  0.00000000000E+00 0. -1.
         -4   -1    0    0    0  501 -0.00000000000E+00 -0.00000000000E+00 -0.69370641137E+02  0.69370641137E+02  0.00000000000E+00 0.  1.
         23    2    1    2    0    0 -0.55034765736E+02 -0.47536196961E+02  0.39325039901E+02  0.12239707050E+03  0.90255574020E+02 0.  0.
          5    1    1    2  502    0 -0.60710811040E+01 -0.19058145522E+01  0.13215455477E+03  0.13237367148E+03  0.41800000000E+01 0.  1.
         -5    1    1    2    0  502  0.61105846840E+02  0.49442011513E+02  0.28144133053E+02  0.83594268020E+02  0.41800000000E+01 0.  1.
        -11    1    3    3    0    0  0.19692891662E+02  0.63714855506E+01 -0.31491306035E+01  0.20936160911E+02  0.00000000000E+00 0.  1.
         11    1    3    3    0    0 -0.74727657397E+02 -0.53907682511E+02  0.42474170504E+02  0.10146090959E+03  0.00000000000E+00 0. -1.
</event>
<event>
 7    1  0.5831876E-006  0.1688337E+03  0.7561462E-02  0.1179070E+00
         -2   -1    0    0    0  501 -0.00000000000E+00  0.00000000000E+00  0.61775631544E+02  0.61775631544E+02  0.00000000000E+00 0.  1.
          2   -1    0    0  501    0  0.00000000000E+00 -0.00000000000E+00 -0.69781729537E+03  0.69781729537E+03  0.00000000000E+00 0. -1.
         23    2    1    2    0    0  0.87877040703E+02  0.96728709566E+02 -0.90479102323E+02  0.18481975081E+03  0.94302994625E+02 0.  0.
          5    1    1    2  502    0 -0.10631521233E+03 -0.34770917495E+02 -0.40160643794E+03  0.41691383339E+03  0.41800000000E+01 0. -1.
         -5    1    1    2    0  502  0.18438171628E+02 -0.61957792071E+02 -0.14395612357E+03  0.15785934272E+03  0.41800000000E+01 0. -1.
        -11    1    3    3    0    0  0.18666082426E+02  0.89432865901E+02 -0.46742794544E+02  0.10262333545E+03  0.00000000000E+00 0.  1.
         11    1    3    3    0    0  0.69210958277E+02  0.72958436643E+01 -0.43736307778E+02  0.82196415363E+02  0.00000000000E+00 0. -1.
</event>
<event>
 7    1  0.5831876E-006  0.8819244E+02  0.7561462E-02  0.1307289E+00
          3   -1    0    0  501    0  0.00000000000E+00  0.00000000000E+00  0.81506177546E+03  0.81506177546E+03  0.00000000000E+00 0. -1.
         -3   -1    0    0    0  501 -0.00000000000E+00 -0.00000000000E+00 -0.19392508566E+02  0.19392508566E+02  0.00000000000E+00 0.  1.
         23    2    1    2    0    0  0.33958508833E+02 -0.13154778467E+02  0.18985554164E+03  0.21478837991E+03  0.93609256683E+02 0.  0.
          5    1    1    2  502    0 -0.18527990233E+02  0.61089461855E+02  0.47741240447E+03  0.48167964988E+03  0.41800000000E+01 0. -1.
         -5    1    1    2    0  502 -0.15430518600E+02 -0.47934683388E+02  0.12840132079E+03  0.13798625423E+03  0.41800000000E+01 0. -1.
        -11    1    3    3    0    0 -0.88236887953E+01  0.99166085900E+01 -0.48311130633E+01  0.14125730541E+02  0.00000000000E+00 0.  1.
         11    1    3    3    0    0  0.42782197628E+02 -0.23071387057E+02  0.19468665470E+03  0.20066264937E+03  0.00000000000E+00 0. -1.
</event>
<event>
 7    1  0.5831876E-006  0.1330097E+03  0.7561462E-02  0.1223057E+00
         -2   -1    0    0    0  501 -0.00000000000E+00  0.00000000000E+00  0.26681854110E+02  0.26681854110E+02  0.00000000000E+00 0.  1.
          2   -1    0    0  501    0  0.00000000000E+00 -0.00000000000E+00 -0.98481648017E+03  0.98481648017E+03  0.00000000000E+00 0. -1.
         23    2    1    2    0    0  0.41740656575E+02  0.30642226541E+02 -0.13070544914E+03  0.16682046870E+03  0.89799364602E+02 0.  0.
          5    1    1    2  502    0 -0.60131916850E+02 -0.85365720915E+02 -0.64122437911E+03  0.64968402358E+03  0.41800000000E+01 0. -1.
         -5    1    1    2    0  502  0.18391260275E+02  0.54723494374E+02 -0.18620479781E+03  0.19499384200E+03  0.41800000000E+01 0.  1.
        -11    1    3    3    0    0  0.29003713604E+02  0.62730751520E+02 -0.85474007158E+02  0.10991891779E+03  0.00000000000E+00 0.  1.
         11    1    3    3    0    0  0.12736942970E+02 -0.32088524979E+02 -0.45231441984E+02  0.56901550906E+02  0.00000000000E+00 0. -1.
</event>
<event>
 7    1  0.5831876E-006  0.1163373E+03  0.7561462E-02  0.1249265E+00
         -2   -1    0    0    0  501 -0.00000000000E+00  0.00000000000E+00  0.95762455833E+02  0.95762455833E+02  0.00000000000E+00 0.  1.
          2   -1    0    0  501    0  0.00000000000E+00 -0.00000000000E+00 -0.16423082118E+03  0.16423082118E+03  0.00000000000E+00 0. -1.
         23    2    1    2    0    0 -0.14539787021E+02 -0.54005860468E+02 -0.18172606544E+01  0.10761845545E+03  0.91926009077E+02 0.  0.
          5    1    1    2  502    0 -0.49750872783E+02  0.50517593020E+02 -0.46038096467E+02  0.84641333127E+02  0.41800000000E+01 0. -1.
         -5    1    1    2    0  502  0.64290659804E+02  0.34882674479E+01 -0.20613008223E+02  0.67733488437E+02  0.41800000000E+01 0. -1.
        -11    1    3    3    0    0 -0.47176604436E+02 -0.24635460858E+02  0.22091427980E+02  0.57624379633E+02  0.00000000000E+00 0.  1.
         11    1    3    3    0    0  0.32636817415E+02 -0.29370399610E+02 -0.23908688634E+02  0.49994075814E+02  0.00000000000E+00 0. -1.
</event>
<event>
 7    1  0.5831876E-006  0.1660286E+03  0.7561462E-02  0.1182054E+00
          2   -1    0    0  501    0  0.00000000000E+00  0.00000000000E+00  0.78291652541E+03  0.78291652541E+03  0.00000000000E+00 0. -1.
         -2   -1    0    0    0  501 -0.00000000000E+00 -0.00000000000E+00 -0.35832926036E+02  0.35832926036E+02  0.00000000000E+00 0.  1.
         23    2    1    2    0    0 -0.11680727167E+03  0.49537235526E+02  0.32678543801E+03  0.36224904078E+03  0.91311382840E+02 0.  0.
          5    1    1    2  502    0  0.43394939016E+02  0.40960807816E+02  0.11367325586E+03  0.12845228689E+03  0.41800000000E+01 0.  1.
         -5    1    1    2    0  502  0.73412332653E+02 -0.90498043343E+02  0.30662490550E+03  0.32804812377E+03  0.41800000000E+01 0.  1.
        -11    1    3    3    0    0 -0.15774841208E+02 -0.25360305605E+02  0.50203543623E+02  0.58415635817E+02  0.00000000000E+00 0.  1.
         11    1    3    3    0    0 -0.10103243046E+03  0.74897541131E+02  0.27658189438E+03  0.30383340497E+03  0.00000000000E+00 0. -1.
</event>
<event>
 7    1  0.5831876E-006  0.8977230E+02  0.7561462E-02  0.1303404E+00
         -2   -1    0    0    0  501 -0.00000000000E+00  0.00000000000E+00  0.26616073873E+03  0.26616073873E+03  0.00000000000E+00 0.  1.
          2   -1    0    0  501    0  0.00000000000E+00 -0.00000000000E+00 -0.86751639831E+02  0.86751639831E+02  0.00000000000E+00 0. -1.
         23    2    1    2    0    0 -0.35849158774E+02  0.18350852517E+01  0.15017770958E+03  0.17926917696E+03  0.91079984810E+02 0.  0.
          5    1    1    2  502    0 -0.14710573457E+02 -0.22480820819E+02 -0.61736547319E+02  0.67458594345E+02  0.41800000000E+01 0. -1.
         -5    1    1    2    0  502  0.50559732231E+02  0.20645735567E+02  0.90967936646E+02  0.10618460726E+03  0.41800000000E+01 0.  1.
        -11    1    3    3    0    0  0.30708881686E+02 -0.29670876553E+01  0.40968465584E+02  0.51286003898E+02  0.00000000000E+00 0. -1.
         11    1    3    3    0    0 -0.66558040460E+02  0.48021729070E+01  0.10920924399E+03  0.12798317307E+03  0.00000000000E+00 0.  1.
</event>
<event>
 7    1  0.5831876E-006  0.1352789E+03  0.7561462E-02  0.1219827E+00
         -1   -1    0    0    0  501 -0.00000000000E+00  0.00000000000E+00  0.80645671434E+03  0.80645671434E+03  0.00000000000E+00 0.  1.
          1   -1    0    0  501    0  0.00000000000E+00 -0.00000000000E+00 -0.28690788124E+02  0.28690788124E+02  0.00000000000E+00 0. -1.
         23    2    1    2    0    0 -0.61643431794E+02  0.84288603735E+02  0.30410267151E+03  0.33424144260E+03  0.91293076040E+02 0.  0.
          5    1    1    2  502    0  0.27883484057E+02  0.11771097892E+02  0.28365470483E+03  0.28529548087E+03  0.41800000000E+01 0.  1.
         -5    1    1    2    0  502  0.33759947737E+02 -0.96059701627E+02  0.19000854987E+03  0.21561057899E+03  0.41800000000E+01 0.  1.
        -11    1    3    3    0    0  0.96389054498E+01  0.62960771998E+02  0.12481056284E+03  0.14012367361E+03  0.00000000000E+00 0.  1.
         11    1    3    3    0    0 -0.71282337244E+02  0.21327831737E+02  0.17929210867E+03  0.19411776900E+03  0.00000000000E+00 0. -1.
</event>
<event>
 7    1  0.5831876E-006  0.1264829E+03  0.7561462E-02  0.1232770E+00
          2   -1    0    0  501    0  0.00000000000E+00  0.00000000000E+00  0.40209657396E+03  0.40209657396E+03  0.00000000000E+00 0. -1.
         -2   -1    0    0    0  501 -0.00000000000E+00 -0.00000000000E+00 -0.72946008571E+02  0.72946008571E+02  0.00000000000E+00 0.  1.
         23    2    1    2    0    0 -0.98433685550E+02  0.90931223361E+00  0.27438196126E+02  0.13391338709E+03  0.86544343168E+02 0.  0.
          5    1    1    2  502    0 -0.25900010487E+02 -0.80403546852E+01  0.22905449014E+02  0.35743388776E+02  0.41800000000E+01 0.  1.
         -5    1    1    2    0  502  0.12433369604E+03  0.71310424516E+01  0.27880692025E+03  0.30538580667E+03  0.41800000000E+01 0.  1.
        -11    1    3    3    0    0 -0.32553530004E+02  0.10802994787E+02  0.52521175768E+02  0.62728868284E+02  0.00000000000E+00 0. -1.
         11    1    3    3    0    0 -0.65880155546E+02 -0.98936825532E+01 -0.25082979643E+02  0.71184518802E+02  0.00000000000E+00 0.  1.
</event>
<event>
 7    1  0.5831876E-006  0.1316142E+03  0.7561462E-02  0.1225080E+00
          2   -1    0    0  501    0  0.00000000000E+00  0.00000000000E+00  0.50534466218E+02  0.50534466218E+02  0.00000000000E+00 0. -1.
         -2   -1    0    0    0  501 -0.00000000000E+00 -0.00000000000E+00 -0.56013543912E+03  0.56013543912E+03  0.00000000000E+00 0.  1.
         23    2    1    2    0    0 -0.30837176812E+02 -0.95088704130E+02 -0.38122028199E+03  0.40543369768E+03  0.95156642905E+02 0.  0.
          5    1    1    2  502    0 -0.13974542275E+02  0.92979709358E+02 -0.32974323368E+02  0.99726087789E+02  0.41800000000E+01 0. -1.
         -5    1    1    2    0  502  0.44811719086E+02  0.21089947720E+01 -0.95406367543E+02  0.10551011987E+03  0.41800000000E+01 0. -1.
        -11    1    3    3    0    0 -0.54989944149E+02 -0.72418827873E+02 -0.18170581824E+03  0.20318805322E+03  0.00000000000E+00 0. -1.
         11    1    3    3    0    0  0.24152767338E+02 -0.22669876257E+02 -0.19951446375E+03  0.20224564446E+03  0.00000000000E+00 0.  1.
</event>
<event>
 7    1  0.5831876E-006  0.9640701E+02  0.7561462E-02  0.1288038E+00
         -2   -1    0    0    0  501 -0.00000000000E+00  0.00000000000E+00  0.25173212968E+03  0.25173212968E+03  0.00000000000E+00 0.  1.
          2   -1    0    0  501    0  0.00000000000E+00 -0.00000000000E+00 -0.68151052970E+02  0.68151052970E+02  0.00000000000E+00 0. -1.
         23    2    1    2    0    0  0.15229447889E+02  0.29972960382E-01  0.16704741035E+03  0.19276648790E+03  0.94984970238E+02 0.  0.
          5    1    1    2  502    0  0.44471004447E+02  0.19529930120E+02  0.36682260686E+02  0.61009417765E+02  0.41800000000E+01 0. -1.
         -5    1    1    2    0  502 -0.59700452336E+02 -0.19559903081E+02 -0.20148594323E+02  0.66107276989E+02  0.41800000000E+01 0. -1.
        -11    1    3    3    0    0  0.45041868150E+02  0.15347495223E+02  0.42543559211E+02  0.63830008040E+02  0.00000000000E+00 0. -1.
         11    1    3    3    0    0 -0.29812420261E+02 -0.15317522262E+02  0.12450385114E+03  0.12893647986E+03  0.00000000000E+00 0.  1.
</event>
<event>
 7    1  0.5831876E-006  0.4254405E+03  0.7561462E-02  0.1035310E+00
          1   -1    0    0  501    0  0.00000000000E+00  0.00000000000E+00  0.41455571650E+03  0.41455571650E+03  0.00000000000E+00 0. -1.
         -1   -1    0    0    0  501 -0.00000000000E+00 -0.00000000000E+00 -0.51647579037E+03  0.51647579037E+03  0.00000000000E+00 0.  1.
         23    2    1    2    0    0 -0.56831294594E+02  0.13162950032E+02 -0.99398010235E+02  0.14777172290E+03  0.92484908776E+02 0.  0.
          5    1    1    2  502    0  0.41296672626E+03 -0.80373533284E+02 -0.67043924881E+01  0.42078954731E+03  0.41800000000E+01 0. -1.
         -5    1    1    2    0  502 -0.35613543166E+03  0.67210583253E+02  0.41823288565E+01  0.36247023666E+03  0.41800000000E+01 0.  1.
        -11    1    3    3    0    0 -0.23157061577E+02  0.22978686557E+02 -0.10701624679E+03  0.11187826694E+03  0.00000000000E+00 0.  1.
         11    1    3    3    0    0 -0.33674233017E+02 -0.98157365253E+01  0.76182365504E+01  0.35893455963E+02  0.00000000000E+00 0. -1.
</event>
<event>
 7    1  0.5831876E-006  0.7958148E+02  0.7561462E-02  0.1330243E+00
          1   -1    0    0  501    0  0.00000000000E+00  0.00000000000E+00  0.59165175309E+03  0.59165175309E+03  0.00000000000E+00 0. -1.
         -1   -1    0    0    0  501 -0.00000000000E+00 -0.00000000000E+00 -0.24112464232E+02  0.24112464232E+02  0.00000000000E+00 0.  1.
         23    2    1    2    0    0 -0.17550725468E+02  0.63429101123E+01  0.13052941957E+03  0.16082173973E+03  0.92073026037E+02 0.  0.
          5    1    1    2  502    0  0.25386623096E+02 -0.52650645131E+02  0.11079797533E+03  0.12534047552E+03  0.41800000000E+01 0. -1.
         -5    1    1    2    0  502 -0.78358976279E+01  0.46307735019E+02  0.32621189395E+03  0.32960200207E+03  0.41800000000E+01 0. -1.
        -11    1    3    3    0    0  0.12575934369E+02 -0.12617166106E+02 -0.67138030584E+01  0.19037388406E+02  0.00000000000E+00 0.  1.
         11    1    3    3    0    0 -0.30126659837E+02  0.18960076219E+02  0.13724322263E+03  0.14178435133E+03  0.00000000000E+00 0. -1.
</event>
<event>
 7    1  0.5831876E-006  0.1487460E+03  0.7561462E-02  0.1202022E+00
          2   -1    0    0  501    0  0.00000000000E+00  0.00000000000E+00  0.12994244181E+04  0.12994244181E+04  0.00000000000E+00 0. -1.
         -2   -1    0    0    0  501 -0.00000000000E+00 -0.00000000000E+00 -0.42034662917E+02  0.42034662917E+02  0.00000000000E+00 0.  1.
         23    2    1    2    0    0 -0.13412058909E+03  0.58748314827E+02  0.18591096289E+03  0.25281127909E+03  0.88943576491E+02 0.  0.
          5    1    1    2  502    0  0.78585624476E+02 -0.44098850475E+02  0.26146609658E+03  0.27659067419E+03  0.41800000000E+01 0. -1.
         -5    1    1    2    0  502  0.55534964609E+02 -0.14649464352E+02  0.81001269572E+03  0.81205712775E+03  0.41800000000E+01 0. -1.
        -11    1    3    3    0    0 -0.10877875541E+03  0.60174481345E+02  0.19004764935E+03  0.22709446241E+03  0.00000000000E+00 0. -1.
         11    1    3    3    0    0 -0.25341833678E+02 -0.14261665176E+01 -0.41366864613E+01  0.25716816677E+02  0.00000000000E+00 0.  1.
</event>
<event>
 7    1  0.5831876E-006  0.8837638E+02  0.7561462E-02  0.1306832E+00
          2   -1    0    0  501    0  0.00000000000E+00  0.00000000000E+00  0.10147543415E+03  0.10147543415E+03  0.00000000000E+00 0. -1.
         -2   -1    0    0    0  501 -0.00000000000E+00 -0.00000000000E+00 -0.12216979732E+03  0.12216979732E+03  0.00000000000E+00 0.  1.
         23    2    1    2    0    0 -0.18993026713E+02 -0.15995519986E+02 -0.24864121128E+02  0.96044566773E+02  0.89385359897E+02 0.  0.
          5    1    1    2  502    0 -0.15931200132E+02  0.62820647021E+02  0.18067008406E+02  0.67410132936E+02  0.41800000000E+01 0.  1.
         -5    1    1    2    0  502  0.34924226845E+02 -0.46825127035E+02 -0.13897250448E+02  0.60190531752E+02  0.41800000000E+01 0.  1.
        -11    1    3    3    0    0 -0.26876987589E+02  0.79552975737E+01 -0.51955736118E+02  0.59034377586E+02  0.00000000000E+00 0.  1.
         11    1    3    3    0    0  0.78839608762E+01 -0.23950817560E+02  0.27091614991E+02  0.37010189187E+02  0.00000000000E+00 0. -1.
</event>
<event>
 7    1  0.5831876E-006  0.1011443E+03  0.7561462E-02  0.1277908E+00
          3   -1    0    0  501    0  0.00000000000E+00  0.00000000000E+00  0.90412569411E+02  0.90412569411E+02  0.00000000000E+00 0. -1.
         -3   -1    0    0    0  501 -0.00000000000E+00 -0.00000000000E+00 -0.16061380234E+03  0.16061380234E+03  0.00000000000E+00 0.  1.
         23    2    1    2    0    0 -0.19200129069E+02 -0.84863657698E+01 -0.78295903142E+02  0.12392418106E+03  0.93735216653E+02 0.  0.
          5    1    1    2  502    0  0.58153952166E+02  0.43395806669E+02 -0.55202635745E+01  0.72890492514E+02  0.41800000000E+01 0.  1.
         -5    1    1    2    0  502 -0.38953823096E+02 -0.34909440900E+02  0.13614933789E+02  0.54211698182E+02  0.41800000000E+01 0.  1.
        -11    1    3    3    0    0 -0.37462786814E+02  0.20626935454E+02 -0.78683660130E+02  0.89554727589E+02  0.00000000000E+00 0.  1.
         11    1    3    3    0    0  0.18262657745E+02 -0.29113301224E+02  0.38775698756E+00  0.34369453466E+02  0.00000000000E+00 0. -1.
</event>
<event>
 7    1  0.5831876E-006  0.5324353E+02  0.7561462E-02  0.1428593E+00
         -1   -1    0    0    0  501 -0.00000000000E+00  0.00000000000E+00  0.45146416998E+02  0.45146416998E+02  0.00000000000E+00 0.  1.
          1   -1    0    0  501    0  0.00000000000E+00 -0.00000000000E+00 -0.40267977158E+03  0.40267977158E+03  0.00000000000E+00 0. -1.
         23    2    1    2    0    0  0.18535782408E+02  0.78498363725E+00 -0.37048204569E+02  0.10329208650E+03  0.94617621209E+02 0.  0.
          5    1    1    2  502    0 -0.21229361560E+02 -0.86884451288E+01  0.58950274857E+00  0.23323695772E+02  0.41800000000E+01 0.  1.
         -5    1    1    2    0  502  0.26935791515E+01  0.79034614916E+01 -0.32107465276E+03  0.32121040630E+03  0.41800000000E+01 0.  1.
        -11    1    3    3    0    0  0.44862504474E+02  0.99574366007E+01  0.11443369204E+02  0.47357634549E+02  0.00000000000E+00 0.  1.
         11    1    3    3    0    0 -0.26326722066E+02 -0.91724529634E+01 -0.48491573773E+02  0.55934451952E+02  0.00000000000E+00 0. -1.
</event>
<event>
 7    1  0.5831876E-006  0.1297523E+03  0.7561462E-02  0.1227824E+00
          2   -1    0    0  501    0  0.00000000000E+00  0.00000000000E+00  0.31003641125E+03  0.31003641125E+03  0.00000000000E+00 0. -1.
         -2   -1    0    0    0  501 -0.00000000000E+00 -0.00000000000E+00 -0.77117706580E+02  0.77117706580E+02  0.00000000000E+00 0.  1.
         23    2    1    2    0    0 -0.74074180941E+02  0.73661417855E+02  0.62227700361E+02  0.15115394854E+03  0.89789981092E+02 0.  0.
          5    1    1    2  502    0  0.10100235689E+03 -0.61351421726E+02  0.16872093774E+03  0.20603325042E+03  0.41800000000E+01 0.  1.
         -5    1    1    2    0  502 -0.26928175945E+02 -0.12309996129E+02  0.19700665634E+01  0.29966918872E+02  0.41800000000E+01 0.  1.
        -11    1    3    3    0    0 -0.73356367834E+02  0.52567645765E+02  0.82218410215E+02  0.12208350036E+03  0.00000000000E+00 0. -1.
         11    1    3    3    0    0 -0.71781310680E+00  0.21093772091E+02 -0.19990709853E+02  0.29070448175E+02  0.00000000000E+00 0.  1.
</event>
<event>
 7    1  0.5831876E-006  0.9005780E+02  0.7561462E-02  0.1302712E+00
          2   -1    0    0  501    0  0.00000000000E+00  0.00000000000E+00  0.64892737673E+03  0.64892737673E+03  0.00000000000E+00 0. -1.
         -2   -1    0    0    0  501 -0.00000000000E+00 -0.00000000000E+00 -0.24839989524E+02  0.24839989524E+02  0.00000000000E+00 0.  1.
         23    2    1    2    0    0  0.46095635328E+02 -0.25581807081E+01  0.15783797683E+03  0.18882708694E+03  0.92798113919E+02 0.  0.
          5    1    1    2  502    0  0.97439403440E+01 -0.14886688251E+02  0.36495897093E+01  0.18637321845E+02  0.41800000000E+01 0. -1.
         -5    1    1    2    0  502 -0.55839575672E+02  0.17444868960E+02  0.46259982066E+03  0.46630295746E+03  0.41800000000E+01 0. -1.
        -11    1    3    3    0    0 -0.27328413547E+02  0.91870545156E+01  0.36435841375E+02  0.46463046546E+02  0.00000000000E+00 0.  1.
         11    1    3    3    0    0  0.73424048875E+02 -0.11745235224E+02  0.12140213546E+03  0.14236404039E+03  0.00000000000E+00 0. -1.
</event>
<event>
 7    1  0.5831876E-006  0.7920513E+02  0.7561462E-02  0.1331322E+00
          1   -1    0    0  501    0  0.00000000000E+00  0.00000000000E+00  0.18741506481E+03  0.18741506481E+03  0.00000000000E+00 0. -1.
         -1   -1    0    0    0  501 -0.00000000000E+00 -0.00000000000E+00 -0.71761193794E+02  0.71761193794E+02  0.00000000000E+00 0.  1.
         23    2    1    2    0    0  0.24467118009E+02  0.19149928979E+02  0.22325113813E+02  0.10004341451E+03  0.92438706372E+02 0.  0.
          5    1    1    2  502    0 -0.41521338617E+02 -0.34685910087E+02 -0.82461750739E+01  0.54887209097E+02  0.41800000000E+01 0. -1.
         -5    1    1    2    0  502  0.17054220608E+02  0.15535981108E+02  0.10157493228E+03  0.10424563500E+03  0.41800000000E+01 0. -1.
        -11    1    3    3    0    0  0.49670513557E+02  0.23789807897E+02  0.40724626704E+02  0.68495329015E+02  0.00000000000E+00 0. -1.
         11    1    3    3    0    0 -0.25203395548E+02 -0.46398789180E+01 -0.18399512891E+02  0.31548085491E+02  0.00000000000E+00 0.  1.
</event>
<event>
 7    1  0.5831876E-006  0.1793905E+03  0.7561462E-02  0.1168394E+00
         -2   -1    0    0    0  501 -0.00000000000E+00  0.00000000000E+00  0.33736036061E+02  0.33736036061E+02  0.00000000000E+00 0. -1.
          2   -1    0    0  501    0  0.00000000000E+00 -0.00000000000E+00 -0.96615317319E+03  0.96615317319E+03  0.00000000000E+00 0.  1.
         23    2    1    2    0    0 -0.13456656187E+03 -0.54214170979E+02 -0.40273776990E+03  0.43663565360E+03  0.86056067671E+02 0.  0.
          5    1    1    2  502    0  0.14521667361E+03  0.10663370311E+02 -0.38065289083E+03  0.40757292041E+03  0.41800000000E+01 0. -1.
         -5    1    1    2    0  502 -0.10650111735E+02  0.43550800668E+02 -0.14902647640E+03  0.15568063523E+03  0.41800000000E+01 0. -1.
        -11    1    3    3    0    0 -0.44535045371E+01 -0.36500948758E+02 -0.10408021983E+03  0.11038498595E+03  0.00000000000E+00 0.  1.
         11    1    3    3    0    0 -0.13011305733E+03 -0.17713222220E+02 -0.29865755007E+03  0.32625066765E+03  0.00000000000E+00 0. -1.
</event>
<event>
 7    1  0.5831876E-006  0.1498543E+03  0.7561462E-02  0.1200652E+00
         -1   -1    0    0    0  501 -0.00000000000E+00  0.00000000000E+00  0.11418760800E+03  0.11418760800E+03  0.00000000000E+00 0.  1.
          1   -1    0    0  501    0  0.00000000000E+00 -0.00000000000E+00 -0.26269640741E+03  0.26269640741E+03  0.00000000000E+00 0. -1.
         23    2    1    2    0    0  0.13154028828E+03  0.18173689890E+02 -0.45100698714E+02  0.16718422346E+03  0.91012972185E+02 0.  0.
          5    1    1    2  502    0 -0.12698435278E+03  0.14130872630E+02 -0.33059684509E+02  0.13204212415E+03  0.41800000000E+01 0.  1.
         -5    1    1    2    0  502 -0.45559355008E+01 -0.32304562520E+02 -0.70348416184E+02  0.77657667796E+02  0.41800000000E+01 0.  1.
        -11    1    3    3    0    0  0.88480431473E+02 -0.75846370455E+01 -0.68175806968E+02  0.11195648319E+03  0.00000000000E+00 0. -1.
         11    1    3    3    0    0  0.43059856805E+02  0.25758326935E+02  0.23075108255E+02  0.55227740272E+02  0.00000000000E+00 0.  1.
</event>
<event>
 7    1  0.5831876E-006  0.1395070E+03  0.7561462E-02  0.1213994E+00
          4   -1    0    0  501    0  0.00000000000E+00  0.00000000000E+00  0.29272294607E+03  0.29272294607E+03  0.00000000000E+00 0. -1.
         -4   -1    0    0    0  501 -0.00000000000E+00 -0.00000000000E+00 -0.85369936407E+02  0.85369936407E+02  0.00000000000E+00 0.  1.
         23    2    1    2    0    0 -0.32819887061E+02  0.10753713914E+03  0.71298568576E+02  0.16176213714E+03  0.91881020075E+02 0.  0.
          5    1    1    2  502    0 -0.31310202721E+02 -0.29838220993E+02  0.10036606643E+03  0.10936849600E+03  0.41800000000E+01 0.  1.
         -5    1    1    2    0  502  0.64130089782E+02 -0.77698918151E+02  0.35688374658E+02  0.10696224934E+03  0.41800000000E+01 0.  1.
        -11    1    3    3    0    0  0.21931244936E+02  0.53416125143E+02  0.61160021738E+02  0.84111890888E+02  0.00000000000E+00 0. -1.
         11    1    3    3    0    0 -0.54751131997E+02  0.54121014001E+02  0.10138546838E+02  0.77650246255E+02  0.00000000000E+00 0.  1.
</event>
<event>
 7    1  0.5831876E-006  0.8889643E+02  0.7561462E-02  0.1305546E+00
         -2   -1    0    0    0  501 -0.00000000000E+00  0.00000000000E+00  0.40254037026E+02  0.40254037026E+02  0.00000000000E+00 0.  1.
          2   -1    0    0  501    0  0.00000000000E+00 -0.00000000000E+00 -0.33335250464E+03  0.33335250464E+03  0.00000000000E+00 0. -1.
         23    2    1    2    0    0 -0.21015529187E+02  0.14382318851E+02 -0.71982153834E+02  0.11828325827E+03  0.90338226423E+02 0.  0.
          5    1    1    2  502    0 -0.22546901480E+02 -0.60129329619E+02 -0.11156687135E+03  0.12879649929E+03  0.41800000000E+01 0.  1.
         -5    1    1    2    0  502  0.43562430667E+02  0.45747010768E+02 -0.10954944244E+03  0.12652678411E+03  0.41800000000E+01 0.  1.
        -11    1    3    3    0    0  0.81140784202E+01  0.18979207665E+02 -0.83955173359E+02  0.86455304788E+02  0.00000000000E+00 0. -1.
         11    1    3    3    0    0 -0.29129607607E+02 -0.45968888145E+01  0.11973019525E+02  0.31827953479E+02  0.00000000000E+00 0.  1.
</event>
<event>
 7    1  0.5831876E-006  0.8888361E+02  0.7561462E-02  0.1305578E+00
          1   -1    0    0  501    0  0.00000000000E+00  0.00000000000E+00  0.21157802312E+03  0.21157802312E+03  0.00000000000E+00 0. -1.
         -1   -1    0    0    0  501 -0.00000000000E+00 -0.00000000000E+00 -0.73642777192E+02  0.73642777192E+02  0.00000000000E+00 0.  1.
         23    2    1    2    0    0 -0.53745816147E+02  0.19245310858E+02  0.51629582839E+02  0.12288328424E+03  0.95789837557E+02 0.  0.
          5    1    1    2  502    0  0.72906779038E+02 -0.46650032719E+02  0.21482607856E+02  0.89278210234E+02  0.41800000000E+01 0. -1.
         -5    1    1    2    0  502 -0.19160962891E+02  0.27404721861E+02  0.64823055229E+02  0.73059305830E+02  0.41800000000E+01 0. -1.
        -11    1    3    3    0    0 -0.39552753635E+02  0.11243860139E+02 -0.22576225145E+02  0.46909814034E+02  0.00000000000E+00 0.  1.
         11    1    3    3    0    0 -0.14193062512E+02  0.80014507185E+01  0.74205807984E+02  0.75973470210E+02  0.00000000000E+00 0. -1.
</event>
<event>
 7    1  0.5831876E-006  0.1434912E+03  0.7561462E-02  0.1208707E+00
         -2   -1    0    0    0  501 -0.00000000000E+00  0.00000000000E+00  0.24560146837E+02  0.24560146837E+02  0.00000000000E+00 0.  1.
          2   -1    0    0  501    0  0.00000000000E+00 -0.00000000000E+00 -0.92920693511E+03  0.92920693511E+03  0.00000000000E+00 0. -1.
         23    2    1    2    0    0 -0.69647704987E+02  0.79770484020E+02 -0.35765255554E+03  0.38274055255E+03  0.85795379553E+02 0.  0.
          5    1    1    2  502    0  0.93577907536E+02 -0.31122717191E+02 -0.24429948900E+03  0.26348654810E+03  0.41800000000E+01 0. -1.
         -5    1    1    2    0  502 -0.23930202549E+02 -0.48647766830E+02 -0.30269474373E+03  0.30753998130E+03  0.41800000000E+01 0. -1.
        -11    1    3    3    0    0  0.11775328687E+02  0.42957127355E+02 -0.15474921496E+03  0.16103196169E+03  0.00000000000E+00 0. -1.
         11    1    3    3    0    0 -0.81423033675E+02  0.36813356666E+02 -0.20290334058E+03  0.22170859086E+03  0.00000000000E+00 0.  1.
</event>
<event>
 7    1  0.5831876E-006  0.1228058E+03  0.7561462E-02  0.1238539E+00
         -1   -1    0    0    0  501 -0.00000000000E+00  0.00000000000E+00  0.37887781291E+03  0.37887781291E+03  0.00000000000E+00 0. -1.
          1   -1    0    0  501    0  0.00000000000E+00 -0.00000000000E+00 -0.72348224506E+02  0.72348224506E+02  0.00000000000E+00 0.  1.
         23    2    1    2    0    0  0.69317782822E+02  0.64575234568E+02  0.24957645610E+03  0.28428778986E+03  0.97755941447E+02 0.  0.
          5    1    1    2  502    0 -0.92264088326E+02 -0.67362517906E+02  0.10390344146E+02  0.11478589837E+03  0.41800000000E+01 0.  1.
         -5    1    1    2    0  502  0.22946305504E+02  0.27872833379E+01  0.46562788152E+02  0.52152349182E+02  0.41800000000E+01 0.  1.
        -11    1    3    3    0    0  0.41192814559E+02  0.67969770785E+02  0.81488572037E+02  0.11382936829E+03  0.00000000000E+00 0.  1.
         11    1    3    3    0    0  0.28124968263E+02 -0.33945362163E+01  0.16808788407E+03  0.17045842158E+03  0.00000000000E+00 0. -1.
</event>
<event>
 7    1  0.5831876E-006  0.9308601E+02  0.7561462E-02  0.1295546E+00
         -2   -1    0    0    0  501 -0.00000000000E+00  0.00000000000E+00  0.29526327462E+02  0.29526327462E+02  0.00000000000E+00 0.  1.
          2   -1    0    0  501    0  0.00000000000E+00 -0.00000000000E+00 -0.68426949944E+03  0.68426949944E+03  0.00000000000E+00 0. -1.
         23    2    1    2    0    0 -0.63213005848E+02 -0.34132005210E+01 -0.13935968841E+03  0.17968490103E+03  0.94116984969E+02 0.  0.
          5    1    1    2  502    0 -0.32164398625E+01 -0.37036863614E+02 -0.51049888579E+02  0.63290111990E+02  0.41800000000E+01 0. -1.
         -5    1    1    2    0  502  0.66429445711E+02  0.40450064135E+02 -0.46433359499E+03  0.47082081388E+03  0.41800000000E+01 0. -1.
        -11    1    3    3    0    0 -0.40275095431E+02  0.13386433897E+02 -0.14466500942E+03  0.15076221302E+03  0.00000000000E+00 0. -1.
         11    1    3    3    0    0 -0.22937910418E+02 -0.16799634418E+02  0.53053210100E+01  0.28922688014E+02  0.00000000000E+00 0.  1.
</event>
<event>
 7    1  0.5831876E-006  0.1240452E+03  0.7561462E-02  0.1236569E+00
         -1   -1    0    0    0  501 -0.00000000000E+00  0.00000000000E+00  0.25584574494E+03  0.25584574494E+03  0.00000000000E+00 0.  1.
          1   -1    0    0  501    0  0.00000000000E+00 -0.00000000000E+00 -0.81657980702E+02  0.81657980702E+02  0.00000000000E+00 0. -1.
         23    2    1    2    0    0 -0.19174719241E+02  0.83314499956E+02  0.12658532192E+03  0.17868882662E+03  0.92719346805E+02 0.  0.
          5    1    1    2  502    0  0.36242163960E+02 -0.11032217228E+03  0.50013078095E+02  0.12650397830E+03  0.41800000000E+01 0. -1.
         -5    1    1    2    0  502 -0.17067444719E+02  0.27007672321E+02 -0.24106357765E+01  0.32310920728E+02  0.41800000000E+01 0. -1.
        -11    1    3    3    0    0 -0.33193121735E+02  0.30672136475E+02  0.11420562778E+03  0.12282299745E+03  0.00000000000E+00 0.  1.
         11    1    3    3    0    0  0.14018402494E+02  0.52642363482E+02  0.12379694139E+02  0.55865829166E+02  0.00000000000E+00 0. -1.
</event>
<event>
 7    1  0.5831876E-006  0.1784025E+03  0.7561462E-02  0.1169358E+00
         -1   -1    0    0    0  501 -0.00000000000E+00  0.00000000000E+00  0.12321835995E+03  0.12321835995E+03  0.00000000000E+00 0.  1.
          1   -1    0    0  501    0  0.00000000000E+00 -0.00000000000E+00 -0.27751870984E+03  0.27751870984E+03  0.00000000000E+00 0. -1.
         23    2    1    2    0    0  0.14593364511E+03 -0.80090801402E+01 -0.42128823716E+02  0.17804745875E+03  0.92548828401E+02 0.  0.
          5    1    1    2  502    0 -0.13322933366E+02 -0.42827895175E+02 -0.50865916516E+02  0.67945147153E+02  0.41800000000E+01 0.  1.
         -5    1    1    2    0  502 -0.13261071175E+03  0.50836975315E+02 -0.61305609653E+02  0.15474446389E+03  0.41800000000E+01 0.  1.
        -11    1    3    3    0    0  0.58026043620E+02  0.39071717280E+02 -0.42172110885E+00  0.69955690820E+02  0.00000000000E+00 0.  1.
         11    1    3    3    0    0  0.87907601491E+02 -0.47080797421E+02 -0.41707102607E+02  0.10809176793E+03  0.00000000000E+00 0. -1.
</event>
<event>
 7    1  0.5831876E-006  0.7916874E+02  0.7561462E-02  0.1331427E+00
          1   -1    0    0  501    0  0.00000000000E+00  0.00000000000E+00  0.45827386623E+02  0.45827386623E+02  0.00000000000E+00 0. -1.
         -1   -1    0    0    0  501 -0.00000000000E+00 -0.00000000000E+00 -0.46313073856E+03  0.46313073856E+03  0.00000000000E+00 0.  1.
         23    2    1    2    0    0 -0.16723484308E+02  0.13720246063E+02 -0.35731285149E+03  0.36854538372E+03  0.87665876736E+02 0.  0.
          5    1    1    2  502    0  0.36816490745E+02 -0.24982260934E+02  0.25721041491E+02  0.51561727352E+02  0.41800000000E+01 0. -1.
         -5    1    1    2    0  502 -0.20093006437E+02  0.11262014872E+02 -0.85711541934E+02  0.88851014104E+02  0.41800000000E+01 0. -1.
        -11    1    3    3    0    0  0.21141028704E+02  0.39243386036E+02 -0.17000973253E+03  0.17575635293E+03  0.00000000000E+00 0.  1.
         11    1    3    3    0    0 -0.37864513012E+02 -0.25523139973E+02 -0.18730311897E+03  0.19278903079E+03  0.00000000000E+00 0. -1.
</event>
<event>
 7    1  0.5831876E-006  0.1156159E+03  0.7561462E-02  0.1250510E+00
          1   -1    0    0  501    0  0.00000000000E+00  0.00000000000E+00  0.79370348698E+02  0.79370348698E+02  0.00000000000E+00 0. -1.
         -1   -1    0    0    0  501 -0.00000000000E+00 -0.00000000000E+00 -0.25493196155E+03  0.25493196155E+03  0.00000000000E+00 0.  1.
         23    2    1    2    0    0  0.75899263994E+01  0.69718946852E+02 -0.15645328476E+03  0.18962562993E+03  0.81005621285E+02 0.  0.
          5    1    1    2  502    0  0.24492786952E+02  0.23339101462E+02 -0.30186851603E+02  0.45533819074E+02  0.41800000000E+01 0.  1.
         -5    1    1    2    0  502 -0.32082713352E+02 -0.93058048314E+02  0.11078523516E+02  0.99142861243E+02  0.41800000000E+01 0.  1.
        -11    1    3    3    0    0  0.38418767825E+02  0.32743830305E+02 -0.11685164045E+03  0.12728890769E+03  0.00000000000E+00 0.  1.
         11    1    3    3    0    0 -0.30828841426E+02  0.36975116548E+02 -0.39601644308E+02  0.62336722237E+02  0.00000000000E+00 0. -1.
</event>
<event>
 7    1  0.5831876E-006  0.1162394E+03  0.7561462E-02  0.1249433E+00
          3   -1    0    0  501    0  0.00000000000E+00  0.00000000000E+00  0.39236044437E+03  0.39236044437E+03  0.00000000000E+00 0. -1.
         -3   -1    0    0    0  501 -0.00000000000E+00 -0.00000000000E+00 -0.46890615709E+02  0.46890615709E+02  0.00000000000E+00 0.  1.
         23    2    1    2    0    0 -0.53460749747E+02  0.37914664176E+02  0.77741445292E+02  0.13656049979E+03  0.91156262884E+02 0.  0.
          5    1    1    2  502    0  0.76749522361E+02 -0.56128899535E+02  0.25105696248E+03  0.26849211041E+03  0.41800000000E+01 0. -1.
         -5    1    1    2    0  502 -0.23288772614E+02  0.18214235359E+02  0.16671420892E+02  0.34198449879E+02  0.41800000000E+01 0. -1.
        -11    1    3    3    0    0 -0.43168977591E+02 -0.20740007203E+02  0.54710347376E+02  0.72711282722E+02  0.00000000000E+00 0. -1.
         11    1    3    3    0    0 -0.10291772156E+02  0.58654671378E+02  0.23031097916E+02  0.63849217065E+02  0.00000000000E+00 0.  1.
</event>
<event>
 7    1  0.5831876E-006  0.2028554E+03  0.7561462E-02  0.1147352E+00
          2   -1    0    0  501    0  0.00000000000E+00  0.00000000000E+00  0.18161432388E+04  0.18161432388E+04  0.00000000000E+00 0. -1.
         -2   -1    0    0    0  501 -0.00000000000E+00 -0.00000000000E+00 -0.32089396773E+02  0.32089396773E+02  0.00000000000E+00 0.  1.
         23    2    1    2    0    0  0.12591900808E+03 -0.14935498059E+03  0.54051077131E+03  0.58194529469E+03  0.91356035871E+02 0.  0.
          5    1    1    2  502    0 -0.33158270134E+02  0.77071671987E+01  0.49082277844E+02  0.59878324148E+02  0.41800000000E+01 0. -1.
         -5    1    1    2    0  502 -0.92760737946E+02  0.14164781339E+03  0.11944607928E+04  0.12064090167E+04  0.41800000000E+01 0.  1.
        -11    1    3    3    0    0  0.89620612818E+02 -0.66537589989E+02  0.19388683859E+03  0.22372128039E+03  0.00000000000E+00 0.  1.
         11    1    3    3    0    0  0.36298395262E+02 -0.82817390598E+02  0.34662393273E+03  0.35822401430E+03  0.00000000000E+00 0. -1.
</event>
<event>
 7    1  0.5831876E-006  0.9999867E+02  0.7561462E-02  0.1280299E+00
          2   -1    0    0  501    0  0.00000000000E+00  0.00000000000E+00  0.16211073166E+04  0.16211073166E+04  0.00000000000E+00 0. -1.
         -2   -1    0    0    0  501 -0.00000000000E+00 -0.00000000000E+00 -0.78825143408E+01  0.78825143408E+01  0.00000000000E+00 0.  1.
         23    2    1    2    0    0  0.11501476526E+02 -0.22449927434E+02  0.49554538184E+03  0.50404974244E+03  0.88682772776E+02 0.  0.
          5    1    1    2  502    0 -0.33198445682E+01  0.64525280182E+02  0.34254684044E+03  0.34861202424E+03  0.41800000000E+01 0.  1.
         -5    1    1    2    0  502 -0.81816319579E+01 -0.42075352748E+02  0.77513257996E+03  0.77632806424E+03  0.41800000000E+01 0.  1.
        -11    1    3    3    0    0  0.39921313386E+02  0.17144255757E+02  0.23817598108E+03  0.24210624679E+03  0.00000000000E+00 0.  1.
         11    1    3    3    0    0 -0.28419836860E+02 -0.39594183191E+02  0.25736940076E+03  0.26194349566E+03  0.00000000000E+00 0. -1.
</event>
<event>
 7    1  0.5831876E-006  0.2256391E+03  0.7561462E-02  0.1129747E+00
         -2   -1    0    0    0  501 -0.00000000000E+00  0.00000000000E+00  0.19076904839E+03  0.19076904839E+03  0.00000000000E+00 0.  1.
          2   -1    0    0  501    0  0.00000000000E+00 -0.00000000000E+00 -0.32143066009E+03  0.32143066009E+03  0.00000000000E+00 0. -1.
         23    2    1    2    0    0  0.72959556465E+02  0.20617557121E+03 -0.20703036194E+02  0.23729841794E+03  0.89724357930E+02 0.  0.
          5    1    1    2  502    0 -0.67067584964E+02 -0.20327847719E+03 -0.57247861011E+02  0.22161902046E+03  0.41800000000E+01 0. -1.
         -5    1    1    2    0  502 -0.58919715012E+01 -0.28970940263E+01 -0.52710714495E+02  0.53282270077E+02  0.41800000000E+01 0. -1.
        -11    1    3    3    0    0 -0.12124276977E+02  0.51054636698E+02  0.19296643894E+02  0.55910057111E+02  0.00000000000E+00 0.  1.
         11    1    3    3    0    0  0.85083833442E+02  0.15512093451E+03 -0.39999680088E+02  0.18138836083E+03  0.00000000000E+00 0. -1.
</event>
<event>
 7    1  0.5831876E-006  0.9790818E+02  0.7561462E-02  0.1284757E+00
          1   -1    0    0  501    0  0.00000000000E+00  0.00000000000E+00  0.99882997398E+03  0.99882997398E+03  0.00000000000E+00 0. -1.
         -1   -1    0    0    0  501 -0.00000000000E+00 -0.00000000000E+00 -0.13144674126E+02  0.13144674126E+02  0.00000000000E+00 0.  1.
         23    2    1    2    0    0 -0.31257753061E+01 -0.14836214737E+01  0.33536663152E+03  0.34571343941E+03  0.83875103843E+02 0.  0.
          5    1    1    2  502    0 -0.54878617558E+02  0.63918054085E+01  0.11373898006E+03  0.12651697841E+03  0.41800000000E+01 0. -1.
         -5    1    1    2    0  502  0.58004392864E+02 -0.49081839348E+01  0.53657968827E+03  0.53974423029E+03  0.41800000000E+01 0.  1.
        -11    1    3    3    0    0 -0.25162497979E+01 -0.41725253282E+02  0.13416492205E+03  0.14052599255E+03  0.00000000000E+00 0.  1.
         11    1    3    3    0    0 -0.60952550823E+00  0.40241631809E+02  0.20120170947E+03  0.20518744685E+03  0.00000000000E+00 0. -1.
</event>
<event>
 7    1  0.5831876E-006  0.1336151E+03  0.7561462E-02  0.1222188E+00
          1   -1    0    0  501    0  0.00000000000E+00  0.00000000000E+00  0.81416693088E+03  0.81416693088E+03  0.00000000000E+00 0. -1.
         -1   -1    0    0    0  501 -0.00000000000E+00 -0.00000000000E+00 -0.66593516735E+02  0.66593516735E+02  0.00000000000E+00 0.  1.
         23    2    1    2    0    0  0.71842476003E+02  0.80029994057E+02  0.28578153175E+02  0.14308328017E+03  0.89944276743E+02 0.  0.
          5    1    1    2  502    0 -0.22867155867E+02  0.30493134491E+02  0.26855130995E+03  0.27127479894E+03  0.41800000000E+01 0.  1.
         -5    1    1    2    0  502 -0.48975320136E+02 -0.11052312855E+03  0.45044395102E+03  0.46640236849E+03  0.41800000000E+01 0.  1.
        -11    1    3    3    0    0  0.28209631098E+02  0.38150996248E+02 -0.32199460334E+02  0.57341843772E+02  0.00000000000E+00 0.  1.
         11    1    3    3    0    0  0.43632844905E+02  0.41878997809E+02  0.60777613510E+02  0.85741436400E+02  0.00000000000E+00 0. -1.
</event>
<event>
 7    1  0.5831876E-006  0.1069332E+03  0.7561462E-02  0.1266357E+00
          2   -1    0    0  501    0  0.00000000000E+00  0.00000000000E+00  0.70598544076E+03  0.70598544076E+03  0.00000000000E+00 0. -1.
         -2   -1    0    0    0  501 -0.00000000000E+00 -0.00000000000E+00 -0.19948412716E+02  0.19948412716E+02  0.00000000000E+00 0.  1.
         23    2    1    2    0    0 -0.94496238693E+01  0.23226995103E+02  0.17903195726E+03  0.20312408058E+03  0.92618365874E+02 0.  0.
          5    1    1    2  502    0  0.67865689210E+01 -0.71154273572E+02  0.38563354976E+03  0.39222403708E+03  0.41800000000E+01 0. -1.
         -5    1    1    2    0  502  0.26630549483E+01  0.47927278470E+02  0.12137152103E+03  0.13058573582E+03  0.41800000000E+01 0. -1.
        -11    1    3    3    0    0  0.39231451925E+02 -0.19460103002E+01  0.94998357018E+02  0.10279874324E+03  0.00000000000E+00 0. -1.
         11    1    3    3    0    0 -0.48681075795E+02  0.25173005403E+02  0.84033600246E+02  0.10032533734E+03  0.00000000000E+00 0.  1.
</event>
<event>
 7    1  0.5831876E-006  0.1085352E+03  0.7561462E-02  0.1263307E+00
         -3   -1    0    0    0  501 -0.00000000000E+00  0.00000000000E+00  0.10182740506E+03  0.10182740506E+03  0.00000000000E+00 0.  1.
          3   -1    0    0  501    0  0.00000000000E+00 -0.00000000000E+00 -0.15022731402E+03  0.15022731402E+03  0.00000000000E+00 0. -1.
         23    2    1    2    0    0 -0.49761895907E+02  0.21968259794E+02 -0.39583868521E+01  0.10859060834E+03  0.93901015281E+02 0.  0.
          5    1    1    2  502    0 -0.14074764900E+02  0.33533808488E+02  0.15449359493E+02  0.39733744191E+02  0.41800000000E+01 0. -1.
         -5    1    1    2    0  502  0.63836660807E+02 -0.55502068282E+02 -0.59890881599E+02  0.10373036655E+03  0.41800000000E+01 0. -1.
        -11    1    3    3    0    0 -0.58795343595E+02 -0.12523421778E+02  0.22504160453E+02  0.64188517347E+02  0.00000000000E+00 0.  1.
         11    1    3    3    0    0  0.90334476879E+01  0.34491681572E+02 -0.26462547305E+02  0.44402090994E+02  0.00000000000E+00 0. -1.
</event>
<event>
 7    1  0.5831876E-006  0.1083865E+03  0.7561462E-02  0.1263587E+00
          1   -1    0    0  501    0  0.00000000000E+00  0.00000000000E+00  0.36729040256E+02  0.36729040256E+02  0.00000000000E+00 0. -1.
         -1   -1    0    0    0  501 -0.00000000000E+00 -0.00000000000E+00 -0.47606332216E+03  0.47606332216E+03  0.00000000000E+00 0.  1.
         23    2    1    2    0    0  0.31974981896E+02  0.69420007782E+02 -0.22069474780E+03  0.24958078332E+03  0.87993515385E+02 0.  0.
          5    1    1    2  502    0  0.23297932595E+02  0.11526872679E+02 -0.32450803395E+01  0.26526692281E+02  0.41800000000E+01 0.  1.
         -5    1    1    2    0  502 -0.55272914491E+02 -0.80946880461E+02 -0.21539445377E+03  0.23668488681E+03  0.41800000000E+01 0.  1.
        -11    1    3    3    0    0  0.33223755928E+02  0.12643066598E+02 -0.19542967268E+02  0.40565905149E+02  0.00000000000E+00 0. -1.
         11    1    3    3    0    0 -0.12487740320E+01  0.56776941184E+02 -0.20115178053E+03  0.20901487817E+03  0.00000000000E+00 0.  1.
</event>
<event>
 7    1  0.5831876E-006  0.1132159E+03  0.7561462E-02  0.1254728E+00
          2   -1    0    0  501    0  0.00000000000E+00  0.00000000000E+00  0.23175127961E+04  0.23175127961E+04  0.00000000000E+00 0. -1.
         -2   -1    0    0    0  501 -0.00000000000E+00 -0.00000000000E+00 -0.11990715289E+02  0.11990715289E+02  0.00000000000E+00 0.  1.
         23    2    1    2    0    0 -0.90642466232E+02 -0.14563276236E+02  0.47467776149E+03  0.49209568025E+03  0.91711698067E+02 0.  0.
          5    1    1    2  502    0  0.33442720507E+02  0.22608374850E+02  0.15559512535E+04  0.15564804302E+04  0.41800000000E+01 0. -1.
         -5    1    1    2    0  502  0.57199745725E+02 -0.80450986139E+01  0.27489306588E+03  0.28092740093E+03  0.41800000000E+01 0. -1.
        -11    1    3    3    0    0 -0.49625656609E+02 -0.52372652360E+02  0.22598569697E+03  0.23722380939E+03  0.00000000000E+00 0.  1.
         11    1    3    3    0    0 -0.41016809624E+02  0.37809376124E+02  0.24869206452E+03  0.25487187085E+03  0.00000000000E+00 0. -1.
</event>
<event>
 7    1  0.5831876E-006  0.2025343E+03  0.7561462E-02  0.1147618E+00
          1   -1    0    0  501    0  0.00000000000E+00  0.00000000000E+00  0.39589492132E+03  0.39589492132E+03  0.00000000000E+00 0. -1.
         -1   -1    0    0    0  501 -0.00000000000E+00 -0.00000000000E+00 -0.12686165269E+03  0.12686165269E+03  0.00000000000E+00 0.  1.
         23    2    1    2    0    0 -0.12733099478E+03 -0.13960817743E+03  0.69599816915E+02  0.22088851114E+03  0.90796334721E+02 0.  0.
          5    1    1    2  502    0  0.14185277863E+03  0.14162734454E+03  0.20392151503E+03  0.28597547485E+03  0.41800000000E+01 0. -1.
         -5    1    1    2    0  502 -0.14521783842E+02 -0.20191671110E+01 -0.44880633131E+01  0.15892588023E+02  0.41800000000E+01 0. -1.
        -11    1    3    3    0    0 -0.63738692765E+02 -0.78694487716E+02  0.84108038641E+02  0.13164195956E+03  0.00000000000E+00 0. -1.
         11    1    3    3    0    0 -0.63592302019E+02 -0.60913689718E+02 -0.14508221726E+02  0.89246551579E+02  0.00000000000E+00 0.  1.
</event>
<event>
 7    1  0.5831876E-006  0.1138129E+03  0.7561462E-02  0.1253668E+00
          1   -1    0    0  501    0  0.00000000000E+00  0.00000000000E+00  0.80244290862E+03  0.80244290862E+03  0.00000000000E+00 0. -1.
         -1   -1    0    0    0  501 -0.00000000000E+00 -0.00000000000E+00 -0.28576583699E+02  0.28576583699E+02  0.00000000000E+00 0.  1.
         23    2    1    2    0    0 -0.83217193596E+02 -0.21774793093E+02  0.19580120965E+03  0.23335254356E+03  0.93359803767E+02 0.  0.
          5    1    1    2  502    0 -0.89239304198E+01  0.40718937788E+02  0.75387460248E+02  0.86246217258E+02  0.41800000000E+01 0. -1.
         -5    1    1    2    0  502  0.92141124016E+02 -0.18944144695E+02  0.50267765502E+03  0.51142073150E+03  0.41800000000E+01 0. -1.
        -11    1    3    3    0    0 -0.62049912816E+02 -0.12155400821E+01  0.37903042363E+02  0.72720766213E+02  0.00000000000E+00 0. -1.
         11    1    3    3    0    0 -0.21167280780E+02 -0.20559253011E+02  0.15789816729E+03  0.16063177734E+03  0.00000000000E+00 0.  1.
</event>
<event>
 7    1  0.5831876E-006  0.9280887E+02  0.7561462E-02  0.1296189E+00
          1   -1    0    0  501    0  0.00000000000E+00  0.00000000000E+00  0.52052817904E+03  0.52052817904E+03  0.00000000000E+00 0. -1.
         -1   -1    0    0    0  501 -0.00000000000E+00 -0.00000000000E+00 -0.33027428935E+02  0.33027428935E+02  0.00000000000E+00 0.  1.
         23    2    1    2    0    0 -0.39671984197E+01  0.28091072889E+02  0.76554187898E+02  0.12305685913E+03  0.92073882591E+02 0.  0.
          5    1    1    2  502    0 -0.55042244708E+02 -0.24617183679E+01  0.11466704202E+03  0.12728594457E+03  0.41800000000E+01 0. -1.
         -5    1    1    2    0  502  0.59009443128E+02 -0.25629354521E+02  0.29627952019E+03  0.30321280427E+03  0.41800000000E+01 0. -1.
        -11    1    3    3    0    0  0.17682588829E+02 -0.11270461142E+02 -0.11710960585E+02  0.24017573563E+02  0.00000000000E+00 0.  1.
         11    1    3    3    0    0 -0.21649787249E+02  0.39361534031E+02  0.88265148483E+02  0.99039285569E+02  0.00000000000E+00 0. -1.
</event>
<event>
 7    1  0.5831876E-006  0.9356234E+02  0.7561462E-02  0.1294447E+00
         -1   -1    0    0    0  501 -0.00000000000E+00  0.00000000000E+00  0.44486370800E+02  0.44486370800E+02  0.00000000000E+00 0.  1.
          1   -1    0    0  501    0  0.00000000000E+00 -0.00000000000E+00 -0.29100190347E+03  0.29100190347E+03  0.00000000000E+00 0. -1.
         23    2    1    2    0    0  0.28414641169E+02  0.10916421772E+02 -0.92410525684E+02  0.13468542198E+03  0.93133761541E+02 0.  0.
          5    1    1    2  502    0 -0.36049989761E+02 -0.45815503459E+02 -0.19715611492E+02  0.61683383950E+02  0.41800000000E+01 0. -1.
         -5    1    1    2    0  502  0.76353485927E+01  0.34899081688E+02 -0.13438939549E+03  0.13911946834E+03  0.41800000000E+01 0. -1.
        -11    1    3    3    0    0  0.52057795801E+02 -0.18249019729E+02 -0.75505903551E+02  0.93510332561E+02  0.00000000000E+00 0.  1.
         11    1    3    3    0    0 -0.23643154633E+02  0.29165441500E+02 -0.16904622134E+02  0.41175089415E+02  0.00000000000E+00 0. -1.
</event>
<event>
 7    1  0.6232724E-006  0.1731713E+03  0.7561462E-02  0.1174580E+00
         -4   -1    0    0    0  501 -0.00000000000E+00  0.00000000000E+00  0.62388141390E+03  0.62388141390E+03  0.00000000000E+00 0.  1.
          4   -1    0    0  501    0  0.00000000000E+00 -0.00000000000E+00 -0.55914731720E+02  0.55914731720E+02  0.00000000000E+00 0. -1.
         23    2    1    2    0    0 -0.11992556689E+03 -0.80924097241E+02  0.35131071371E+03  0.39080157009E+03  0.91519388710E+02 0.  0.
          5    1    1    2  502    0  0.52193617960E+02 -0.22003571006E+02  0.11849717230E+03  0.13140541517E+03  0.41800000000E+01 0. -1.
         -5    1    1    2    0  502  0.67731948931E+02  0.10292766825E+03  0.98158796165E+02  0.15758916035E+03  0.41800000000E+01 0. -1.
        -11    1    3    3    0    0  0.50695952822E+01 -0.31410105550E+02  0.36120277671E+02  0.48134914418E+02  0.00000000000E+00 0. -1.
         11    1    3    3    0    0 -0.12499516217E+03 -0.49513991691E+02  0.31519043604E+03  0.34266665567E+03  0.00000000000E+00 0.  1.
</event>
<event>
 7    1  0.5831876E-006  0.1279085E+03  0.7561462E-02  0.1230593E+00
         -1   -1    0    0    0  501 -0.00000000000E+00  0.00000000000E+00  0.47897095631E+02  0.47897095631E+02  0.00000000000E+00 0.  1.
          1   -1    0    0  501    0  0.00000000000E+00 -0.00000000000E+00 -0.44358953994E+03  0.44358953994E+03  0.00000000000E+00 0. -1.
         23    2    1    2    0    0 -0.34839488711E+02 -0.94227541061E+02 -0.11653770362E+03  0.16951267868E+03  0.71139949404E+02 0.  0.
          5    1    1    2  502    0 -0.44109375680E+02  0.30628130984E+02 -0.60997406895E+02  0.81374906933E+02  0.41800000000E+01 0.  1.
         -5    1    1    2    0  502  0.78948864392E+02  0.63599410077E+02 -0.21815733379E+03  0.24059904995E+03  0.41800000000E+01 0.  1.
        -11    1    3    3    0    0 -0.10993989528E+02 -0.32901148535E+02 -0.93614156432E+02  0.99834681675E+02  0.00000000000E+00 0. -1.
         11    1    3    3    0    0 -0.23845499183E+02 -0.61326392526E+02 -0.22923547191E+02  0.69677997010E+02  0.00000000000E+00 0.  1.
</event>
<event>
 7    1  0.5831876E-006  0.1501066E+03  0.7561462E-02  0.1200342E+00
         -1   -1    0    0    0  501 -0.00000000000E+00  0.00000000000E+00  0.59483892647E+02  0.59483892647E+02  0.00000000000E+00 0.  1.
          1   -1    0    0  501    0  0.00000000000E+00 -0.00000000000E+00 -0.18167494721E+04  0.18167494721E+04  0.00000000000E+00 0. -1.
         23    2    1    2    0    0  0.11505450173E+03 -0.20573624970E+02 -0.43001526384E+02  0.15344203069E+03  0.89635445544E+02 0.  0.
          5    1    1    2  502    0 -0.10030714538E+03 -0.39674714695E+02 -0.11780211040E+04  0.11829568041E+04  0.41800000000E+01 0.  1.
         -5    1    1    2    0  502 -0.14747356350E+02  0.60248339666E+02 -0.53624294906E+03  0.53983452998E+03  0.41800000000E+01 0.  1.
        -11    1    3    3    0    0  0.85759407235E+02 -0.40322537763E+02  0.37526327194E+01  0.94840208948E+02  0.00000000000E+00 0.  1.
         11    1    3    3    0    0  0.29295094496E+02  0.19748912793E+02 -0.46754159103E+02  0.58601821742E+02  0.00000000000E+00 0. -1.
</event>
<event>
 7    1  0.5831876E-006  0.9077198E+02  0.7561462E-02  0.1300993E+00
         -2   -1    0    0    0  501 -0.00000000000E+00  0.00000000000E+00  0.37021934896E+02  0.37021934896E+02  0.00000000000E+00 0. -1.
          2   -1    0    0  501    0  0.00000000000E+00 -0.00000000000E+00 -0.35986581943E+03  0.35986581943E+03  0.00000000000E+00 0.  1.
         23    2    1    2    0    0  0.40225401773E+02 -0.13399032089E+02 -0.12188431915E+03  0.15641066138E+03  0.88379243773E+02 0.  0.
          5    1    1    2  502    0 -0.39598588875E+02 -0.33107189518E+02 -0.18342662168E+03  0.19059625437E+03  0.41800000000E+01 0. -1.
         -5    1    1    2    0  502 -0.62681289729E+00  0.46506221607E+02 -0.17532943713E+02  0.49880838584E+02  0.41800000000E+01 0. -1.
        -11    1    3    3    0    0  0.39693184928E+02 -0.40060550404E+02 -0.11617490857E+03  0.12913948277E+03  0.00000000000E+00 0.  1.
         11    1    3    3    0    0  0.53221684491E+00  0.26661518315E+02 -0.57094105771E+01  0.27271178609E+02  0.00000000000E+00 0. -1.
</event>
<event>
 7    1  0.5831876E-006  0.1364033E+03  0.7561462E-02  0.1218252E+00
          1   -1    0    0  501    0  0.00000000000E+00  0.00000000000E+00  0.57556268972E+03  0.57556268972E+03  0.00000000000E+00 0. -1.
         -1   -1    0    0    0  501 -0.00000000000E+00 -0.00000000000E+00 -0.38087911436E+02  0.38087911436E+02  0.00000000000E+00 0.  1.
         23    2    1    2    0    0 -0.88028531871E+02  0.46995038507E+02  0.19578320341E+03  0.23634650900E+03  0.87011800997E+02 0.  0.
          5    1    1    2  502    0  0.84684207994E+02  0.23317168654E+02  0.16309329827E+03  0.18528896831E+03  0.41800000000E+01 0.  1.
         -5    1    1    2    0  502  0.33443238768E+01 -0.70312207160E+02  0.17859827660E+03  0.19201512383E+03  0.41800000000E+01 0.  1.
        -11    1    3    3    0    0 -0.40807755468E+02  0.52852516446E+02  0.51225115183E+02  0.84158623007E+02  0.00000000000E+00 0. -1.
         11    1    3    3    0    0 -0.47220776403E+02 -0.58574779389E+01  0.14455808823E+03  0.15218788600E+03  0.00000000000E+00 0.  1.
</event>
<event>
 7    1  0.6073717E-006  0.4172532E+03  0.7561462E-02  0.1037964E+00
         -2   -1    0    0    0  501 -0.00000000000E+00  0.00000000000E+00  0.16764552124E+03  0.16764552124E+03  0.00000000000E+00 0.  1.
          2   -1    0    0  501    0  0.00000000000E+00 -0.00000000000E+00 -0.10760039450E+04  0.10760039450E+04  0.00000000000E+00 0. -1.
         23    2    1    2    0    0 -0.32213021909E+03 -0.24164001916E+03 -0.33367221839E+03  0.53085911021E+03  0.91194674521E+02 0.  0.
          5    1    1    2  502    0  0.16177975481E+03  0.19734356802E+03 -0.35302779040E+03  0.43561825731E+03  0.41800000000E+01 0.  1.
         -5    1    1    2    0  502  0.16035046428E+03  0.44296451138E+02 -0.22165841496E+03  0.27717209870E+03  0.41800000000E+01 0.  1.
        -11    1    3    3    0    0 -0.17706564993E+03 -0.18790132146E+03 -0.20956240368E+03  0.33252902433E+03  0.00000000000E+00 0.  1.
         11    1    3    3    0    0 -0.14506456916E+03 -0.53738697704E+02 -0.12410981471E+03  0.19833008588E+03  0.00000000000E+00 0. -1.
</event>
<event>
 7    1  0.5831876E-006  0.1136526E+03  0.7561462E-02  0.1253952E+00
          2   -1    0    0  501    0  0.00000000000E+00  0.00000000000E+00  0.19208197787E+03  0.19208197787E+03  0.00000000000E+00 0. -1.
         -2   -1    0    0    0  501 -0.00000000000E+00 -0.00000000000E+00 -0.67855685935E+02  0.67855685935E+02  0.00000000000E+00 0.  1.
         23    2    1    2    0    0 -0.12479242736E+02  0.33527638773E+02  0.51926714942E+02  0.11109364466E+03  0.91463545187E+02 0.  0.
          5    1    1    2  502    0  0.51909492777E+02  0.26045453867E+02  0.27303445918E+02  0.64311053999E+02  0.41800000000E+01 0.  1.
         -5    1    1    2    0  502 -0.39430250040E+02 -0.59573092640E+02  0.44996131077E+02  0.84532965148E+02  0.41800000000E+01 0.  1.
        -11    1    3    3    0    0 -0.45968050765E+02  0.42755877265E+02  0.39648858722E+02  0.74250648009E+02  0.00000000000E+00 0. -1.
         11    1    3    3    0    0  0.33488808029E+02 -0.92282384921E+01  0.12277856220E+02  0.36842996651E+02  0.00000000000E+00 0.  1.
</event>
<event>
 7    1  0.5831876E-006  0.1441236E+03  0.7561462E-02  0.1207886E+00
         -1   -1    0    0    0  501 -0.00000000000E+00  0.00000000000E+00  0.75660711775E+02  0.75660711775E+02  0.00000000000E+00 0.  1.
          1   -1    0    0  501    0  0.00000000000E+00 -0.00000000000E+00 -0.41657145257E+03  0.41657145257E+03  0.00000000000E+00 0. -1.
         23    2    1    2    0    0  0.55736774121E+02  0.10097874156E+03 -0.50755542330E+02  0.15586597571E+03  0.91732126707E+02 0.  0.
          5    1    1    2  502    0 -0.59706825270E+02 -0.12785106295E+03 -0.22456100612E+03  0.26524689847E+03  0.41800000000E+01 0.  1.
         -5    1    1    2    0  502  0.39700511489E+01  0.26872321387E+02 -0.65594192343E+02  0.71119290153E+02  0.41800000000E+01 0.  1.
        -11    1    3    3    0    0  0.22482719219E+02  0.72195339413E+02  0.14676734362E+02  0.77026269726E+02  0.00000000000E+00 0.  1.
         11    1    3    3    0    0  0.33254054902E+02  0.28783402152E+02 -0.65432276692E+02  0.78839705986E+02  0.00000000000E+00 0. -1.
</event>
<event>
 7    1  0.5831876E-006  0.1235035E+03  0.7561462E-02  0.1237427E+00
          1   -1    0    0  501    0  0.00000000000E+00  0.00000000000E+00  0.23580123866E+04  0.23580123866E+04  0.00000000000E+00 0. -1.
         -1   -1    0    0    0  501 -0.00000000000E+00 -0.00000000000E+00 -0.99178905470E+01  0.99178905470E+01  0.00000000000E+00 0.  1.
         23    2    1    2    0    0  0.23708718271E+02  0.71684779949E+02  0.48242746196E+03  0.49655097322E+03  0.90143230230E+02 0.  0.
          5    1    1    2  502    0 -0.65251017534E+02 -0.70932151183E+02  0.15443424447E+04  0.15473526180E+04  0.41800000000E+01 0. -1.
         -5    1    1    2    0  502  0.41542299263E+02 -0.75262876580E+00  0.32132458936E+03  0.32402668595E+03  0.41800000000E+01 0. -1.
        -11    1    3    3    0    0 -0.16824350689E+02  0.65682065227E+02  0.38392186068E+03  0.38986303695E+03  0.00000000000E+00 0.  1.
         11    1    3    3    0    0  0.40533068960E+02  0.60027147219E+01  0.98505601275E+02  0.10668793627E+03  0.00000000000E+00 0. -1.
</event>
<event>
 7    1  0.5831876E-006  0.1534042E+03  0.7561462E-02  0.1196351E+00
          2   -1    0    0  501    0  0.00000000000E+00  0.00000000000E+00  0.26639589123E+03  0.26639589123E+03  0.00000000000E+00 0.  1.
         -2   -1    0    0    0  501 -0.00000000000E+00 -0.00000000000E+00 -0.90219339907E+02  0.90219339907E+02  0.00000000000E+00 0. -1.
         23    2    1    2    0    0  0.54429881970E+02 -0.95357284959E+02  0.59378964631E+02  0.15328283843E+03  0.88961470713E+02 0.  0.
          5    1    1    2  502    0 -0.94823430826E+02  0.65509292401E+02  0.72419020311E+02  0.13617979779E+03  0.41800000000E+01 0. -1.
         -5    1    1    2    0  502  0.40393548856E+02  0.29847992558E+02  0.44378566376E+02  0.67152594905E+02  0.41800000000E+01 0. -1.
        -11    1    3    3    0    0  0.76659463914E+02 -0.52844497414E+02  0.34997037408E+02  0.99468622901E+02  0.00000000000E+00 0.  1.
         11    1    3    3    0    0 -0.22229581943E+02 -0.42512787545E+02  0.24381927222E+02  0.53814215532E+02  0.00000000000E+00 0. -1.
</event>
<event>
 7    1  0.5831876E-006  0.1569133E+03  0.7561462E-02  0.1192226E+00
         -1   -1    0    0    0  501 -0.00000000000E+00  0.00000000000E+00  0.26008085377E+02  0.26008085377E+02  0.00000000000E+00 0.  1.
          1   -1    0    0  501    0  0.00000000000E+00 -0.00000000000E+00 -0.14091251566E+04  0.14091251566E+04  0.00000000000E+00 0. -1.
         23    2    1    2    0    0  0.40016544958E+02  0.12304144564E+03 -0.32429775696E+03  0.36112859388E+03  0.92218788395E+02 0.  0.
          5    1    1    2  502    0  0.21390413634E+02 -0.86048385590E+02 -0.33252418644E+03  0.34416810053E+03  0.41800000000E+01 0. -1.
         -5    1    1    2    0  502 -0.61406958593E+02 -0.36993060052E+02 -0.72629512782E+03  0.72983654755E+03  0.41800000000E+01 0. -1.
        -11    1    3    3    0    0  0.41727211576E+02  0.13493227187E+03 -0.26161500242E+03  0.29730504144E+03  0.00000000000E+00 0.  1.
         11    1    3    3    0    0 -0.17106666175E+01 -0.11890826228E+02 -0.62682754542E+02  0.63823552437E+02  0.00000000000E+00 0. -1.
</event>
<event>
 7    1  0.5831876E-006  0.3892479E+03  0.7561462E-02  0.1047568E+00
          1   -1    0    0  501    0  0.00000000000E+00  0.00000000000E+00  0.41727924321E+03  0.41727924321E+03  0.00000000000E+00 0. -1.
         -1   -1    0    0    0  501 -0.00000000000E+00 -0.00000000000E+00 -0.50856053698E+03  0.50856053698E+03  0.00000000000E+00 0.  1.
         23    2    1    2    0    0  0.37490761973E+03 -0.49167831956E+02 -0.28629740974E+03  0.48238853908E+03  0.88086870599E+02 0.  0.
          5    1    1    2  502    0 -0.39449389109E+02  0.37664277920E+02  0.61191087660E+02  0.82077242530E+02  0.41800000000E+01 0.  1.
         -5    1    1    2    0  502 -0.33545823062E+03  0.11503554036E+02  0.13382502832E+03  0.36137399858E+03  0.41800000000E+01 0.  1.
        -11    1    3    3    0    0  0.29758904718E+03 -0.74458183993E+02 -0.23132660022E+03  0.38420731140E+03  0.00000000000E+00 0. -1.
         11    1    3    3    0    0  0.77318572548E+02  0.25290352038E+02 -0.54970809527E+02  0.98181227672E+02  0.00000000000E+00 0.  1.
</event>
<event>
 7    1  0.5831876E-006  0.1098979E+03  0.7561462E-02  0.1260759E+00
          2   -1    0    0  501    0  0.00000000000E+00  0.00000000000E+00  0.66127059212E+03  0.66127059212E+03  0.00000000000E+00 0. -1.
         -2   -1    0    0    0  501 -0.00000000000E+00 -0.00000000000E+00 -0.22458541362E+02  0.22458541362E+02  0.00000000000E+00 0.  1.
         23    2    1    2    0    0  0.26552011626E+02 -0.10633350104E+02  0.15045874751E+03  0.17880041794E+03  0.92269590313E+02 0.  0.
          5    1    1    2  502    0 -0.31369510343E+02  0.64846122264E+02  0.31619635625E+03  0.32432495103E+03  0.41800000000E+01 0.  1.
         -5    1    1    2    0  502  0.48174987163E+01 -0.54212772160E+02  0.17215694700E+03  0.18060376452E+03  0.41800000000E+01 0.  1.
        -11    1    3    3    0    0 -0.32811109894E+02 -0.39704860298E+00  0.77675389400E+02  0.84321958579E+02  0.00000000000E+00 0. -1.
         11    1    3    3    0    0  0.59363121521E+02 -0.10236301501E+02  0.72783358114E+02  0.94478459362E+02  0.00000000000E+00 0.  1.
</event>
<event>
 7    1  0.5831876E-006  0.9064922E+02  0.7561462E-02  0.1301287E+00
         -1   -1    0    0    0  501 -0.00000000000E+00  0.00000000000E+00  0.24135646308E+03  0.24135646308E+03  0.00000000000E+00 0.  1.
          1   -1    0    0  501    0  0.00000000000E+00 -0.00000000000E+00 -0.59969881806E+02  0.59969881806E+02  0.00000000000E+00 0. -1.
         23    2    1    2    0    0 -0.10166515864E+02 -0.96795937335E+01  0.14438299102E+03  0.17012403979E+03  0.88874564639E+02 0.  0.
          5    1    1    2  502    0  0.35424781059E+01 -0.49652080574E+02  0.49212850908E+02  0.70123144189E+02  0.41800000000E+01 0. -1.
         -5    1    1    2    0  502  0.66240377578E+01  0.59331674307E+02 -0.12209260646E+02  0.61079160913E+02  0.41800000000E+01 0. -1.
        -11    1    3    3    0    0  0.25591193595E+02 -0.21928350868E+02  0.12116613904E+03  0.12576563526E+03  0.00000000000E+00 0.  1.
         11    1    3    3    0    0 -0.35757709459E+02  0.12248757134E+02  0.23216851975E+02  0.44358404533E+02  0.00000000000E+00 0. -1.
</event>
<event>
 7    1  0.5831876E-006  0.1178018E+03  0.7561462E-02  0.1246768E+00
         -1   -1    0    0    0  501 -0.00000000000E+00  0.00000000000E+00  0.25438596012E+02  0.25438596012E+02  0.00000000000E+00 0.  1.
          1   -1    0    0  501    0  0.00000000000E+00 -0.00000000000E+00 -0.59343983148E+03  0.59343983148E+03  0.00000000000E+00 0. -1.
         23    2    1    2    0    0 -0.36820090166E+02 -0.51993137337E+02 -0.25459280228E+03  0.27546796868E+03  0.83702457698E+02 0.  0.
          5    1    1    2  502    0 -0.40836185676E+02  0.69696575834E+01 -0.49835969176E+02  0.64940483607E+02  0.41800000000E+01 0. -1.
         -5    1    1    2    0  502  0.77656275842E+02  0.45023479754E+02 -0.26357246401E+03  0.27846997520E+03  0.41800000000E+01 0. -1.
        -11    1    3    3    0    0 -0.14926545644E+02  0.22198676241E+02 -0.83993583945E+02  0.88150468721E+02  0.00000000000E+00 0. -1.
         11    1    3    3    0    0 -0.21893544522E+02 -0.74191813578E+02 -0.17059921833E+03  0.18731749996E+03  0.00000000000E+00 0.  1.
</event>
<event>
 7    1  0.5831876E-006  0.1211241E+03  0.7561462E-02  0.1241254E+00
         -2   -1    0    0    0  501 -0.00000000000E+00  0.00000000000E+00  0.11876964809E+03  0.11876964809E+03  0.00000000000E+00 0.  1.
          2   -1    0    0  501    0  0.00000000000E+00 -0.00000000000E+00 -0.16172468306E+03  0.16172468306E+03  0.00000000000E+00 0. -1.
         23    2    1    2    0    0  0.48629155231E+02  0.38626567054E+02  0.40704468373E+02  0.11769436904E+03  0.91314316164E+02 0.  0.
          5    1    1    2  502    0 -0.88983848927E+02 -0.14596702263E+02 -0.40734882689E+02  0.99035307615E+02  0.41800000000E+01 0. -1.
         -5    1    1    2    0  502  0.40354693695E+02 -0.24029864791E+02 -0.42924620659E+02  0.63764654502E+02  0.41800000000E+01 0. -1.
        -11    1    3    3    0    0  0.12173751616E+02  0.60899447861E+02  0.55188185919E+01  0.62349020336E+02  0.00000000000E+00 0. -1.
         11    1    3    3    0    0  0.36455403616E+02 -0.22272880807E+02  0.35185649781E+02  0.55345348700E+02  0.00000000000E+00 0.  1.
</event>
<event>
 7    1  0.5831876E-006  0.1275636E+03  0.7561462E-02  0.1231116E+00
          2   -1    0    0  501    0  0.00000000000E+00  0.00000000000E+00  0.18223623808E+04  0.18223623808E+04  0.00000000000E+00 0. -1.
         -2   -1    0    0    0  501 -0.00000000000E+00 -0.00000000000E+00 -0.97907066899E+01  0.97907066899E+01  0.00000000000E+00 0.  1.
         23    2    1    2    0    0 -0.45823470336E+02  0.53538348165E+02  0.60716314877E+03  0.61822392108E+03  0.92669208570E+02 0.  0.
          5    1    1    2  502    0  0.85550258412E+02 -0.23639404029E+02  0.91093602772E+03  0.91525930049E+03  0.41800000000E+01 0.  1.
         -5    1    1    2    0  502 -0.39726788077E+02 -0.29898944136E+02  0.29447249760E+03  0.29866986589E+03  0.41800000000E+01 0.  1.
        -11    1    3    3    0    0 -0.74053461072E+02  0.45924549120E+02  0.46188099606E+03  0.47002875852E+03  0.00000000000E+00 0. -1.
         11    1    3    3    0    0  0.28229990736E+02  0.76137990454E+01  0.14528215271E+03  0.14819516257E+03  0.00000000000E+00 0.  1.
</event>
<event>
 7    1  0.5831876E-006  0.1554546E+03  0.7561462E-02  0.1193926E+00
          1   -1    0    0  501    0  0.00000000000E+00  0.00000000000E+00  0.18896027565E+03  0.18896027565E+03  0.00000000000E+00 0. -1.
         -1   -1    0    0    0  501 -0.00000000000E+00 -0.00000000000E+00 -0.15682628130E+03  0.15682628130E+03  0.00000000000E+00 0.  1.
         23    2    1    2    0    0 -0.84683512792E+02  0.86400664007E+02 -0.40172482589E+02  0.15733882637E+03  0.92224215076E+02 0.  0.
          5    1    1    2  502    0  0.10610663169E+03 -0.87536244244E+02  0.30030995094E+02  0.14085646741E+03  0.41800000000E+01 0.  1.
         -5    1    1    2    0  502 -0.21423118894E+02  0.11355802374E+01  0.42275481841E+02  0.47591263174E+02  0.41800000000E+01 0.  1.
        -11    1    3    3    0    0 -0.51720221700E+02  0.10245522345E+03 -0.23933254955E+02  0.11723845290E+03  0.00000000000E+00 0. -1.
         11    1    3    3    0    0 -0.32963291093E+02 -0.16054559443E+02 -0.16239227634E+02  0.40100373474E+02  0.00000000000E+00 0.  1.
</event>
<event>
 7    1  0.9212585E-006  0.2370172E+03  0.7561462E-02  0.1121796E+00
         -2   -1    0    0    0  501 -0.00000000000E+00  0.00000000000E+00  0.44101175932E+02  0.44101175932E+02  0.00000000000E+00 0. -1.
          2   -1    0    0  501    0  0.00000000000E+00 -0.00000000000E+00 -0.14914931860E+04  0.14914931860E+04  0.00000000000E+00 0.  1.
         23    2    1    2    0    0  0.16210047150E+03 -0.16231362156E+03 -0.59160162563E+03  0.64080568499E+03  0.89538638975E+02 0.  0.
          5    1    1    2  502    0 -0.49389899093E+02  0.74041365847E+02 -0.14880182207E+03  0.17343857887E+03  0.41800000000E+01 0.  1.
         -5    1    1    2    0  502 -0.11271057241E+03  0.88272255716E+02 -0.70698856240E+03  0.72135009810E+03  0.41800000000E+01 0.  1.
        -11    1    3    3    0    0  0.10285103643E+03 -0.49189911965E+02 -0.34081207384E+03  0.35937564304E+03  0.00000000000E+00 0.  1.
         11    1    3    3    0    0  0.59249435076E+02 -0.11312370960E+03 -0.25078955179E+03  0.28143004196E+03  0.00000000000E+00 0. -1.
</event>
<event>
 7    1  0.5831876E-006  0.2314102E+03  0.7561462E-02  0.1125651E+00
          2   -1    0    0  501    0  0.00000000000E+00  0.00000000000E+00  0.21843211033E+04  0.21843211033E+04  0.00000000000E+00 0. -1.
         -2   -1    0    0    0  501 -0.00000000000E+00 -0.00000000000E+00 -0.34448385402E+02  0.34448385402E+02  0.00000000000E+00 0.  1.
         23    2    1    2    0    0  0.13194218008E+03 -0.18744366888E+03  0.61908306769E+03  0.66586613772E+03  0.87005751425E+02 0.  0.
          5    1    1    2  502    0 -0.80847291643E+02  0.12931259367E+03  0.60741552196E+03  0.62628198136E+03  0.41800000000E+01 0.  1.
         -5    1    1    2    0  502 -0.51094888434E+02  0.58131075203E+02  0.92337412824E+03  0.92662136962E+03  0.41800000000E+01 0.  1.
        -11    1    3    3    0    0  0.79333907228E+02 -0.14447584132E+03  0.52182017577E+03  0.54723252225E+03  0.00000000000E+00 0.  1.
         11    1    3    3    0    0  0.52608272849E+02 -0.42967827553E+02  0.97262891919E+02  0.11863361548E+03  0.00000000000E+00 0. -1.
</event>
<event>
 7    1  0.5831876E-006  0.1784471E+03  0.7561462E-02  0.1169314E+00
         -3   -1    0    0    0  501 -0.00000000000E+00  0.00000000000E+00  0.10997855996E+03  0.10997855996E+03  0.00000000000E+00 0.  1.
          3   -1    0    0  501    0  0.00000000000E+00 -0.00000000000E+00 -0.37199293447E+03  0.37199293447E+03  0.00000000000E+00 0. -1.
         23    2    1    2    0    0  0.16813101995E+03 -0.21694508460E+02 -0.14729523900E+03  0.24208446586E+03  0.90389764979E+02 0.  0.
          5    1    1    2  502    0 -0.13289028895E+03  0.12474169107E+02 -0.14143775288E+03  0.19451875008E+03  0.41800000000E+01 0. -1.
         -5    1    1    2    0  502 -0.35240731002E+02  0.92203393531E+01  0.26718617366E+02  0.45368278491E+02  0.41800000000E+01 0. -1.
        -11    1    3    3    0    0  0.70326306316E+02 -0.48317296116E+02 -0.96144705564E+02  0.12854631411E+03  0.00000000000E+00 0. -1.
         11    1    3    3    0    0  0.97804713637E+02  0.26622787656E+02 -0.51150533432E+02  0.11353815175E+03  0.00000000000E+00 0.  1.
</event>
<event>
 7    1  0.5831876E-006  0.1403917E+03  0.7561462E-02  0.1212803E+00
          4   -1    0    0  501    0  0.00000000000E+00  0.00000000000E+00  0.20542242023E+03  0.20542242023E+03  0.00000000000E+00 0. -1.
         -4   -1    0    0    0  501 -0.00000000000E+00 -0.00000000000E+00 -0.10586002927E+03  0.10586002927E+03  0.00000000000E+00 0.  1.
         23    2    1    2    0    0 -0.11677005359E+02 -0.94591572765E+02  0.17829938426E+02  0.13404512694E+03  0.92554153119E+02 0.  0.
          5    1    1    2  502    0  0.48132410143E+01  0.12504502036E+03  0.71149337295E+02  0.14401085029E+03  0.41800000000E+01 0. -1.
         -5    1    1    2    0  502  0.68637643442E+01 -0.30453447590E+02  0.10583115234E+02  0.33226472265E+02  0.41800000000E+01 0. -1.
        -11    1    3    3    0    0 -0.44311558649E+02 -0.36329208157E+02  0.32212733214E+02  0.65734205527E+02  0.00000000000E+00 0.  1.
         11    1    3    3    0    0  0.32634553291E+02 -0.58262364608E+02 -0.14382794788E+02  0.68310921412E+02  0.00000000000E+00 0. -1.
</event>
<event>
 7    1  0.5831876E-006  0.1079644E+03  0.7561462E-02  0.1264387E+00
         -4   -1    0    0    0  501 -0.00000000000E+00  0.00000000000E+00  0.60560159556E+03  0.60560159556E+03  0.00000000000E+00 0. -1.
          4   -1    0    0  501    0  0.00000000000E+00 -0.00000000000E+00 -0.27105128191E+02  0.27105128191E+02  0.00000000000E+00 0.  1.
         23    2    1    2    0    0  0.18579561743E+01 -0.31179589467E+02  0.40544186307E+03  0.41690304303E+03  0.91920749340E+02 0.  0.
          5    1    1    2  502    0  0.11347596219E+02  0.76174623870E+02  0.13409895337E+03  0.15469758549E+03  0.41800000000E+01 0.  1.
         -5    1    1    2    0  502 -0.13205552393E+02 -0.44995034403E+02  0.38955650937E+02  0.61106095235E+02  0.41800000000E+01 0.  1.
        -11    1    3    3    0    0  0.43914340770E+02 -0.19671014054E+02  0.14339157232E+03  0.15124999547E+03  0.00000000000E+00 0.  1.
         11    1    3    3    0    0 -0.42056384596E+02 -0.11508575413E+02  0.26205029075E+03  0.26565304756E+03  0.00000000000E+00 0. -1.
</event>
<event>
 7    1  0.5831876E-006  0.1007346E+03  0.7561462E-02  0.1278759E+00
         -1   -1    0    0    0  501 -0.00000000000E+00  0.00000000000E+00  0.44590509249E+02  0.44590509249E+02  0.00000000000E+00 0.  1.
          1   -1    0    0  501    0  0.00000000000E+00 -0.00000000000E+00 -0.41993209085E+03  0.41993209085E+03  0.00000000000E+00 0. -1.
         23    2    1    2    0    0 -0.62896569254E+02 -0.23574568885E+02 -0.90543912747E+02  0.14629442210E+03  0.93231534793E+02 0.  0.
          5    1    1    2  502    0  0.59251450512E+01 -0.19725193076E+02 -0.22181568081E+03  0.22280901965E+03  0.41800000000E+01 0.  1.
         -5    1    1    2    0  502  0.56971424203E+02  0.43299761962E+02 -0.62981988049E+02  0.95419158350E+02  0.41800000000E+01 0.  1.
        -11    1    3    3    0    0 -0.70721502519E+02  0.12536319375E+02 -0.35809425100E+02  0.80255872982E+02  0.00000000000E+00 0.  1.
         11    1    3    3    0    0  0.78249332654E+01 -0.36110888261E+02 -0.54734487647E+02  0.66038549118E+02  0.00000000000E+00 0. -1.
</event>
<event>
 7    1  0.5831876E-006  0.1009675E+03  0.7561462E-02  0.1278275E+00
         -2   -1    0    0    0  501 -0.00000000000E+00  0.00000000000E+00  0.21349280491E+02  0.21349280491E+02  0.00000000000E+00 0.  1.
          2   -1    0    0  501    0  0.00000000000E+00 -0.00000000000E+00 -0.78194369289E+03  0.78194369289E+03  0.00000000000E+00 0. -1.
         23    2    1    2    0    0 -0.51600318076E+02 -0.50178532852E+01 -0.19608712391E+03  0.22277207407E+03  0.92138293572E+02 0.  0.
          5    1    1    2  502    0  0.69710738392E+02  0.44526132526E+02 -0.25929121444E+03  0.27219766680E+03  0.41800000000E+01 0.  1.
         -5    1    1    2    0  502 -0.18110420316E+02 -0.39508279241E+02 -0.30521607405E+03  0.30832323252E+03  0.41800000000E+01 0.  1.
        -11    1    3    3    0    0  0.11564332911E+02 -0.41284638869E+01  0.40280477454E+01  0.12922970958E+02  0.00000000000E+00 0.  1.
         11    1    3    3    0    0 -0.63164650986E+02 -0.88938939828E+00 -0.20011517166E+03  0.20984910311E+03  0.00000000000E+00 0. -1.
</event>
<event>
 7    1  0.5831876E-006  0.8820834E+02  0.7561462E-02  0.1307249E+00
         -1   -1    0    0    0  501 -0.00000000000E+00  0.00000000000E+00  0.87218094001E+02  0.87218094001E+02  0.00000000000E+00 0.  1.
          1   -1    0    0  501    0  0.00000000000E+00 -0.00000000000E+00 -0.15821581209E+03  0.15821581209E+03  0.00000000000E+00 0. -1.
         23    2    1    2    0    0 -0.31960660654E+02  0.19831248643E+02 -0.74923164683E+01  0.10020388323E+03  0.92573868644E+02 0.  0.
          5    1    1    2  502    0 -0.17936617958E+02 -0.19457724455E+02 -0.86189850693E+02  0.90257897534E+02  0.41800000000E+01 0.  1.
         -5    1    1    2    0  502  0.49897278612E+02 -0.37352418807E+00  0.22684449075E+02  0.54972125327E+02  0.41800000000E+01 0.  1.
        -11    1    3    3    0    0  0.80101831553E+01  0.49265437304E+02  0.56226496925E+00  0.49915553577E+02  0.00000000000E+00 0.  1.
         11    1    3    3    0    0 -0.39970843809E+02 -0.29434188661E+02 -0.80545814376E+01  0.50288329651E+02  0.00000000000E+00 0. -1.
</event>
<event>
 7    1  0.5831876E-006  0.2118440E+03  0.7561462E-02  0.1140114E+00
         -1   -1    0    0    0  501 -0.00000000000E+00  0.00000000000E+00  0.12218196807E+04  0.12218196807E+04  0.00000000000E+00 0.  1.
          1   -1    0    0  501    0  0.00000000000E+00 -0.00000000000E+00 -0.41815875517E+02  0.41815875517E+02  0.00000000000E+00 0. -1.
         23    2    1    2    0    0  0.19146570950E+03 -0.24567524366E+01  0.65749173268E+03  0.69042759677E+03  0.87918907425E+02 0.  0.
          5    1    1    2  502    0 -0.38559527512E+02 -0.41633771159E+02  0.54216907639E+02  0.78594869659E+02  0.41800000000E+01 0. -1.
         -5    1    1    2    0  502 -0.15290618198E+03  0.44090523596E+02  0.46829516484E+03  0.49461308977E+03  0.41800000000E+01 0.  1.
        -11    1    3    3    0    0  0.14277725354E+03  0.34002334626E+02  0.40695747841E+03  0.43261517787E+03  0.00000000000E+00 0.  1.
         11    1    3    3    0    0  0.48688455952E+02 -0.36459087063E+02  0.25053425427E+03  0.25781241889E+03  0.00000000000E+00 0. -1.
</event>
<event>
 7    1  0.6564611E-006  0.1407160E+03  0.7561462E-02  0.1212369E+00
         -1   -1    0    0    0  501 -0.00000000000E+00  0.00000000000E+00  0.15975154595E+03  0.15975154595E+03  0.00000000000E+00 0.  1.
          1   -1    0    0  501    0  0.00000000000E+00 -0.00000000000E+00 -0.18118154206E+03  0.18118154206E+03  0.00000000000E+00 0. -1.
         23    2    1    2    0    0  0.77492552671E+02  0.10495059578E+03 -0.16109089735E+02  0.16011495413E+03  0.91419759834E+02 0.  0.
          5    1    1    2  502    0 -0.56686219872E+02 -0.77653912808E+02  0.55328493554E+02  0.11100528049E+03  0.41800000000E+01 0.  1.
         -5    1    1    2    0  502 -0.20806332799E+02 -0.27296682977E+02 -0.60649399929E+02  0.69812853386E+02  0.41800000000E+01 0.  1.
        -11    1    3    3    0    0  0.67086468554E+02  0.27545881579E+02  0.18261711521E+02  0.74785426138E+02  0.00000000000E+00 0. -1.
         11    1    3    3    0    0  0.10406084117E+02  0.77404714206E+02 -0.34370801256E+02  0.85329527989E+02  0.00000000000E+00 0.  1.
</event>
<event>
 7    1  0.5831876E-006  0.1377887E+03  0.7561462E-02  0.1216336E+00
          2   -1    0    0  501    0  0.00000000000E+00  0.00000000000E+00  0.21736801497E+03  0.21736801497E+03  0.00000000000E+00 0. -1.
         -2   -1    0    0    0  501 -0.00000000000E+00 -0.00000000000E+00 -0.16874689612E+03  0.16874689612E+03  0.00000000000E+00 0.  1.
         23    2    1    2    0    0  0.20876491090E+02 -0.10748966695E+03 -0.91256913636E+02  0.16891964465E+03  0.90643067461E+02 0.  0.
          5    1    1    2  502    0  0.34062364793E+02  0.86104674119E+02  0.12611059878E+03  0.15651075083E+03  0.41800000000E+01 0. -1.
         -5    1    1    2    0  502 -0.54938855883E+02  0.21384992835E+02  0.13767433709E+02  0.60684515613E+02  0.41800000000E+01 0. -1.
        -11    1    3    3    0    0 -0.73640858945E+01 -0.90556741996E+02 -0.99738609438E+02  0.13491680212E+03  0.00000000000E+00 0.  1.
         11    1    3    3    0    0  0.28240576985E+02 -0.16932924958E+02  0.84816958024E+01  0.34002842525E+02  0.00000000000E+00 0. -1.
</event>
<event>
 7    1  0.5831876E-006  0.1114943E+03  0.7561462E-02  0.1257827E+00
          1   -1    0    0  501    0  0.00000000000E+00  0.00000000000E+00  0.77950499332E+03  0.77950499332E+03  0.00000000000E+00 0. -1.
         -1   -1    0    0    0  501 -0.00000000000E+00 -0.00000000000E+00 -0.22297466500E+02  0.22297466500E+02  0.00000000000E+00 0.  1.
         23    2    1    2    0    0  0.62889990016E+02 -0.40258984462E+02  0.30579425937E+03  0.32746339519E+03  0.90256354070E+02 0.  0.
          5    1    1    2  502    0  0.27094915345E+01 -0.33113574593E+02  0.22423994561E+03  0.22672643378E+03  0.41800000000E+01 0. -1.
         -5    1    1    2    0  502 -0.65599481551E+02  0.73372559055E+02  0.22717332184E+03  0.24761263085E+03  0.41800000000E+01 0. -1.
        -11    1    3    3    0    0  0.52700747606E+01  0.12061261572E+02  0.13537261115E+01  0.13231791001E+02  0.00000000000E+00 0.  1.
         11    1    3    3    0    0  0.57619915256E+02 -0.52320246035E+02  0.30444053326E+03  0.31423160419E+03  0.00000000000E+00 0. -1.
</event>
<event>
 7    1  0.5831876E-006  0.1166446E+03  0.7561462E-02  0.1248737E+00
         -2   -1    0    0    0  501 -0.00000000000E+00  0.00000000000E+00  0.11375704435E+03  0.11375704435E+03  0.00000000000E+00 0.  1.
          2   -1    0    0  501    0  0.00000000000E+00 -0.00000000000E+00 -0.21452915689E+03  0.21452915689E+03  0.00000000000E+00 0. -1.
         23    2    1    2    0    0 -0.18143526694E+02  0.11740637149E+02  0.50903380748E+02  0.10892622877E+03  0.93844227421E+02 0.  0.
          5    1    1    2  502    0  0.13870039973E+02 -0.73811526013E+02 -0.13543561709E+03  0.15492190987E+03  0.41800000000E+01 0. -1.
         -5    1    1    2    0  502  0.42734867215E+01  0.62070888864E+02 -0.16239876190E+02  0.64438062601E+02  0.41800000000E+01 0.  1.
        -11    1    3    3    0    0  0.20402583672E+02 -0.31660078885E+02  0.14219502341E+02  0.40259412096E+02  0.00000000000E+00 0. -1.
         11    1    3    3    0    0 -0.38546110366E+02  0.43400716034E+02  0.36683878407E+02  0.68666816670E+02  0.00000000000E+00 0.  1.
</event>
<event>
 6    1  0.5831876E-006  0.1533758E+03  0.7561462E-02  0.1196385E+00
         -1   -1    0    0    0  501 -0.00000000000E+00  0.00000000000E+00  0.63705124180E+02  0.63705124180E+02  0.00000000000E+00 0.  1.
          1   -1    0    0  501    0  0.00000000000E+00 -0.00000000000E+00 -0.49894296831E+03  0.49894296831E+03  0.00000000000E+00 0. -1.
          5    1    1    2  502    0  0.59986630439E+02 -0.48631175443E+02 -0.58137277944E+02  0.96751240525E+02  0.41800000000E+01 0. -1.
         -5    1    1    2    0  502 -0.18586760625E+02 -0.34798807624E+02 -0.20769633108E+03  0.21145132543E+03  0.41800000000E+01 0. -1.
        -11    1    1    2    0    0 -0.67160004056E+01  0.13083359620E+03 -0.12095333726E+03  0.17830379792E+03  0.00000000000E+00 0. -1.
         11    1    1    2    0    0 -0.34683869409E+02 -0.47403613133E+02 -0.48450897844E+02  0.76141728620E+02  0.00000000000E+00 0.  1.
</event>
<event>
 7    1  0.5831876E-006  0.8987511E+02  0.7561462E-02  0.1303154E+00
          2   -1    0    0  501    0  0.00000000000E+00  0.00000000000E+00  0.23109609190E+03  0.23109609190E+03  0.00000000000E+00 0. -1.
         -2   -1    0    0    0  501 -0.00000000000E+00 -0.00000000000E+00 -0.74693797499E+02  0.74693797499E+02  0.00000000000E+00 0.  1.
         23    2    1    2    0    0 -0.30348468962E+02 -0.64300579006E+02  0.50190285974E+02  0.12695108976E+03  0.92422510003E+02 0.  0.
          5    1    1    2  502    0  0.99168544556E+01  0.46968889223E+02  0.13254988856E+03  0.14103675377E+03  0.41800000000E+01 0.  1.
         -5    1    1    2    0  502  0.20431614506E+02  0.17331689783E+02 -0.26337880134E+02  0.37802045871E+02  0.41800000000E+01 0.  1.
        -11    1    3    3    0    0 -0.56216402156E+02 -0.47554586948E+02  0.70969026980E+01  0.73973567165E+02  0.00000000000E+00 0.  1.
         11    1    3    3    0    0  0.25867933194E+02 -0.16745992058E+02  0.43093383277E+02  0.52977522591E+02  0.00000000000E+00 0. -1.
</event>
<event>
 7    1  0.5831876E-006  0.7708060E+02  0.7561462E-02  0.1337547E+00
          2   -1    0    0  501    0  0.00000000000E+00  0.00000000000E+00  0.44493167345E+03  0.44493167345E+03  0.00000000000E+00 0. -1.
         -2   -1    0    0    0  501 -0.00000000000E+00 -0.00000000000E+00 -0.42499909820E+02  0.42499909820E+02  0.00000000000E+00 0.  1.
         23    2    1    2    0    0 -0.11783747206E+02  0.25763342936E+02  0.30547314794E+02  0.94051177988E+02  0.84320099041E+02 0.  0.
          5    1    1    2  502    0  0.14310566852E+02 -0.66498805331E+02  0.32030086389E+03  0.32747060821E+03  0.41800000000E+01 0.  1.
         -5    1    1    2    0  502 -0.25268196461E+01  0.40735462394E+02  0.51583584946E+02  0.65909797071E+02  0.41800000000E+01 0.  1.
        -11    1    3    3    0    0 -0.16661189636E+02 -0.20136937708E+01  0.54515346569E+02  0.57040101807E+02  0.00000000000E+00 0. -1.
         11    1    3    3    0    0  0.48774424295E+01  0.27777036707E+02 -0.23968031775E+02  0.37011076181E+02  0.00000000000E+00 0.  1.
</event>
<event>
 7    1  0.5831876E-006  0.1433227E+03  0.7561462E-02  0.1208927E+00
          1   -1    0    0  501    0  0.00000000000E+00  0.00000000000E+00  0.13104163065E+04  0.13104163065E+04  0.00000000000E+00 0. -1.
         -1   -1    0    0    0  501 -0.00000000000E+00 -0.00000000000E+00 -0.16355293666E+02  0.16355293666E+02  0.00000000000E+00 0.  1.
         23    2    1    2    0    0 -0.17549880932E+02 -0.93191872089E+02  0.51271597273E+03  0.52981561631E+03  0.93990399775E+02 0.  0.
          5    1    1    2  502    0 -0.32852494504E+02  0.10045232408E+03  0.54018827046E+03  0.55044599713E+03  0.41800000000E+01 0. -1.
         -5    1    1    2    0  502  0.50402375436E+02 -0.72604519921E+01  0.24115676965E+03  0.24650998674E+03  0.41800000000E+01 0. -1.
        -11    1    3    3    0    0 -0.47830223028E+02 -0.22462266440E+02  0.27259747160E+03  0.27767186600E+03  0.00000000000E+00 0.  1.
         11    1    3    3    0    0  0.30280342097E+02 -0.70729605649E+02  0.24011850114E+03  0.25214375031E+03  0.00000000000E+00 0. -1.
</event>
<event>
 7    1  0.5831876E-006  0.1221985E+03  0.7561462E-02  0.1239514E+00
          2   -1    0    0  501    0  0.00000000000E+00  0.00000000000E+00  0.43090169538E+03  0.43090169538E+03  0.00000000000E+00 0. -1.
         -2   -1    0    0    0  501 -0.00000000000E+00 -0.00000000000E+00 -0.45382545071E+02  0.45382545071E+02  0.00000000000E+00 0.  1.
         23    2    1    2    0    0  0.47632615799E+02 -0.65510039133E+02  0.11643236809E+03  0.16868783745E+03  0.91316257318E+02 0.  0.
          5    1    1    2  502    0  0.25075337932E+02 -0.20625244091E+02  0.91862054056E+02  0.97520678021E+02  0.41800000000E+01 0.  1.
         -5    1    1    2    0  502 -0.72707953731E+02  0.86135283225E+02  0.17722472817E+03  0.21007572498E+03  0.41800000000E+01 0.  1.
        -11    1    3    3    0    0  0.10072831785E+02 -0.60073974101E+02  0.18501395366E+02  0.63660395341E+02  0.00000000000E+00 0.  1.
         11    1    3    3    0    0  0.37559784014E+02 -0.54360650320E+01  0.97930972721E+02  0.10502744211E+03  0.00000000000E+00 0. -1.
</event>
<event>
 7    1  0.5831876E-006  0.1567752E+03  0.7561462E-02  0.1192386E+00
          1   -1    0    0  501    0  0.00000000000E+00  0.00000000000E+00  0.73339772738E+03  0.73339772738E+03  0.00000000000E+00 0. -1.
         -1   -1    0    0    0  501 -0.00000000000E+00 -0.00000000000E+00 -0.40082609869E+02  0.40082609869E+02  0.00000000000E+00 0.  1.
         23    2    1    2    0    0 -0.11690528864E+03  0.45649192736E+02  0.42242484551E+03  0.44978410608E+03  0.90068288918E+02 0.  0.
          5    1    1    2  502    0 -0.81207412961E+01 -0.35618289623E+02  0.17057752027E+02  0.40534532180E+02  0.41800000000E+01 0.  1.
         -5    1    1    2    0  502  0.12502602993E+03 -0.10030903113E+02  0.25383251998E+03  0.28316169899E+03  0.41800000000E+01 0.  1.
        -11    1    3    3    0    0 -0.42178831047E+02  0.61808406995E+02  0.16354250122E+03  0.17984849921E+03  0.00000000000E+00 0.  1.
         11    1    3    3    0    0 -0.74726457590E+02 -0.16159214259E+02  0.25888234429E+03  0.26993560686E+03  0.00000000000E+00 0. -1.
</event>
<event>
 7    1  0.5831876E-006  0.7342627E+02  0.7561462E-02  0.1348815E+00
         -1   -1    0    0    0  501 -0.00000000000E+00  0.00000000000E+00  0.16742770588E+03  0.16742770588E+03  0.00000000000E+00 0.  1.
          1   -1    0    0  501    0  0.00000000000E+00 -0.00000000000E+00 -0.95946592478E+02  0.95946592478E+02  0.00000000000E+00 0. -1.
         23    2    1    2    0    0 -0.13993339065E+02  0.32060005412E+02  0.89055284881E+02  0.13230314709E+03  0.91376263216E+02 0.  0.
          5    1    1    2  502    0 -0.11702381851E+02 -0.11177533713E+02 -0.68319774870E+02  0.70334536603E+02  0.41800000000E+01 0.  1.
         -5    1    1    2    0  502  0.25695720916E+02 -0.20882471699E+02  0.50745603393E+02  0.60736614668E+02  0.41800000000E+01 0.  1.
        -11    1    3    3    0    0 -0.51232408977E+02  0.30217823165E+02  0.64056717189E+02  0.87413612118E+02  0.00000000000E+00 0.  1.
         11    1    3    3    0    0  0.37239069912E+02  0.18421822465E+01  0.24998567692E+02  0.44889534972E+02  0.00000000000E+00 0. -1.
</event>
<event>
 7    1  0.5831876E-006  0.1112473E+03  0.7561462E-02  0.1258277E+00
          2   -1    0    0  501    0  0.00000000000E+00  0.00000000000E+00  0.38787522476E+03  0.38787522476E+03  0.00000000000E+00 0. -1.
         -2   -1    0    0    0  501 -0.00000000000E+00 -0.00000000000E+00 -0.53676965301E+02  0.53676965301E+02  0.00000000000E+00 0.  1.
         23    2    1    2    0    0 -0.81359802784E+02 -0.14356671645E+02  0.76302182523E+02  0.14324947863E+03  0.88729130159E+02 0.  0.
          5    1    1    2  502    0  0.91182084047E+02  0.45361158922E+02  0.24044565304E+03  0.26115779073E+03  0.41800000000E+01 0.  1.
         -5    1    1    2    0  502 -0.98222812623E+01 -0.31004487277E+02  0.17450423896E+02  0.37144920712E+02  0.41800000000E+01 0.  1.
        -11    1    3    3    0    0 -0.32442269024E+02  0.88577292752E+01  0.82170512366E+02  0.88785997149E+02  0.00000000000E+00 0. -1.
         11    1    3    3    0    0 -0.48917533761E+02 -0.23214400920E+02 -0.58683298433E+01  0.54463481476E+02  0.00000000000E+00 0.  1.
</event>
<event>
 7    1  0.5831876E-006  0.1000453E+03  0.7561462E-02  0.1280201E+00
         -2   -1    0    0    0  501 -0.00000000000E+00  0.00000000000E+00  0.15527911698E+03  0.15527911698E+03  0.00000000000E+00 0.  1.
          2   -1    0    0  501    0  0.00000000000E+00 -0.00000000000E+00 -0.81216998370E+02  0.81216998370E+02  0.00000000000E+00 0. -1.
         23    2    1    2    0    0  0.82495578795E+01 -0.92894763147E+01  0.63155584165E+02  0.11031899935E+03  0.89595224381E+02 0.  0.
          5    1    1    2  502    0  0.67901010983E+01  0.62134830207E+02 -0.16290941339E+02  0.64727967429E+02  0.41800000000E+01 0. -1.
         -5    1    1    2    0  502 -0.15039658978E+02 -0.52845353893E+02  0.27197475782E+02  0.61449148563E+02  0.41800000000E+01 0. -1.
        -11    1    3    3    0    0 -0.56048954981E+01 -0.44319995697E+02  0.56561474978E+02  0.72075497389E+02  0.00000000000E+00 0.  1.
         11    1    3    3    0    0  0.13854453378E+02  0.35030519383E+02  0.65941091870E+01  0.38243501965E+02  0.00000000000E+00 0. -1.
</event>
<event>
 7    1  0.5831876E-006  0.1588419E+03  0.7561462E-02  0.1190010E+00
         -1   -1    0    0    0  501 -0.00000000000E+00  0.00000000000E+00  0.54704192469E+02  0.54704192469E+02  0.00000000000E+00 0.  1.
          1   -1    0    0  501    0  0.00000000000E+00 -0.00000000000E+00 -0.56166273407E+03  0.56166273407E+03  0.00000000000E+00 0. -1.
         23    2    1    2    0    0 -0.11173207426E+03  0.33544157953E+02 -0.11588931209E+03  0.18952766663E+03  0.94239783584E+02 0.  0.
          5    1    1    2  502    0  0.13858546679E+03 -0.24127427384E+02 -0.34405577224E+03  0.37172558584E+03  0.41800000000E+01 0.  1.
         -5    1    1    2    0  502 -0.26853392528E+02 -0.94167305686E+01 -0.47013457261E+02  0.55113674061E+02  0.41800000000E+01 0.  1.
        -11    1    3    3    0    0 -0.52250667770E+02 -0.30728711514E+02 -0.33339753614E+02  0.69180381357E+02  0.00000000000E+00 0. -1.
         11    1    3    3    0    0 -0.59481406489E+02  0.64272869467E+02 -0.82549558480E+02  0.12034728527E+03  0.00000000000E+00 0.  1.
</event>
<event>
 7    1  0.5831876E-006  0.1699018E+03  0.7561462E-02  0.1177950E+00
         -2   -1    0    0    0  501 -0.00000000000E+00  0.00000000000E+00  0.27145395342E+02  0.27145395342E+02  0.00000000000E+00 0.  1.
          2   -1    0    0  501    0  0.00000000000E+00 -0.00000000000E+00 -0.12861954268E+04  0.12861954268E+04  0.00000000000E+00 0. -1.
         23    2    1    2    0    0  0.13606948572E+03  0.79041830685E+01 -0.35986826006E+03  0.39532512631E+03  0.90550592717E+02 0.  0.
          5    1    1    2  502    0 -0.14770794211E+03  0.18225928305E+02 -0.63325581197E+03  0.65052303296E+03  0.41800000000E+01 0.  1.
         -5    1    1    2    0  502  0.11638456389E+02 -0.26130111374E+02 -0.26592595946E+03  0.26749266290E+03  0.41800000000E+01 0.  1.
        -11    1    3    3    0    0 -0.51854056784E+01 -0.17706658493E+02 -0.61661727506E+02  0.64362899453E+02  0.00000000000E+00 0.  1.
         11    1    3    3    0    0  0.14125489140E+03  0.25610841562E+02 -0.29820653255E+03  0.33096222686E+03  0.00000000000E+00 0. -1.
</event>
<event>
 7    1  0.5831876E-006  0.1650388E+03  0.7561462E-02  0.1183123E+00
          2   -1    0    0  501    0  0.00000000000E+00  0.00000000000E+00  0.23359867103E+03  0.23359867103E+03  0.00000000000E+00 0. -1.
         -2   -1    0    0    0  501 -0.00000000000E+00 -0.00000000000E+00 -0.15538447824E+03  0.15538447824E+03  0.00000000000E+00 0.  1.
         23    2    1    2    0    0  0.11172031864E+03  0.10603315310E+03  0.66173275755E+02  0.19019672756E+03  0.89841157583E+02 0.  0.
          5    1    1    2  502    0 -0.61090170881E+02 -0.43932294509E+02 -0.55754951534E+02  0.93745093203E+02  0.41800000000E+01 0.  1.
         -5    1    1    2    0  502 -0.50630147764E+02 -0.62100858592E+02  0.67795868572E+02  0.10504132851E+03  0.41800000000E+01 0.  1.
        -11    1    3    3    0    0  0.27642227349E+02 -0.11527143030E+02 -0.27432363028E+01  0.30074791847E+02  0.00000000000E+00 0. -1.
         11    1    3    3    0    0  0.84078091296E+02  0.11756029613E+03  0.68916512058E+02  0.16012193571E+03  0.00000000000E+00 0.  1.
</event>
<event>
 7    1  0.5831876E-006  0.1212496E+03  0.7561462E-02  0.1241050E+00
          2   -1    0    0  501    0  0.00000000000E+00  0.00000000000E+00  0.47025894665E+03  0.47025894665E+03  0.00000000000E+00 0. -1.
         -2   -1    0    0    0  501 -0.00000000000E+00 -0.00000000000E+00 -0.58368331596E+02  0.58368331596E+02  0.00000000000E+00 0.  1.
         23    2    1    2    0    0 -0.42359388241E+02 -0.40029133174E+02  0.15444764406E+02  0.10885202309E+03  0.90628764239E+02 0.  0.
          5    1    1    2  502    0  0.38714011785E+02  0.82945066797E+02  0.22476940090E+03  0.24272909755E+03  0.41800000000E+01 0. -1.
         -5    1    1    2    0  502  0.36453764559E+01 -0.42915933622E+02  0.17167644975E+03  0.17704615761E+03  0.41800000000E+01 0. -1.
        -11    1    3    3    0    0  0.12200572956E+02 -0.50575224345E+02  0.45534648284E+01  0.52224911105E+02  0.00000000000E+00 0.  1.
         11    1    3    3    0    0 -0.54559961197E+02  0.10546091170E+02  0.10891299578E+02  0.56627111981E+02  0.00000000000E+00 0. -1.
</event>
<event>
 7    1  0.5831876E-006  0.1406469E+03  0.7561462E-02  0.1212461E+00
          1   -1    0    0  501    0  0.00000000000E+00  0.00000000000E+00  0.10898273273E+04  0.10898273273E+04  0.00000000000E+00 0. -1.
         -1   -1    0    0    0  501 -0.00000000000E+00 -0.00000000000E+00 -0.24713371068E+02  0.24713371068E+02  0.00000000000E+00 0.  1.
         23    2    1    2    0    0  0.10694967822E+03  0.13120910819E+01  0.28658486301E+03  0.31880468042E+03  0.89808603701E+02 0.  0.
          5    1    1    2  502    0 -0.78569415013E+02 -0.44108318108E+02  0.66467248558E+03  0.67076499774E+03  0.41800000000E+01 0. -1.
         -5    1    1    2    0  502 -0.28380263208E+02  0.42796227026E+02  0.11385660761E+03  0.12497102018E+03  0.41800000000E+01 0. -1.
        -11    1    3    3    0    0 -0.15764810137E+02 -0.54264835789E+01  0.30654989696E+02  0.34895620871E+02  0.00000000000E+00 0. -1.
         11    1    3    3    0    0  0.12271448836E+03  0.67385746609E+01  0.25592987331E+03  0.28390905955E+03  0.00000000000E+00 0.  1.
</event>
<event>
 7    1  0.5831876E-006  0.9818959E+02  0.7561462E-02  0.1284150E+00
          1   -1    0    0  501    0  0.00000000000E+00  0.00000000000E+00  0.34525315113E+03  0.34525315113E+03  0.00000000000E+00 0. -1.
         -1   -1    0    0    0  501 -0.00000000000E+00 -0.00000000000E+00 -0.46935967404E+02  0.46935967404E+02  0.00000000000E+00 0.  1.
         23    2    1    2    0    0  0.45269410497E+02 -0.46764804648E+02  0.96504974879E+02  0.14599221352E+03  0.88114980286E+02 0.  0.
          5    1    1    2  502    0 -0.29159992741E+02  0.59820889014E+02  0.21234374640E+03  0.22256725494E+03  0.41800000000E+01 0.  1.
         -5    1    1    2    0  502 -0.16109417756E+02 -0.13056084366E+02 -0.10531537550E+02  0.23629650073E+02  0.41800000000E+01 0.  1.
        -11    1    3    3    0    0 -0.25131271305E+02 -0.22048844628E+01  0.31247979179E+02  0.40160658805E+02  0.00000000000E+00 0. -1.
         11    1    3    3    0    0  0.70400681802E+02 -0.44559920185E+02  0.65256995700E+02  0.10583155471E+03  0.00000000000E+00 0.  1.
</event>
<event>
 7    1  0.5831876E-006  0.1086684E+03  0.7561462E-02  0.1263056E+00
          1   -1    0    0  501    0  0.00000000000E+00  0.00000000000E+00  0.23021690461E+02  0.23021690461E+02  0.00000000000E+00 0. -1.
         -1   -1    0    0    0  501 -0.00000000000E+00 -0.00000000000E+00 -0.63991301772E+03  0.63991301772E+03  0.00000000000E+00 0.  1.
         23    2    1    2    0    0  0.24152548986E+02  0.33779816776E+02 -0.37822575747E+03  0.39029329033E+03  0.86889051186E+02 0.  0.
          5    1    1    2  502    0  0.19852224195E+02  0.35486139175E+02 -0.38026739910E+02  0.55829044656E+02  0.41800000000E+01 0.  1.
         -5    1    1    2    0  502 -0.44004773181E+02 -0.69265955951E+02 -0.20063882988E+03  0.21681237320E+03  0.41800000000E+01 0.  1.
        -11    1    3    3    0    0  0.45091142767E+02  0.50350636990E+02 -0.23181988675E+03  0.24147227106E+03  0.00000000000E+00 0. -1.
         11    1    3    3    0    0 -0.20938593782E+02 -0.16570820214E+02 -0.14640587072E+03  0.14882101926E+03  0.00000000000E+00 0.  1.
</event>
<event>
 7    1  0.5831876E-006  0.1316927E+03  0.7561462E-02  0.1224966E+00
         -2   -1    0    0    0  501 -0.00000000000E+00  0.00000000000E+00  0.16843287661E+02  0.16843287661E+02  0.00000000000E+00 0.  1.
          2   -1    0    0  501    0  0.00000000000E+00 -0.00000000000E+00 -0.16993234944E+04  0.16993234944E+04  0.00000000000E+00 0. -1.
         23    2    1    2    0    0 -0.40384475289E+02 -0.10397266913E+03 -0.44746274510E+03  0.46982909805E+03  0.89862402301E+02 0.  0.
          5    1    1    2  502    0  0.31579525515E+02 -0.75642581416E+01 -0.88424739522E+02  0.94291523440E+02  0.41800000000E+01 0.  1.
         -5    1    1    2    0  502  0.88049497742E+01  0.11153692727E+03 -0.11465927221E+04  0.11520461606E+04  0.41800000000E+01 0.  1.
        -11    1    3    3    0    0 -0.37043186323E+02 -0.39606733345E+02 -0.79315366503E+02  0.96082351879E+02  0.00000000000E+00 0.  1.
         11    1    3    3    0    0 -0.33412889662E+01 -0.64365935785E+02 -0.36814737860E+03  0.37374674617E+03  0.00000000000E+00 0. -1.
</event>
<event>
 7    1  0.5831876E-006  0.1509492E+03  0.7561462E-02  0.1199311E+00
         -4   -1    0    0    0  501 -0.00000000000E+00  0.00000000000E+00  0.30161800480E+02  0.30161800480E+02  0.00000000000E+00 0.  1.
          4   -1    0    0  501    0  0.00000000000E+00 -0.00000000000E+00 -0.90876337790E+03  0.90876337790E+03  0.00000000000E+00 0. -1.
         23    2    1    2    0    0 -0.52631189047E+02  0.11159229664E+03 -0.30566802788E+03  0.33965845663E+03  0.81927047808E+02 0.  0.
          5    1    1    2  502    0  0.82039491011E+02 -0.54779298715E+02 -0.22853085869E+03  0.24894793718E+03  0.41800000000E+01 0.  1.
         -5    1    1    2    0  502 -0.29408301964E+02 -0.56812997922E+02 -0.34440269085E+03  0.35031878457E+03  0.41800000000E+01 0.  1.
        -11    1    3    3    0    0  0.69665066521E+01  0.59475890881E+02 -0.76184279991E+02  0.96901797346E+02  0.00000000000E+00 0.  1.
         11    1    3    3    0    0 -0.59597695699E+02  0.52116405756E+02 -0.22948374789E+03  0.24275665928E+03  0.00000000000E+00 0. -1.
</event>
<event>
 7    1  0.5831876E-006  0.1863438E+03  0.7561462E-02  0.1161801E+00
         -1   -1    0    0    0  501 -0.00000000000E+00  0.00000000000E+00  0.22727910979E+02  0.22727910979E+02  0.00000000000E+00 0.  1.
          1   -1    0    0  501    0  0.00000000000E+00 -0.00000000000E+00 -0.18314359557E+04  0.18314359557E+04  0.00000000000E+00 0. -1.
         23    2    1    2    0    0 -0.16797104771E+03 -0.27798725138E+02 -0.75015960936E+03  0.77473816800E+03  0.92156103783E+02 0.  0.
          5    1    1    2  502    0  0.92410194892E+02 -0.39950007109E+02 -0.68263592560E+03  0.69003255468E+03  0.41800000000E+01 0. -1.
         -5    1    1    2    0  502  0.75560852816E+02  0.67748732247E+02 -0.37591250977E+03  0.38939314401E+03  0.41800000000E+01 0. -1.
        -11    1    3    3    0    0 -0.66855998301E+02 -0.82095780199E+01 -0.13343538732E+03  0.14947282117E+03  0.00000000000E+00 0.  1.
         11    1    3    3    0    0 -0.10111504941E+03 -0.19589147118E+02 -0.61672422204E+03  0.62526534683E+03  0.00000000000E+00 0. -1.
</event>
<event>
 7    1  0.5831876E-006  0.1172691E+03  0.7561462E-02  0.1247671E+00
         -1   -1    0    0    0  501 -0.00000000000E+00  0.00000000000E+00  0.28637377047E+03  0.28637377047E+03  0.00000000000E+00 0.  1.
          1   -1    0    0  501    0  0.00000000000E+00 -0.00000000000E+00 -0.62122229894E+02  0.62122229894E+02  0.00000000000E+00 0. -1.
         23    2    1    2    0    0 -0.49218112814E+02 -0.48439314518E+02  0.14240895213E+03  0.18382940574E+03  0.93510164948E+02 0.  0.
          5    1    1    2  502    0  0.84430305860E+02  0.27505108563E+02  0.85483087066E+02  0.12332817245E+03  0.41800000000E+01 0.  1.
         -5    1    1    2    0  502 -0.35212193045E+02  0.20934205954E+02 -0.36404986177E+01  0.41338422178E+02  0.41800000000E+01 0.  1.
        -11    1    3    3    0    0 -0.29953808783E+02 -0.69646065901E+02  0.60315547005E+02  0.96880185625E+02  0.00000000000E+00 0.  1.
         11    1    3    3    0    0 -0.19264304031E+02  0.21206751384E+02  0.82093405121E+02  0.86949220113E+02  0.00000000000E+00 0. -1.
</event>
<event>
 7    1  0.5831876E-006  0.1193174E+03  0.7561462E-02  0.1244227E+00
         -3   -1    0    0    0  501 -0.00000000000E+00  0.00000000000E+00  0.46271722152E+03  0.46271722152E+03  0.00000000000E+00 0.  1.
          3   -1    0    0  501    0  0.00000000000E+00 -0.00000000000E+00 -0.59955457334E+02  0.59955457334E+02  0.00000000000E+00 0. -1.
         23    2    1    2    0    0  0.44622711290E+01 -0.17375222872E+02  0.35175945167E+03  0.36388567343E+03  0.91412588039E+02 0.  0.
          5    1    1    2  502    0  0.64661565786E+02  0.41524209748E+02  0.28589343947E+02  0.82098727593E+02  0.41800000000E+01 0.  1.
         -5    1    1    2    0  502 -0.69123836915E+02 -0.24148986876E+02  0.22412968566E+02  0.76688277832E+02  0.41800000000E+01 0. -1.
        -11    1    3    3    0    0 -0.40280428366E+02 -0.16650843563E+02  0.23156863221E+03  0.23563487629E+03  0.00000000000E+00 0. -1.
         11    1    3    3    0    0  0.44742699495E+02 -0.72437930889E+00  0.12019081947E+03  0.12825079714E+03  0.00000000000E+00 0.  1.
</event>
<event>
 7    1  0.5831876E-006  0.2448680E+03  0.7561462E-02  0.1116592E+00
          2   -1    0    0  501    0  0.00000000000E+00  0.00000000000E+00  0.31624682868E+03  0.31624682868E+03  0.00000000000E+00 0. -1.
         -2   -1    0    0    0  501 -0.00000000000E+00 -0.00000000000E+00 -0.21950743347E+03  0.21950743347E+03  0.00000000000E+00 0.  1.
         23    2    1    2    0    0 -0.12504566658E+03  0.18546750461E+03 -0.40047513177E+02  0.24524934880E+03  0.92243296669E+02 0.  0.
          5    1    1    2  502    0 -0.67176359027E+01 -0.78204780980E+02  0.11675129479E+02  0.79466316440E+02  0.41800000000E+01 0. -1.
         -5    1    1    2    0  502  0.13176330248E+03 -0.10726272363E+03  0.12511177891E+03  0.21103859690E+03  0.41800000000E+01 0. -1.
        -11    1    3    3    0    0 -0.70381698528E+02  0.17057048954E+03 -0.22222307868E+02  0.18585399203E+03  0.00000000000E+00 0. -1.
         11    1    3    3    0    0 -0.54663968051E+02  0.14897015071E+02 -0.17825205309E+02  0.59395356767E+02  0.00000000000E+00 0.  1.
</event>
<event>
 7    1  0.5831876E-006  0.1001339E+03  0.7561462E-02  0.1280015E+00
          1   -1    0    0  501    0  0.00000000000E+00  0.00000000000E+00  0.79041748433E+03  0.79041748433E+03  0.00000000000E+00 0. -1.
         -1   -1    0    0    0  501 -0.00000000000E+00 -0.00000000000E+00 -0.22264523164E+02  0.22264523164E+02  0.00000000000E+00 0.  1.
         23    2    1    2    0    0 -0.62385214511E+01  0.48442299930E+02  0.14859320483E+03  0.17873690943E+03  0.86494894055E+02 0.  0.
          5    1    1    2  502    0  0.18794634935E+02 -0.71665547128E+02  0.58766254418E+03  0.59232923884E+03  0.41800000000E+01 0.  1.
         -5    1    1    2    0  502 -0.12556113484E+02  0.23223247197E+02  0.31897212157E+02  0.41615859232E+02  0.41800000000E+01 0.  1.
        -11    1    3    3    0    0 -0.46298855559E+02  0.21450497772E+02  0.76688378249E+02  0.92113056833E+02  0.00000000000E+00 0.  1.
         11    1    3    3    0    0  0.40060334108E+02  0.26991802159E+02  0.71904826580E+02  0.86623852593E+02  0.00000000000E+00 0. -1.
</event>
<event>
 7    1  0.5831876E-006  0.1259691E+03  0.7561462E-02  0.1233562E+00
          2   -1    0    0  501    0  0.00000000000E+00  0.00000000000E+00  0.19411202377E+03  0.19411202377E+03  0.00000000000E+00 0. -1.
         -2   -1    0    0    0  501 -0.00000000000E+00 -0.00000000000E+00 -0.99895026923E+02  0.99895026923E+02  0.00000000000E+00 0.  1.
         23    2    1    2    0    0 -0.42702437351E+02  0.63885009653E+02  0.34072209696E+01  0.12138191492E+03  0.93899773699E+02 0.  0.
          5    1    1    2  502    0 -0.35600668160E+02 -0.48341783781E+01 -0.37030153666E+01  0.36358789540E+02  0.41800000000E+01 0.  1.
         -5    1    1    2    0  502  0.78303105511E+02 -0.59050831275E+02  0.94512791242E+02  0.13626634623E+03  0.41800000000E+01 0.  1.
        -11    1    3    3    0    0  0.24849098523E+02  0.37709161457E+02  0.15878628269E+02  0.47870548262E+02  0.00000000000E+00 0. -1.
         11    1    3    3    0    0 -0.67551535875E+02  0.26175848196E+02 -0.12471407300E+02  0.73511366657E+02  0.00000000000E+00 0.  1.
</event>
<event>
 7    1  0.5831876E-006  0.1138998E+03  0.7561462E-02  0.1253514E+00
         -1   -1    0    0    0  501 -0.00000000000E+00  0.00000000000E+00  0.54444248569E+02  0.54444248569E+02  0.00000000000E+00 0.  1.
          1   -1    0    0  501    0  0.00000000000E+00 -0.00000000000E+00 -0.65272819038E+03  0.65272819038E+03  0.00000000000E+00 0. -1.
         23    2    1    2    0    0 -0.61791757114E+02  0.50124327681E+02 -0.31243194276E+02  0.12107273925E+03  0.85742647075E+02 0.  0.
          5    1    1    2  502    0  0.86403281113E+02  0.60888855215E+01 -0.33682978741E+03  0.34781371393E+03  0.41800000000E+01 0. -1.
         -5    1    1    2    0  502 -0.24611523999E+02 -0.56213213203E+02 -0.23021096012E+03  0.23828598577E+03  0.41800000000E+01 0. -1.
        -11    1    3    3    0    0 -0.42714833424E+02  0.35341094449E+02  0.24285875700E+02  0.60525645059E+02  0.00000000000E+00 0.  1.
         11    1    3    3    0    0 -0.19076923690E+02  0.14783233232E+02 -0.55529069976E+02  0.60547094188E+02  0.00000000000E+00 0. -1.
</event>
<event>
 7    1  0.5831876E-006  0.1573320E+03  0.7561462E-02  0.1191742E+00
         -2   -1    0    0    0  501 -0.00000000000E+00  0.00000000000E+00  0.35808882624E+02  0.35808882624E+02  0.00000000000E+00 0.  1.
          2   -1    0    0  501    0  0.00000000000E+00 -0.00000000000E+00 -0.78408787372E+03  0.78408787372E+03  0.00000000000E+00 0. -1.
         23    2    1    2    0    0 -0.88412791575E+02  0.31900173119E+02 -0.18920620586E+03  0.22867173994E+03  0.87506191503E+02 0.  0.
          5    1    1    2  502    0  0.11995062596E+03  0.24457323767E+02 -0.42582927588E+03  0.44309633033E+03  0.41800000000E+01 0. -1.
         -5    1    1    2    0  502 -0.31537834388E+02 -0.56357496887E+02 -0.13324350935E+03  0.14812868607E+03  0.41800000000E+01 0.  1.
        -11    1    3    3    0    0 -0.97959867010E+02  0.47731629836E+02 -0.15084100185E+03  0.18608452883E+03  0.00000000000E+00 0.  1.
         11    1    3    3    0    0  0.95470754349E+01 -0.15831456717E+02 -0.38365204007E+02  0.42587211105E+02  0.00000000000E+00 0. -1.
</event>
<event>
 7    1  0.5831876E-006  0.9363788E+02  0.7561462E-02  0.1294274E+00
         -1   -1    0    0    0  501 -0.00000000000E+00  0.00000000000E+00  0.35796259821E+02  0.35796259821E+02  0.00000000000E+00 0.  1.
          1   -1    0    0  501    0  0.00000000000E+00 -0.00000000000E+00 -0.37228079089E+03  0.37228079089E+03  0.00000000000E+00 0. -1.
         23    2    1    2    0    0  0.72160602992E+01 -0.37731522487E+02 -0.13564271700E+03  0.16836920388E+03  0.92051631301E+02 0.  0.
          5    1    1    2  502    0 -0.56906723800E+02  0.10875399865E+02 -0.15903509452E+03  0.16931120230E+03  0.41800000000E+01 0.  1.
         -5    1    1    2    0  502  0.49690663500E+02  0.26856122622E+02 -0.41806719550E+02  0.70396644529E+02  0.41800000000E+01 0.  1.
        -11    1    3    3    0    0  0.32086040460E+02 -0.66921133664E+01 -0.67301742393E+01  0.33460329033E+02  0.00000000000E+00 0.  1.
         11    1    3    3    0    0 -0.24869980161E+02 -0.31039409121E+02 -0.12891254276E+03  0.13490887485E+03  0.00000000000E+00 0. -1.
</event>
<event>
 7    1  0.5831876E-006  0.9467066E+02  0.7561462E-02  0.1291920E+00
          2   -1    0    0  501    0  0.00000000000E+00  0.00000000000E+00  0.11980364935E+04  0.11980364935E+04  0.00000000000E+00 0. -1.
         -2   -1    0    0    0  501 -0.00000000000E+00 -0.00000000000E+00 -0.14326363493E+02  0.14326363493E+02  0.00000000000E+00 0.  1.
         23    2    1    2    0    0  0.24354942835E+01  0.64636674575E+02  0.36354050643E+03  0.38020021676E+03  0.90590693103E+02 0.  0.
          5    1    1    2  502    0 -0.25664943467E+02 -0.36992778628E+02  0.76349628367E+03  0.76483410134E+03  0.41800000000E+01 0.  1.
         -5    1    1    2    0  502  0.23229449184E+02 -0.27643895947E+02  0.56673339874E+02  0.67328538860E+02  0.41800000000E+01 0.  1.
        -11    1    3    3    0    0  0.29065320426E+02  0.74034168036E+02  0.22067423271E+03  0.23456975055E+03  0.00000000000E+00 0.  1.
         11    1    3    3    0    0 -0.26629826143E+02 -0.93974934609E+01  0.14286627372E+03  0.14563046622E+03  0.00000000000E+00 0. -1.
</event>
<event>
 7    1  0.5831876E-006  0.8811512E+02  0.7561462E-02  0.1307481E+00
         -1   -1    0    0    0  501 -0.00000000000E+00  0.00000000000E+00  0.15007613925E+03  0.15007613925E+03  0.00000000000E+00 0.  1.
          1   -1    0    0  501    0  0.00000000000E+00 -0.00000000000E+00 -0.10907340813E+03  0.10907340813E+03  0.00000000000E+00 0. -1.
         23    2    1    2    0    0 -0.38301464617E+02 -0.29671080251E+02  0.66374417075E+02  0.12262728779E+03  0.91019301654E+02 0.  0.
          5    1    1    2  502    0 -0.29005961343E+02 -0.23976772351E+02 -0.32710685725E+02  0.50036914037E+02  0.41800000000E+01 0. -1.
         -5    1    1    2    0  502  0.67307425960E+02  0.53647852601E+02  0.73389997610E+01  0.86485345554E+02  0.41800000000E+01 0. -1.
        -11    1    3    3    0    0 -0.15667997192E+02 -0.24328303475E+02  0.86911157526E+02  0.91601865638E+02  0.00000000000E+00 0.  1.
         11    1    3    3    0    0 -0.22633467425E+02 -0.53427767763E+01 -0.20536740451E+02  0.31025422152E+02  0.00000000000E+00 0. -1.
</event>
<event>
 7    1  0.5831876E-006  0.1160328E+03  0.7561462E-02  0.1249789E+00
         -2   -1    0    0    0  501 -0.00000000000E+00  0.00000000000E+00  0.16054433559E+02  0.16054433559E+02  0.00000000000E+00 0.  1.
          2   -1    0    0  501    0  0.00000000000E+00 -0.00000000000E+00 -0.12998256644E+04  0.12998256644E+04  0.00000000000E+00 0. -1.
         23    2    1    2    0    0 -0.37927058156E+02 -0.60436285768E+02 -0.30833811203E+03  0.32987424018E+03  0.93024817248E+02 0.  0.
          5    1    1    2  502    0  0.63207264296E+02  0.66323136260E+02 -0.41755410036E+03  0.42750767922E+03  0.41800000000E+01 0.  1.
         -5    1    1    2    0  502 -0.25280206140E+02 -0.58868504924E+01 -0.55787901849E+03  0.55849817861E+03  0.41800000000E+01 0.  1.
        -11    1    3    3    0    0  0.27466204285E+02 -0.41461464135E+01 -0.11236314063E+03  0.11574566203E+03  0.00000000000E+00 0.  1.
         11    1    3    3    0    0 -0.65393262441E+02 -0.56290139354E+02 -0.19597497140E+03  0.21412857814E+03  0.00000000000E+00 0. -1.
</event>
<event>
 7    1  0.5831876E-006  0.1034235E+03  0.7561462E-02  0.1273257E+00
          1   -1    0    0  501    0  0.00000000000E+00  0.00000000000E+00  0.71284216617E+03  0.71284216617E+03  0.00000000000E+00 0.  1.
         -1   -1    0    0    0  501 -0.00000000000E+00 -0.00000000000E+00 -0.37491084024E+02  0.37491084024E+02  0.00000000000E+00 0. -1.
         23    2    1    2    0    0 -0.46172734673E+02 -0.67370679059E+02  0.11481883988E+03  0.17023436987E+03  0.95528241207E+02 0.  0.
          5    1    1    2  502    0 -0.13610073155E+02 -0.39968136531E+01  0.34457207672E+03  0.34488925334E+03  0.41800000000E+01 0. -1.
         -5    1    1    2    0  502  0.59782807829E+02  0.71367492712E+02  0.21596016554E+03  0.23520962699E+03  0.41800000000E+01 0. -1.
        -11    1    3    3    0    0 -0.21587998838E+02  0.52336249438E+01 -0.95189558546E+01  0.24166982527E+02  0.00000000000E+00 0. -1.
         11    1    3    3    0    0 -0.24584735835E+02 -0.72604304003E+02  0.12433779573E+03  0.14606738734E+03  0.00000000000E+00 0.  1.
</event>
<event>
 7    1  0.5831876E-006  0.7768557E+02  0.7561462E-02  0.1335751E+00
          2   -1    0    0  501    0  0.00000000000E+00  0.00000000000E+00  0.24963035149E+03  0.24963035149E+03  0.00000000000E+00 0. -1.
         -2   -1    0    0    0  501 -0.00000000000E+00 -0.00000000000E+00 -0.97181694743E+02  0.97181694743E+02  0.00000000000E+00 0.  1.
         23    2    1    2    0    0  0.34732437588E+02 -0.23422778773E+02 -0.44475663994E+02  0.10978547354E+03  0.91212919739E+02 0.  0.
          5    1    1    2  502    0 -0.47850539529E+02  0.31118337846E+02  0.20929645217E+03  0.21698041934E+03  0.41800000000E+01 0.  1.
         -5    1    1    2    0  502  0.13118101941E+02 -0.76955590732E+01 -0.12372131433E+02  0.20046153351E+02  0.41800000000E+01 0.  1.
        -11    1    3    3    0    0  0.24055269900E+02  0.23866930889E+02 -0.50622404345E+02  0.60917273591E+02  0.00000000000E+00 0. -1.
         11    1    3    3    0    0  0.10677167688E+02 -0.47289709662E+02  0.61467403513E+01  0.48868199953E+02  0.00000000000E+00 0.  1.
</event>
<event>
 7    1  0.5831876E-006  0.5991825E+02  0.7561462E-02  0.1398175E+00
         -1   -1    0    0    0  501 -0.00000000000E+00  0.00000000000E+00  0.18242562921E+03  0.18242562921E+03  0.00000000000E+00 0.  1.
          1   -1    0    0  501    0  0.00000000000E+00 -0.00000000000E+00 -0.68157231459E+02  0.68157231459E+02  0.00000000000E+00 0. -1.
         23    2    1    2    0    0 -0.12681621707E+02  0.20114593508E+02  0.57910318752E+02  0.11133687616E+03  0.92069943924E+02 0.  0.
          5    1    1    2  502    0  0.85977767005E+01 -0.96860693508E+01  0.96452245259E+02  0.97407647128E+02  0.41800000000E+01 0. -1.
         -5    1    1    2    0  502  0.40838450069E+01 -0.10428524157E+02 -0.40094166263E+02  0.41838337377E+02  0.41800000000E+01 0. -1.
        -11    1    3    3    0    0 -0.36636467692E+02  0.46130062252E+02  0.43122267946E+02  0.73005091611E+02  0.00000000000E+00 0.  1.
         11    1    3    3    0    0  0.23954845985E+02 -0.26015468744E+02  0.14788050806E+02  0.38331784550E+02  0.00000000000E+00 0. -1.
</event>
<event>
 7    1  0.5831876E-006  0.2642107E+03  0.7561462E-02  0.1104639E+00
         -3   -1    0    0    0  501 -0.00000000000E+00  0.00000000000E+00  0.62591976351E+03  0.62591976351E+03  0.00000000000E+00 0.  1.
          3   -1    0    0  501    0  0.00000000000E+00 -0.00000000000E+00 -0.12478679452E+03  0.12478679452E+03  0.00000000000E+00 0. -1.
         23    2    1    2    0    0  0.15948440410E+03 -0.19680070125E+03  0.30378973197E+03  0.40609405095E+03  0.91969482954E+02 0.  0.
          5    1    1    2  502    0 -0.78357272244E+02  0.20712220502E+02  0.96324107403E+02  0.12595500887E+03  0.41800000000E+01 0.  1.
         -5    1    1    2    0  502 -0.81127131858E+02  0.17608848075E+03  0.10101912962E+03  0.21865749822E+03  0.41800000000E+01 0.  1.
        -11    1    3    3    0    0  0.10762288264E+02 -0.14943923293E+02  0.78393066995E+02  0.80527142287E+02  0.00000000000E+00 0.  1.
         11    1    3    3    0    0  0.14872211584E+03 -0.18185677796E+03  0.22539666498E+03  0.32556690866E+03  0.00000000000E+00 0. -1.
</event>
<event>
 7    1  0.5831876E-006  0.1330698E+03  0.7561462E-02  0.1222970E+00
         -2   -1    0    0    0  501 -0.00000000000E+00  0.00000000000E+00  0.22771288219E+02  0.22771288219E+02  0.00000000000E+00 0.  1.
          2   -1    0    0  501    0  0.00000000000E+00 -0.00000000000E+00 -0.12291662022E+04  0.12291662022E+04  0.00000000000E+00 0. -1.
         23    2    1    2    0    0 -0.11001806328E+03  0.34480387349E+02 -0.37291575113E+03  0.40127385916E+03  0.93068153750E+02 0.  0.
          5    1    1    2  502    0  0.35992008694E+02  0.21007954296E+02 -0.56712051076E+03  0.56866501999E+03  0.41800000000E+01 0. -1.
         -5    1    1    2    0  502  0.74026054588E+02 -0.55488341645E+02 -0.26635865209E+03  0.28199861127E+03  0.41800000000E+01 0. -1.
        -11    1    3    3    0    0 -0.78620823282E+02  0.53353456258E+02 -0.33635683368E+03  0.34951930521E+03  0.00000000000E+00 0. -1.
         11    1    3    3    0    0 -0.31397239999E+02 -0.18873068909E+02 -0.36558917451E+02  0.51754553952E+02  0.00000000000E+00 0.  1.
</event>
<event>
 7    1  0.5831876E-006  0.2121437E+03  0.7561462E-02  0.1139880E+00
         -1   -1    0    0    0  501 -0.00000000000E+00  0.00000000000E+00  0.70594370470E+02  0.70594370470E+02  0.00000000000E+00 0.  1.
          1   -1    0    0  501    0  0.00000000000E+00 -0.00000000000E+00 -0.10096214352E+04  0.10096214352E+04  0.00000000000E+00 0. -1.
         23    2    1    2    0    0  0.80180397878E+01  0.20401086721E+03 -0.20635282274E+03  0.30463266599E+03  0.92384256414E+02 0.  0.
          5    1    1    2  502    0  0.22770785963E+02 -0.67755208770E+02 -0.49274093897E+03  0.49791603945E+03  0.41800000000E+01 0. -1.
         -5    1    1    2    0  502 -0.30788825751E+02 -0.13625565844E+03 -0.23993330301E+03  0.27766710022E+03  0.41800000000E+01 0.  1.
        -11    1    3    3    0    0  0.14762983211E+02  0.79722215854E+01 -0.53162746980E+02  0.55747463232E+02  0.00000000000E+00 0.  1.
         11    1    3    3    0    0 -0.67449434231E+01  0.19603864563E+03 -0.15319007576E+03  0.24888520276E+03  0.00000000000E+00 0. -1.
</event>
<event>
 7    1  0.5831876E-006  0.1170990E+03  0.7561462E-02  0.1247961E+00
         -1   -1    0    0    0  501 -0.00000000000E+00  0.00000000000E+00  0.27459197206E+03  0.27459197206E+03  0.00000000000E+00 0.  1.
          1   -1    0    0  501    0  0.00000000000E+00 -0.00000000000E+00 -0.79579137411E+02  0.79579137411E+02  0.00000000000E+00 0. -1.
         23    2    1    2    0    0  0.54743492595E+02 -0.18949312332E-01  0.18972924677E+03  0.21752593048E+03  0.91233179313E+02 0.  0.
          5    1    1    2  502    0 -0.63954489824E+02 -0.51854979226E+02  0.12215869889E+02  0.83341559358E+02  0.41800000000E+01 0.  1.
         -5    1    1    2    0  502  0.92109972285E+01  0.51873928538E+02 -0.69322820176E+01  0.53303619632E+02  0.41800000000E+01 0.  1.
        -11    1    3    3    0    0 -0.22046772036E+02 -0.15383017468E+01  0.15138879778E+02  0.26788284947E+02  0.00000000000E+00 0. -1.
         11    1    3    3    0    0  0.76790264632E+02  0.15193524345E+01  0.17459036700E+03  0.19073764553E+03  0.00000000000E+00 0.  1.
</event>
<event>
 7    1  0.5831876E-006  0.2615623E+03  0.7561462E-02  0.1106208E+00
         -2   -1    0    0    0  501 -0.00000000000E+00  0.00000000000E+00  0.89007439730E+03  0.89007439730E+03  0.00000000000E+00 0.  1.
          2   -1    0    0  501    0  0.00000000000E+00 -0.00000000000E+00 -0.91036684209E+02  0.91036684209E+02  0.00000000000E+00 0. -1.
         23    2    1    2    0    0  0.52431264082E+02 -0.24796472341E+03  0.51034905695E+03  0.57710074020E+03  0.91397827694E+02 0.  0.
          5    1    1    2  502    0 -0.62151595346E+01  0.30001411797E+02 -0.89489168063E+01  0.32191123463E+02  0.41800000000E+01 0. -1.
         -5    1    1    2    0  502 -0.46216104547E+02  0.21796331161E+03  0.29763757295E+03  0.37181921785E+03  0.41800000000E+01 0. -1.
        -11    1    3    3    0    0  0.78076846803E+02 -0.16547954088E+03  0.35276317857E+03  0.39739317132E+03  0.00000000000E+00 0.  1.
         11    1    3    3    0    0 -0.25645582722E+02 -0.82485182529E+02  0.15758587837E+03  0.17970756888E+03  0.00000000000E+00 0. -1.
</event>
<event>
 7    1  0.5831876E-006  0.1075536E+03  0.7561462E-02  0.1265168E+00
         -2   -1    0    0    0  501 -0.00000000000E+00  0.00000000000E+00  0.17601897242E+02  0.17601897242E+02  0.00000000000E+00 0.  1.
          2   -1    0    0  501    0  0.00000000000E+00 -0.00000000000E+00 -0.80255762573E+03  0.80255762573E+03  0.00000000000E+00 0. -1.
         23    2    1    2    0    0 -0.23403235104E+02 -0.20728113481E+02 -0.21298954600E+03  0.23384035420E+03  0.91320306849E+02 0.  0.
          5    1    1    2  502    0 -0.16504994370E+02  0.65466820232E+02 -0.26280806036E+03  0.27137403778E+03  0.41800000000E+01 0.  1.
         -5    1    1    2    0  502  0.39908229474E+02 -0.44738706751E+02 -0.30915812213E+03  0.31494513100E+03  0.41800000000E+01 0.  1.
        -11    1    3    3    0    0  0.27437187174E+02  0.84980139399E+01 -0.29355973000E+02  0.41070532401E+02  0.00000000000E+00 0.  1.
         11    1    3    3    0    0 -0.50840422278E+02 -0.29226127421E+02 -0.18363357300E+03  0.19276982180E+03  0.00000000000E+00 0. -1.
</event>
<event>
 7    1  0.5831876E-006  0.1049455E+03  0.7561462E-02  0.1270227E+00
         -1   -1    0    0    0  501 -0.00000000000E+00  0.00000000000E+00  0.12302982170E+02  0.12302982170E+02  0.00000000000E+00 0.  1.
          1   -1    0    0  501    0  0.00000000000E+00 -0.00000000000E+00 -0.13228697040E+04  0.13228697040E+04  0.00000000000E+00 0. -1.
         23    2    1    2    0    0  0.66432666133E+01  0.55143241680E+02 -0.37807264134E+03  0.39268908308E+03  0.90448237941E+02 0.  0.
          5    1    1    2  502    0 -0.24394736731E+02 -0.83407782098E+02 -0.83140942923E+03  0.83594920462E+03  0.41800000000E+01 0. -1.
         -5    1    1    2    0  502  0.17751470117E+02  0.28264540418E+02 -0.10108465124E+03  0.10653439845E+03  0.41800000000E+01 0. -1.
        -11    1    3    3    0    0  0.37068659675E+01  0.72022759944E+02 -0.36227801782E+03  0.36938649272E+03  0.00000000000E+00 0. -1.
         11    1    3    3    0    0  0.29364006458E+01 -0.16879518264E+02 -0.15794623519E+02  0.23302590364E+02  0.00000000000E+00 0.  1.
</event>
<event>
 7    1  0.5831876E-006  0.1610124E+03  0.7561462E-02  0.1187558E+00
         -2   -1    0    0    0  501 -0.00000000000E+00  0.00000000000E+00  0.19888684314E+02  0.19888684314E+02  0.00000000000E+00 0. -1.
          2   -1    0    0  501    0  0.00000000000E+00 -0.00000000000E+00 -0.14099216033E+04  0.14099216033E+04  0.00000000000E+00 0.  1.
         23    2    1    2    0    0  0.78602676046E+02  0.89601299569E+02 -0.45229389405E+03  0.47628886347E+03  0.89858451516E+02 0.  0.
          5    1    1    2  502    0  0.31961235198E+02 -0.40372166904E+02 -0.28390852583E+03  0.28857053879E+03  0.41800000000E+01 0. -1.
         -5    1    1    2    0  502 -0.11056391124E+03 -0.49229132665E+02 -0.65383049915E+03  0.66495088540E+03  0.41800000000E+01 0. -1.
        -11    1    3    3    0    0  0.24307432221E+02 -0.16978526507E+02 -0.91621747156E+02  0.96299876301E+02  0.00000000000E+00 0.  1.
         11    1    3    3    0    0  0.54295243824E+02  0.10657982608E+03 -0.36067214689E+03  0.37998898717E+03  0.00000000000E+00 0. -1.
</event>
<event>
 7    1  0.5831876E-006  0.1025495E+03  0.7561462E-02  0.1275024E+00
          1   -1    0    0  501    0  0.00000000000E+00  0.00000000000E+00  0.83756312019E+03  0.83756312019E+03  0.00000000000E+00 0. -1.
         -1   -1    0    0    0  501 -0.00000000000E+00 -0.00000000000E+00 -0.23266070587E+02  0.23266070587E+02  0.00000000000E+00 0.  1.
         23    2    1    2    0    0 -0.49306810004E+02 -0.35181550781E+02  0.17881985476E+03  0.21033171153E+03  0.92703750697E+02 0.  0.
          5    1    1    2  502    0 -0.18736450769E+02  0.14272390692E+02  0.20804451156E+02  0.31702575785E+02  0.41800000000E+01 0.  1.
         -5    1    1    2    0  502  0.68043260773E+02  0.20909160089E+02  0.61467274368E+03  0.61879490345E+03  0.41800000000E+01 0.  1.
        -11    1    3    3    0    0  0.26123539923E+02  0.11474943779E+01  0.54502356384E+02  0.60450499856E+02  0.00000000000E+00 0.  1.
         11    1    3    3    0    0 -0.75430349927E+02 -0.36329045158E+02  0.12431749837E+03  0.14988121168E+03  0.00000000000E+00 0. -1.
</event>
<event>
 7    1  0.5831876E-006  0.1115908E+03  0.7561462E-02  0.1257652E+00
          2   -1    0    0  501    0  0.00000000000E+00  0.00000000000E+00  0.41374783282E+02  0.41374783282E+02  0.00000000000E+00 0.  1.
         -2   -1    0    0    0  501 -0.00000000000E+00 -0.00000000000E+00 -0.40605246860E+03  0.40605246860E+03  0.00000000000E+00 0. -1.
         23    2    1    2    0    0 -0.28727287534E+02 -0.46280808687E+02 -0.23533438510E+03  0.25942399820E+03  0.94611668045E+02 0.  0.
          5    1    1    2  502    0 -0.48581184780E+01 -0.31014941203E+02 -0.89014416563E+02  0.94480509360E+02  0.41800000000E+01 0. -1.
         -5    1    1    2    0  502  0.33585406012E+02  0.77295749890E+02 -0.40328883653E+02  0.93522744318E+02  0.41800000000E+01 0. -1.
        -11    1    3    3    0    0  0.30676777399E+02 -0.35218495189E+02 -0.78388518154E+02  0.91247832048E+02  0.00000000000E+00 0.  1.
         11    1    3    3    0    0 -0.59404064934E+02 -0.11062313498E+02 -0.15694586695E+03  0.16817616616E+03  0.00000000000E+00 0. -1.
</event>
<event>
 7    1  0.5831876E-006  0.4273172E+03  0.7561462E-02  0.1034711E+00
          1   -1    0    0  501    0  0.00000000000E+00  0.00000000000E+00  0.27870229743E+04  0.27870229743E+04  0.00000000000E+00 0.  1.
         -1   -1    0    0    0  501 -0.00000000000E+00 -0.00000000000E+00 -0.73624252712E+02  0.73624252712E+02  0.00000000000E+00 0. -1.
         23    2    1    2    0    0  0.28704403260E+03 -0.30721797986E+03  0.94436866556E+03  0.10380414203E+04  0.94449192602E+02 0.  0.
          5    1    1    2  502    0 -0.41724772477E+02  0.11329251851E+03  0.37719796903E+03  0.39607061445E+03  0.41800000000E+01 0.  1.
         -5    1    1    2    0  502 -0.24531926012E+03  0.19392546136E+03  0.13918320870E+04  0.14265351922E+04  0.41800000000E+01 0.  1.
        -11    1    3    3    0    0  0.26285162879E+03 -0.27098327421E+03  0.89944277725E+03  0.97545898079E+03  0.00000000000E+00 0.  1.
         11    1    3    3    0    0  0.24192403809E+02 -0.36234705648E+02  0.44925888314E+02  0.62582439520E+02  0.00000000000E+00 0. -1.
</event>
<event>
 7    1  0.5831876E-006  0.9860811E+02  0.7561462E-02  0.1283250E+00
         -1   -1    0    0    0  501 -0.00000000000E+00  0.00000000000E+00  0.42935441704E+02  0.42935441704E+02  0.00000000000E+00 0.  1.
          1   -1    0    0  501    0  0.00000000000E+00 -0.00000000000E+00 -0.32917687949E+03  0.32917687949E+03  0.00000000000E+00 0. -1.
         23    2    1    2    0    0 -0.50209056593E+02  0.27493636163E+02 -0.98477759589E+02  0.14625338442E+03  0.91735129196E+02 0.  0.
          5    1    1    2  502    0  0.78454334052E+02 -0.10441357504E+02 -0.78129523534E+02  0.11129150608E+03  0.41800000000E+01 0. -1.
         -5    1    1    2    0  502 -0.28245277458E+02 -0.17052278659E+02 -0.10963415466E+03  0.11456743069E+03  0.41800000000E+01 0.  1.
        -11    1    3    3    0    0 -0.77737018921E+01 -0.19734468073E+02  0.76794339257E+01  0.22557778629E+02  0.00000000000E+00 0.  1.
         11    1    3    3    0    0 -0.42435354701E+02  0.47228104236E+02 -0.10615719351E+03  0.12369560580E+03  0.00000000000E+00 0. -1.
</event>
<event>
 7    1  0.5831876E-006  0.9813442E+02  0.7561462E-02  0.1284269E+00
          1   -1    0    0  501    0  0.00000000000E+00  0.00000000000E+00  0.20147413321E+03  0.20147413321E+03  0.00000000000E+00 0. -1.
         -1   -1    0    0    0  501 -0.00000000000E+00 -0.00000000000E+00 -0.73485708241E+02  0.73485708241E+02  0.00000000000E+00 0.  1.
         23    2    1    2    0    0 -0.21223045749E+02 -0.82660163870E+01 -0.42282752306E+01  0.96982585835E+02  0.94175362733E+02 0.  0.
          5    1    1    2  502    0  0.11025684918E+02 -0.49430389369E+02  0.96958013510E+02  0.10946806797E+03  0.41800000000E+01 0. -1.
         -5    1    1    2    0  502  0.10197360831E+02  0.57696405756E+02  0.35258686692E+02  0.68509187649E+02  0.41800000000E+01 0.  1.
        -11    1    3    3    0    0  0.23524682771E+02 -0.29043612056E+02  0.19589211098E+02  0.42198095836E+02  0.00000000000E+00 0.  1.
         11    1    3    3    0    0 -0.44747728520E+02  0.20777595669E+02 -0.23817486329E+02  0.54784489999E+02  0.00000000000E+00 0. -1.
</event>
<event>
 7    1  0.5831876E-006  0.1328809E+03  0.7561462E-02  0.1223243E+00
          2   -1    0    0  501    0  0.00000000000E+00  0.00000000000E+00  0.11078423834E+04  0.11078423834E+04  0.00000000000E+00 0. -1.
         -2   -1    0    0    0  501 -0.00000000000E+00 -0.00000000000E+00 -0.19329602684E+02  0.19329602684E+02  0.00000000000E+00 0.  1.
         23    2    1    2    0    0  0.25017605466E+02  0.81020366150E+02  0.29938914959E+03  0.32370852057E+03  0.89236556859E+02 0.  0.
          5    1    1    2  502    0 -0.84761030517E+01 -0.11256986994E+03  0.65270045565E+03  0.66240408902E+03  0.41800000000E+01 0.  1.
         -5    1    1    2    0  502 -0.16541502414E+02  0.31549503791E+02  0.13642317546E+03  0.14105937648E+03  0.41800000000E+01 0.  1.
        -11    1    3    3    0    0  0.44812325963E+02  0.13852366609E+02  0.73289183310E+02  0.87013430051E+02  0.00000000000E+00 0.  1.
         11    1    3    3    0    0 -0.19794720497E+02  0.67167999542E+02  0.22609996628E+03  0.23669509052E+03  0.00000000000E+00 0. -1.
</event>
<event>
 7    1  0.5831876E-006  0.1474076E+03  0.7561462E-02  0.1203695E+00
         -2   -1    0    0    0  501 -0.00000000000E+00  0.00000000000E+00  0.52969027230E+02  0.52969027230E+02  0.00000000000E+00 0.  1.
          2   -1    0    0  501    0  0.00000000000E+00 -0.00000000000E+00 -0.86503708800E+03  0.86503708800E+03  0.00000000000E+00 0. -1.
         23    2    1    2    0    0  0.22311708699E+02 -0.13210945080E+03 -0.12079316308E+03  0.20284300442E+03  0.92755468086E+02 0.  0.
          5    1    1    2  502    0 -0.27740400388E+02  0.11582475248E+03 -0.68663005335E+03  0.69689540511E+03  0.41800000000E+01 0. -1.
         -5    1    1    2    0  502  0.54286916894E+01  0.16284698318E+02 -0.46448443475E+01  0.18267705707E+02  0.41800000000E+01 0. -1.
        -11    1    3    3    0    0  0.49638375203E+02 -0.46156836462E+02 -0.27697439816E+02  0.73222742487E+02  0.00000000000E+00 0. -1.
         11    1    3    3    0    0 -0.27326666504E+02 -0.85952614335E+02 -0.93095723263E+02  0.12962026193E+03  0.00000000000E+00 0.  1.
</event>
<event>
 7    1  0.5831876E-006  0.1058952E+03  0.7561462E-02  0.1268366E+00
         -1   -1    0    0    0  501 -0.00000000000E+00  0.00000000000E+00  0.37501866659E+03  0.37501866659E+03  0.00000000000E+00 0.  1.
          1   -1    0    0  501    0  0.00000000000E+00 -0.00000000000E+00 -0.58300472197E+02  0.58300472197E+02  0.00000000000E+00 0. -1.
         23    2    1    2    0    0  0.93712026457E+02 -0.22933554849E+02  0.18515884596E+03  0.22773794589E+03  0.90955384237E+02 0.  0.
          5    1    1    2  502    0 -0.70554097631E+01  0.34963771567E+01 -0.24445407654E+02  0.26020257791E+02  0.41800000000E+01 0. -1.
         -5    1    1    2    0  502 -0.86656616694E+02  0.19437177692E+02  0.15600475609E+03  0.17956093510E+03  0.41800000000E+01 0. -1.
        -11    1    3    3    0    0  0.30188667234E+02 -0.38147463895E+02  0.24838969917E+02  0.54621964973E+02  0.00000000000E+00 0. -1.
         11    1    3    3    0    0  0.63523359224E+02  0.15213909046E+02  0.16031987604E+03  0.17311598092E+03  0.00000000000E+00 0.  1.
</event>
<event>
 7    1  0.5831876E-006  0.1017189E+03  0.7561462E-02  0.1276722E+00
         -2   -1    0    0    0  501 -0.00000000000E+00  0.00000000000E+00  0.10514818069E+03  0.10514818069E+03  0.00000000000E+00 0.  1.
          2   -1    0    0  501    0  0.00000000000E+00 -0.00000000000E+00 -0.14288327317E+03  0.14288327317E+03  0.00000000000E+00 0. -1.
         23    2    1    2    0    0  0.16431387857E+02  0.52885266223E+02  0.37155975394E+02  0.92072646400E+02  0.63481996009E+02 0.  0.
          5    1    1    2  502    0 -0.43674937328E+01  0.34515831235E+02 -0.55325712047E+02  0.65489116812E+02  0.41800000000E+01 0.  1.
         -5    1    1    2    0  502 -0.12063894124E+02 -0.87401097458E+02 -0.19565355823E+02  0.90469690652E+02  0.41800000000E+01 0.  1.
        -11    1    3    3    0    0 -0.18388209798E+02  0.21216221733E+01 -0.27474873484E+01  0.18712996204E+02  0.00000000000E+00 0. -1.
         11    1    3    3    0    0  0.34819597654E+02  0.50763644050E+02  0.39903462743E+02  0.73359650196E+02  0.00000000000E+00 0.  1.
</event>
<event>
 7    1  0.5831876E-006  0.1762657E+03  0.7561462E-02  0.1171467E+00
          2   -1    0    0  501    0  0.00000000000E+00  0.00000000000E+00  0.15387202464E+04  0.15387202464E+04  0.00000000000E+00 0. -1.
         -2   -1    0    0    0  501 -0.00000000000E+00 -0.00000000000E+00 -0.21987800212E+02  0.21987800212E+02  0.00000000000E+00 0.  1.
         23    2    1    2    0    0 -0.62448607478E+02  0.93522131169E+02  0.50648345458E+03  0.52739198303E+03  0.94713232508E+02 0.  0.
          5    1    1    2  502    0  0.11293603413E+03 -0.10679210167E+03  0.86615558577E+03  0.88000117724E+03  0.41800000000E+01 0. -1.
         -5    1    1    2    0  502 -0.50487426652E+02  0.13269970506E+02  0.14409340588E+03  0.15331488638E+03  0.41800000000E+01 0.  1.
        -11    1    3    3    0    0 -0.86015589764E+02  0.65859228484E+02  0.33429331398E+03  0.35140879248E+03  0.00000000000E+00 0.  1.
         11    1    3    3    0    0  0.23566982285E+02  0.27662902685E+02  0.17219014060E+03  0.17598319056E+03  0.00000000000E+00 0. -1.
</event>
<event>
 7    1  0.5831876E-006  0.7849665E+02  0.7561462E-02  0.1333373E+00
         -2   -1    0    0    0  501 -0.00000000000E+00  0.00000000000E+00  0.35051969537E+03  0.35051969537E+03  0.00000000000E+00 0. -1.
          2   -1    0    0  501    0  0.00000000000E+00 -0.00000000000E+00 -0.84553139711E+02  0.84553139711E+02  0.00000000000E+00 0.  1.
         23    2    1    2    0    0  0.19609319943E+02 -0.61652980615E+02  0.27236751956E+03  0.29409461148E+03  0.90121913765E+02 0.  0.
          5    1    1    2  502    0  0.16276769187E+01  0.40975815830E+01 -0.59454303141E+02  0.59763919458E+02  0.41800000000E+01 0.  1.
         -5    1    1    2    0  502 -0.21236996861E+02  0.57555399032E+02  0.53053339238E+02  0.81214304145E+02  0.41800000000E+01 0.  1.
        -11    1    3    3    0    0  0.26372783605E+02  0.10177830144E+01  0.17787635263E+02  0.31827025711E+02  0.00000000000E+00 0.  1.
         11    1    3    3    0    0 -0.67634636622E+01 -0.62670763629E+02  0.25457988430E+03  0.26226758577E+03  0.00000000000E+00 0. -1.
</event>
<event>
 7    1  0.5831876E-006  0.8110173E+02  0.7561462E-02  0.1325954E+00
         -2   -1    0    0    0  501 -0.00000000000E+00  0.00000000000E+00  0.14613127589E+02  0.14613127589E+02  0.00000000000E+00 0.  1.
          2   -1    0    0  501    0  0.00000000000E+00 -0.00000000000E+00 -0.81180318942E+03  0.81180318942E+03  0.00000000000E+00 0. -1.
         23    2    1    2    0    0 -0.72262789714E+01  0.11291439324E+01 -0.31953744303E+03  0.33260107918E+03  0.92009816318E+02 0.  0.
          5    1    1    2  502    0 -0.27232428301E+02  0.15651502467E+02 -0.43564855759E+03  0.43679939653E+03  0.41800000000E+01 0. -1.
         -5    1    1    2    0  502  0.34458707273E+02 -0.16780646399E+02 -0.42004061202E+02  0.57015841289E+02  0.41800000000E+01 0. -1.
        -11    1    3    3    0    0 -0.29838929854E+02  0.38240252903E+02 -0.18267021667E+03  0.18900022946E+03  0.00000000000E+00 0.  1.
         11    1    3    3    0    0  0.22612650883E+02 -0.37111108971E+02 -0.13686722636E+03  0.14360084972E+03  0.00000000000E+00 0. -1.
</event>
<event>
 7    1  0.5831876E-006  0.1153642E+03  0.7561462E-02  0.1250947E+00
         -1   -1    0    0    0  501 -0.00000000000E+00  0.00000000000E+00  0.18587282580E+03  0.18587282580E+03  0.00000000000E+00 0.  1.
          1   -1    0    0  501    0  0.00000000000E+00 -0.00000000000E+00 -0.13445032687E+03  0.13445032687E+03  0.00000000000E+00 0. -1.
         23    2    1    2    0    0  0.94284309214E+02 -0.60620495078E+02  0.52075239580E+02  0.15236180629E+03  0.89094972092E+02 0.  0.
          5    1    1    2  502    0 -0.31567924817E+02  0.35312995722E+02 -0.60918499243E+02  0.77279217737E+02  0.41800000000E+01 0. -1.
         -5    1    1    2    0  502 -0.62716384397E+02  0.25307499356E+02  0.60265758595E+02  0.90682128639E+02  0.41800000000E+01 0. -1.
        -11    1    3    3    0    0  0.14257041835E+02 -0.22834568575E+02  0.57713470187E+02  0.63683007191E+02  0.00000000000E+00 0.  1.
         11    1    3    3    0    0  0.80027267379E+02 -0.37785926503E+02 -0.56382306064E+01  0.88678799102E+02  0.00000000000E+00 0. -1.
</event>
<event>
 7    1  0.5831876E-006  0.1183685E+03  0.7561462E-02  0.1245813E+00
          2   -1    0    0  501    0  0.00000000000E+00  0.00000000000E+00  0.48834633321E+03  0.48834633321E+03  0.00000000000E+00 0.  1.
         -2   -1    0    0    0  501 -0.00000000000E+00 -0.00000000000E+00 -0.40388020109E+02  0.40388020109E+02  0.00000000000E+00 0. -1.
         23    2    1    2    0    0  0.23136165144E+01 -0.69820857705E+02  0.97401590329E+02  0.15002913846E+03  0.90229527291E+02 0.  0.
          5    1    1    2  502    0 -0.27340701697E+02  0.92373820078E+02  0.31549560443E+03  0.32990208460E+03  0.41800000000E+01 0. -1.
         -5    1    1    2    0  502  0.25027085182E+02 -0.22552962373E+02  0.35061118340E+02  0.48803130266E+02  0.41800000000E+01 0. -1.
        -11    1    3    3    0    0  0.12762300707E+02  0.15685209231E+02  0.44657020201E+02  0.49021949789E+02  0.00000000000E+00 0.  1.
         11    1    3    3    0    0 -0.10448684193E+02 -0.85506066937E+02  0.52744570129E+02  0.10100718867E+03  0.00000000000E+00 0. -1.
</event>
<event>
 7    1  0.5831876E-006  0.1533212E+03  0.7561462E-02  0.1196450E+00
          3   -1    0    0  501    0  0.00000000000E+00  0.00000000000E+00  0.79513869736E+03  0.79513869736E+03  0.00000000000E+00 0. -1.
         -3   -1    0    0    0  501 -0.00000000000E+00 -0.00000000000E+00 -0.68872996848E+02  0.68872996848E+02  0.00000000000E+00 0.  1.
         23    2    1    2    0    0  0.80760462454E+02  0.99516700202E+02  0.52207056097E+02  0.16528305318E+03  0.90371926212E+02 0.  0.
          5    1    1    2  502    0 -0.50519325188E+02 -0.51882242935E+01  0.46011897400E+03  0.46293202798E+03  0.41800000000E+01 0. -1.
         -5    1    1    2    0  502 -0.30241137266E+02 -0.94328475909E+02  0.21393967041E+03  0.23579661305E+03  0.41800000000E+01 0.  1.
        -11    1    3    3    0    0  0.71689502959E+02  0.17198680093E+02  0.19653336459E+02  0.76298316269E+02  0.00000000000E+00 0. -1.
         11    1    3    3    0    0  0.90709594945E+01  0.82318020109E+02  0.32553719638E+02  0.88984736911E+02  0.00000000000E+00 0.  1.
</event>
<event>
 7    1  0.5831876E-006  0.1278885E+03  0.7561462E-02  0.1230623E+00
          1   -1    0    0  501    0  0.00000000000E+00  0.00000000000E+00  0.12361101121E+03  0.12361101121E+03  0.00000000000E+00 0. -1.
         -1   -1    0    0    0  501 -0.00000000000E+00 -0.00000000000E+00 -0.24873836208E+03  0.24873836208E+03  0.00000000000E+00 0.  1.
         23    2    1    2    0    0  0.13984313940E+02  0.78910204715E+02 -0.17394340233E+03  0.21234406665E+03  0.91713215960E+02 0.  0.
          5    1    1    2  502    0  0.23702077340E+02  0.22388416402E+02  0.39579014125E+02  0.51449007943E+02  0.41800000000E+01 0. -1.
         -5    1    1    2    0  502 -0.37686391280E+02 -0.10129862112E+03  0.92370373417E+01  0.10855629870E+03  0.41800000000E+01 0.  1.
        -11    1    3    3    0    0 -0.11283829995E+02  0.87370792902E+02 -0.97576250225E+02  0.13146141974E+03  0.00000000000E+00 0.  1.
         11    1    3    3    0    0  0.25268143935E+02 -0.84605881869E+01 -0.76367152105E+02  0.80882646909E+02  0.00000000000E+00 0. -1.
</event>
<event>
 7    1  0.5831876E-006  0.6930934E+02  0.7561462E-02  0.1362458E+00
         -1   -1    0    0    0  501 -0.00000000000E+00  0.00000000000E+00  0.12221343789E+02  0.12221343789E+02  0.00000000000E+00 0.  1.
          1   -1    0    0  501    0  0.00000000000E+00 -0.00000000000E+00 -0.14557133697E+04  0.14557133697E+04  0.00000000000E+00 0. -1.
         23    2    1    2    0    0 -0.42156532758E+02 -0.98352096660E+01 -0.26554564645E+03  0.28399582782E+03  0.90913339336E+02 0.  0.
          5    1    1    2  502    0 -0.83469317839E+01  0.10541971932E+02 -0.96282919505E+03  0.96293215528E+03  0.41800000000E+01 0. -1.
         -5    1    1    2    0  502  0.50503464542E+02 -0.70676226568E+00 -0.21511718440E+03  0.22100673037E+03  0.41800000000E+01 0.  1.
        -11    1    3    3    0    0 -0.31812337583E+02  0.23113298445E+02 -0.23381217234E+03  0.23709572186E+03  0.00000000000E+00 0.  1.
         11    1    3    3    0    0 -0.10344195176E+02 -0.32948508111E+02 -0.31733474102E+02  0.46900105961E+02  0.00000000000E+00 0. -1.
</event>
<event>
 7    1  0.5831876E-006  0.1477433E+03  0.7561462E-02  0.1203274E+00
         -1   -1    0    0    0  501 -0.00000000000E+00  0.00000000000E+00  0.34769002229E+02  0.34769002229E+02  0.00000000000E+00 0.  1.
          1   -1    0    0  501    0  0.00000000000E+00 -0.00000000000E+00 -0.66171573896E+03  0.66171573896E+03  0.00000000000E+00 0. -1.
         23    2    1    2    0    0  0.83409483773E+02 -0.55778720721E+02 -0.23917142442E+03  0.27686042737E+03  0.96852043418E+02 0.  0.
          5    1    1    2  502    0 -0.33925242603E+02  0.90812792103E+02 -0.27334112073E+03  0.29005297098E+03  0.41800000000E+01 0. -1.
         -5    1    1    2    0  502 -0.49484241171E+02 -0.35034071382E+02 -0.11443419159E+03  0.12957134284E+03  0.41800000000E+01 0. -1.
        -11    1    3    3    0    0  0.90429788962E+02 -0.95637476007E+01 -0.13608686247E+03  0.16367237438E+03  0.00000000000E+00 0.  1.
         11    1    3    3    0    0 -0.70203051885E+01 -0.46214973120E+02 -0.10308456195E+03  0.11318805298E+03  0.00000000000E+00 0. -1.
</event>
<event>
 7    1  0.5831876E-006  0.2096647E+03  0.7561462E-02  0.1141832E+00
         -2   -1    0    0    0  501 -0.00000000000E+00  0.00000000000E+00  0.45279183832E+02  0.45279183832E+02  0.00000000000E+00 0.  1.
          2   -1    0    0  501    0  0.00000000000E+00 -0.00000000000E+00 -0.14268042635E+04  0.14268042635E+04  0.00000000000E+00 0. -1.
         23    2    1    2    0    0 -0.13597313554E+03 -0.15054842678E+03 -0.35809540507E+03  0.42126986694E+03  0.89902498645E+02 0.  0.
          5    1    1    2  502    0  0.18250723778E+02  0.51030225346E+02 -0.55496942101E+03  0.55762505635E+03  0.41800000000E+01 0. -1.
         -5    1    1    2    0  502  0.11772241177E+03  0.99518201438E+02 -0.46846025356E+03  0.49318852401E+03  0.41800000000E+01 0. -1.
        -11    1    3    3    0    0 -0.63080354052E+02 -0.29903316521E+02 -0.18690250706E+03  0.19951412620E+03  0.00000000000E+00 0.  1.
         11    1    3    3    0    0 -0.72892781493E+02 -0.12064511026E+03 -0.17119289801E+03  0.22175574075E+03  0.00000000000E+00 0. -1.
</event>
<event>
 7    1  0.5831876E-006  0.8577642E+02  0.7561462E-02  0.1313415E+00
          1   -1    0    0  501    0  0.00000000000E+00  0.00000000000E+00  0.79314521039E+03  0.79314521039E+03  0.00000000000E+00 0. -1.
         -1   -1    0    0    0  501 -0.00000000000E+00 -0.00000000000E+00 -0.80758135780E+02  0.80758135780E+02  0.00000000000E+00 0.  1.
         23    2    1    2    0    0  0.35881244187E+01 -0.39868469731E+02 -0.42459938759E+02  0.10771015072E+03  0.90533201937E+02 0.  0.
          5    1    1    2  502    0 -0.57329161014E+02  0.49104932437E+02  0.48541495622E+03  0.49126681061E+03  0.41800000000E+01 0.  1.
         -5    1    1    2    0  502  0.53741036595E+02 -0.92364627057E+01  0.26943205715E+03  0.27492638484E+03  0.41800000000E+01 0.  1.
        -11    1    3    3    0    0 -0.35051555763E+01 -0.14933853603E+02 -0.68955890610E+02  0.70641495942E+02  0.00000000000E+00 0.  1.
         11    1    3    3    0    0  0.70932799950E+01 -0.24934616128E+02  0.26495951851E+02  0.37068654778E+02  0.00000000000E+00 0. -1.
</event>
<event>
 7    1  0.5831876E-006  0.8466114E+02  0.7561462E-02  0.1316321E+00
         -2   -1    0    0    0  501 -0.00000000000E+00  0.00000000000E+00  0.57100889899E+02  0.57100889899E+02  0.00000000000E+00 0.  1.
          2   -1    0    0  501    0  0.00000000000E+00 -0.00000000000E+00 -0.23933707530E+03  0.23933707530E+03  0.00000000000E+00 0. -1.
         23    2    1    2    0    0 -0.41571793291E+02  0.50236817736E+01 -0.34493800577E+02  0.86895756623E+02  0.67879296291E+02 0.  0.
          5    1    1    2  502    0 -0.81628159621E+01  0.34851088595E+02 -0.14073566621E+03  0.14527639204E+03  0.41800000000E+01 0. -1.
         -5    1    1    2    0  502  0.49734609253E+02 -0.39874770368E+02 -0.70067186156E+01  0.64265816537E+02  0.41800000000E+01 0.  1.
        -11    1    3    3    0    0 -0.13249174492E+02  0.29263343701E+02 -0.37640295121E+02  0.49484095688E+02  0.00000000000E+00 0. -1.
         11    1    3    3    0    0 -0.28322618799E+02 -0.24239661928E+02  0.31464945442E+01  0.37411660935E+02  0.00000000000E+00 0.  1.
</event>
<event>
 7    1  0.5831876E-006  0.1340477E+03  0.7561462E-02  0.1221570E+00
          4   -1    0    0  501    0  0.00000000000E+00  0.00000000000E+00  0.18122922851E+03  0.18122922851E+03  0.00000000000E+00 0. -1.
         -4   -1    0    0    0  501 -0.00000000000E+00 -0.00000000000E+00 -0.20722998701E+03  0.20722998701E+03  0.00000000000E+00 0.  1.
         23    2    1    2    0    0  0.11749320033E+03 -0.47214075320E+02 -0.11051700262E+03  0.19142031182E+03  0.91618267166E+02 0.  0.
          5    1    1    2  502    0 -0.82877742366E+02  0.61746235665E+02 -0.11206435608E+01  0.10344102687E+03  0.41800000000E+01 0. -1.
         -5    1    1    2    0  502 -0.34615457966E+02 -0.14532160345E+02  0.85636887684E+02  0.93597876828E+02  0.41800000000E+01 0. -1.
        -11    1    3    3    0    0  0.91364027774E+02 -0.40304128183E+02 -0.12560775707E+03  0.16046531388E+03  0.00000000000E+00 0.  1.
         11    1    3    3    0    0  0.26129172558E+02 -0.69099471366E+01  0.15090754456E+02  0.30954997949E+02  0.00000000000E+00 0. -1.
</event>
<event>
 7    1  0.5831876E-006  0.1658456E+03  0.7561462E-02  0.1182251E+00
         -2   -1    0    0    0  501 -0.00000000000E+00  0.00000000000E+00  0.45449632465E+02  0.45449632465E+02  0.00000000000E+00 0.  1.
          2   -1    0    0  501    0  0.00000000000E+00 -0.00000000000E+00 -0.18920317986E+04  0.18920317986E+04  0.00000000000E+00 0. -1.
         23    2    1    2    0    0  0.13447546776E+03  0.68396013047E+02 -0.15463340113E+03  0.23421990195E+03  0.90475453542E+02 0.  0.
          5    1    1    2  502    0 -0.14653711432E+03 -0.65073617948E+02 -0.16697783185E+04  0.16774638020E+04  0.41800000000E+01 0. -1.
         -5    1    1    2    0  502  0.12061646561E+02 -0.33223950990E+01 -0.22170446501E+02  0.25797727129E+02  0.41800000000E+01 0. -1.
        -11    1    3    3    0    0  0.92952234012E+02  0.21373588070E+02 -0.39759435536E+02  0.10333325113E+03  0.00000000000E+00 0.  1.
         11    1    3    3    0    0  0.41523233752E+02  0.47022424977E+02 -0.11487396559E+03  0.13088665082E+03  0.00000000000E+00 0. -1.
</event>
<event>
 6    1  0.5831876E-006  0.2769203E+02  0.7561462E-02  0.1625097E+00
          1   -1    0    0  501    0  0.00000000000E+00  0.00000000000E+00  0.13587457790E+04  0.13587457790E+04  0.00000000000E+00 0. -1.
         -1   -1    0    0    0  501 -0.00000000000E+00 -0.00000000000E+00 -0.55455022339E+01  0.55455022339E+01  0.00000000000E+00 0.  1.
          5    1    1    2  502    0  0.49522685865E+00 -0.96356651259E+01  0.12550725360E+04  0.12551165820E+04  0.41800000000E+01 0. -1.
         -5    1    1    2    0  502  0.78820381661E+01 -0.97282869055E+01  0.13808392156E+02  0.19102622482E+02  0.41800000000E+01 0.  1.
        -11    1    1    2    0    0 -0.15406652348E+02  0.59322735287E+01  0.43191603780E+02  0.46239284628E+02  0.00000000000E+00 0.  1.
         11    1    1    2    0    0  0.70293873237E+01  0.13431678503E+02  0.41127744752E+02  0.43832792085E+02  0.00000000000E+00 0. -1.
</event>
<event>
 7    1  0.5831876E-006  0.1814565E+03  0.7561462E-02  0.1166401E+00
         -1   -1    0    0    0  501 -0.00000000000E+00  0.00000000000E+00  0.53649172806E+02  0.53649172806E+02  0.00000000000E+00 0.  1.
          1   -1    0    0  501    0  0.00000000000E+00 -0.00000000000E+00 -0.69403826041E+03  0.69403826041E+03  0.00000000000E+00 0. -1.
         23    2    1    2    0    0  0.15037667849E+03  0.44486245555E+02 -0.25423426318E+03  0.31254700530E+03  0.91969551899E+02 0.  0.
          5    1    1    2  502    0 -0.16076549299E+03 -0.55802166824E+02 -0.27915250566E+03  0.32696027186E+03  0.41800000000E+01 0. -1.
         -5    1    1    2    0  502  0.10388814508E+02  0.11315921269E+02 -0.10700231877E+03  0.10818015605E+03  0.41800000000E+01 0. -1.
        -11    1    3    3    0    0  0.93970727389E+02 -0.14578782646E+02 -0.99831935043E+02  0.13787477566E+03  0.00000000000E+00 0.  1.
         11    1    3    3    0    0  0.56405951096E+02  0.59065028201E+02 -0.15440232813E+03  0.17467222964E+03  0.00000000000E+00 0. -1.
</event>
<event>
 7    1  0.5831876E-006  0.8374378E+02  0.7561462E-02  0.1318751E+00
          2   -1    0    0  501    0  0.00000000000E+00  0.00000000000E+00  0.17025050226E+04  0.17025050226E+04  0.00000000000E+00 0. -1.
         -2   -1    0    0    0  501 -0.00000000000E+00 -0.00000000000E+00 -0.12327836421E+02  0.12327836421E+02  0.00000000000E+00 0.  1.
         23    2    1    2    0    0  0.65753487837E+02 -0.20121740946E+02  0.38005925533E+03  0.39696144466E+03  0.91678489109E+02 0.  0.
          5    1    1    2  502    0 -0.44933499467E+02  0.53789213416E+01  0.12654223561E+04  0.12662381940E+04  0.41800000000E+01 0. -1.
         -5    1    1    2    0  502 -0.20819988370E+02  0.14742819604E+02  0.44695574816E+02  0.51633220447E+02  0.41800000000E+01 0. -1.
        -11    1    3    3    0    0 -0.35920986992E+01  0.17108492183E+02  0.13609804998E+02  0.22154694083E+02  0.00000000000E+00 0.  1.
         11    1    3    3    0    0  0.69345586536E+02 -0.37230233130E+02  0.36644945033E+03  0.37480675058E+03  0.00000000000E+00 0. -1.
</event>
<event>
 7    1  0.5831876E-006  0.7746627E+02  0.7561462E-02  0.1336400E+00
         -2   -1    0    0    0  501 -0.00000000000E+00  0.00000000000E+00  0.52508603345E+02  0.52508603345E+02  0.00000000000E+00 0.  1.
          2   -1    0    0  501    0  0.00000000000E+00 -0.00000000000E+00 -0.23087629772E+03  0.23087629772E+03  0.00000000000E+00 0. -1.
         23    2    1    2    0    0 -0.16102957268E+02 -0.79199972561E+01 -0.87165283557E+02  0.12753926415E+03  0.91358883820E+02 0.  0.
          5    1    1    2  502    0 -0.32482217616E+02 -0.30253223385E+01  0.16732656731E+02  0.36901236264E+02  0.41800000000E+01 0.  1.
         -5    1    1    2    0  502  0.48585174884E+02  0.10945319595E+02 -0.10793506755E+03  0.11894440066E+03  0.41800000000E+01 0.  1.
        -11    1    3    3    0    0 -0.15630244348E+02  0.30166697209E+02 -0.17551946363E+01  0.34020800506E+02  0.00000000000E+00 0.  1.
         11    1    3    3    0    0 -0.47271291998E+00 -0.38086694465E+02 -0.85410088921E+02  0.93518463644E+02  0.00000000000E+00 0. -1.
</event>
<event>
 7    1  0.5831876E-006  0.9280682E+02  0.7561462E-02  0.1296193E+00
          2   -1    0    0  501    0  0.00000000000E+00  0.00000000000E+00  0.40499263117E+04  0.40499263117E+04  0.00000000000E+00 0.  1.
         -2   -1    0    0    0  501 -0.00000000000E+00 -0.00000000000E+00 -0.96158495783E+01  0.96158495783E+01  0.00000000000E+00 0. -1.
         23    2    1    2    0    0  0.45756003077E+02  0.46961223149E+02  0.36781061787E+03  0.38432766277E+03  0.90133975023E+02 0.  0.
          5    1    1    2  502    0 -0.45517130081E+02 -0.55577197767E+02  0.36506245663E+04  0.36513337058E+04  0.41800000000E+01 0.  1.
         -5    1    1    2    0  502 -0.23887299608E+00  0.86159746177E+01  0.21875277956E+02  0.23880792796E+02  0.41800000000E+01 0.  1.
        -11    1    3    3    0    0 -0.82543851600E+01  0.49327143839E+02  0.24640011426E+03  0.25142457775E+03  0.00000000000E+00 0.  1.
         11    1    3    3    0    0  0.54010388237E+02 -0.23659206900E+01  0.12141050361E+03  0.13290308501E+03  0.00000000000E+00 0. -1.
</event>
<event>
 7    1  0.5831876E-006  0.1224095E+03  0.7561462E-02  0.1239174E+00
         -1   -1    0    0    0  501 -0.00000000000E+00  0.00000000000E+00  0.72555181743E+02  0.72555181743E+02  0.00000000000E+00 0.  1.
          1   -1    0    0  501    0  0.00000000000E+00 -0.00000000000E+00 -0.51730759626E+03  0.51730759626E+03  0.00000000000E+00 0. -1.
         23    2    1    2    0    0  0.18870696787E+00 -0.24315915503E+02  0.13897812619E+02  0.95008193184E+02  0.90786057406E+02 0.  0.
          5    1    1    2  502    0  0.49727309009E+02 -0.45242666504E+02 -0.35020195840E+03  0.35662107089E+03  0.41800000000E+01 0. -1.
         -5    1    1    2    0  502 -0.49916015977E+02  0.69558582007E+02 -0.10844826873E+03  0.13823351393E+03  0.41800000000E+01 0.  1.
        -11    1    3    3    0    0  0.31915269722E+02  0.19684176623E+02 -0.44115856503E+01  0.37755970901E+02  0.00000000000E+00 0. -1.
         11    1    3    3    0    0 -0.31726562754E+02 -0.44000092126E+02  0.18309398270E+02  0.57252222282E+02  0.00000000000E+00 0.  1.
</event>
<event>
 7    1  0.5831876E-006  0.1255813E+03  0.7561462E-02  0.1234164E+00
          1   -1    0    0  501    0  0.00000000000E+00  0.00000000000E+00  0.10905339888E+04  0.10905339888E+04  0.00000000000E+00 0. -1.
         -1   -1    0    0    0  501 -0.00000000000E+00 -0.00000000000E+00 -0.18246860445E+02  0.18246860445E+02  0.00000000000E+00 0.  1.
         23    2    1    2    0    0 -0.31584022709E+02 -0.12459643824E+02  0.30965777751E+03  0.32563476476E+03  0.94853927861E+02 0.  0.
          5    1    1    2  502    0  0.97365779549E+02  0.18066428366E+02  0.59015788474E+03  0.59842317149E+03  0.41800000000E+01 0. -1.
         -5    1    1    2    0  502 -0.65781756839E+02 -0.56067845425E+01  0.17247146615E+03  0.18472291304E+03  0.41800000000E+01 0.  1.
        -11    1    3    3    0    0 -0.42469030443E+02  0.23351391537E+02  0.84711157891E+02  0.97595524000E+02  0.00000000000E+00 0.  1.
         11    1    3    3    0    0  0.10885007734E+02 -0.35811035360E+02  0.22494661962E+03  0.22803924076E+03  0.00000000000E+00 0. -1.
</event>
<event>
 7    1  0.5831876E-006  0.1011878E+03  0.7561462E-02  0.1277818E+00
          3   -1    0    0  501    0  0.00000000000E+00  0.00000000000E+00  0.91293023137E+02  0.91293023137E+02  0.00000000000E+00 0. -1.
         -3   -1    0    0    0  501 -0.00000000000E+00 -0.00000000000E+00 -0.16040172252E+03  0.16040172252E+03  0.00000000000E+00 0.  1.
         23    2    1    2    0    0 -0.12972949998E+02  0.32087973270E+02 -0.74070783378E+02  0.12180953683E+03  0.90294777547E+02 0.  0.
          5    1    1    2  502    0  0.56499314536E+02  0.98428734636E+01 -0.24517633055E+02  0.62511130462E+02  0.41800000000E+01 0. -1.
         -5    1    1    2    0  502 -0.43526364538E+02 -0.41930846734E+02  0.29479717053E+02  0.67374078363E+02  0.41800000000E+01 0. -1.
        -11    1    3    3    0    0 -0.37585573210E+02 -0.68710960086E+01 -0.64157173903E+02  0.74672821275E+02  0.00000000000E+00 0.  1.
         11    1    3    3    0    0  0.24612623213E+02  0.38959069279E+02 -0.99136094749E+01  0.47136715555E+02  0.00000000000E+00 0. -1.
</event>
<event>
 7    1  0.5831876E-006  0.1112077E+03  0.7561462E-02  0.1258350E+00
         -2   -1    0    0    0  501 -0.00000000000E+00  0.00000000000E+00  0.21004429982E+02  0.21004429982E+02  0.00000000000E+00 0.  1.
          2   -1    0    0  501    0  0.00000000000E+00 -0.00000000000E+00 -0.62869716591E+03  0.62869716591E+03  0.00000000000E+00 0. -1.
         23    2    1    2    0    0  0.26645271578E+02 -0.47806209832E+01 -0.18544182460E+03  0.20847974475E+03  0.91336240478E+02 0.  0.
          5    1    1    2  502    0 -0.72278411853E+02  0.25723156970E+02 -0.27816225416E+03  0.28857851906E+03  0.41800000000E+01 0. -1.
         -5    1    1    2    0  502  0.45633140275E+02 -0.20942535987E+02 -0.14408865717E+03  0.15264333209E+03  0.41800000000E+01 0. -1.
        -11    1    3    3    0    0 -0.28360179102E+02  0.20168366751E+02 -0.64140393382E+02  0.72972959645E+02  0.00000000000E+00 0.  1.
         11    1    3    3    0    0  0.55005450680E+02 -0.24948987734E+02 -0.12130143122E+03  0.13550678511E+03  0.00000000000E+00 0. -1.
</event>
<event>
 7    1  0.5831876E-006  0.1305806E+03  0.7561462E-02  0.1226597E+00
          2   -1    0    0  501    0  0.00000000000E+00  0.00000000000E+00  0.14221958353E+04  0.14221958353E+04  0.00000000000E+00 0. -1.
         -2   -1    0    0    0  501 -0.00000000000E+00 -0.00000000000E+00 -0.16593943825E+02  0.16593943825E+02  0.00000000000E+00 0.  1.
         23    2    1    2    0    0  0.32048660382E+02  0.10028629454E+03  0.52502730052E+03  0.54316526531E+03  0.91051532896E+02 0.  0.
          5    1    1    2  502    0 -0.26317842196E+02  0.40472766833E+01  0.50624822227E+03  0.50696522979E+03  0.41800000000E+01 0. -1.
         -5    1    1    2    0  502 -0.57308181868E+01 -0.10433357123E+03  0.37432636865E+03  0.38865928398E+03  0.41800000000E+01 0. -1.
        -11    1    3    3    0    0 -0.14918629490E+02  0.74648009978E+02  0.20463729858E+03  0.21833761670E+03  0.00000000000E+00 0. -1.
         11    1    3    3    0    0  0.46967289872E+02  0.25638284567E+02  0.32039000195E+03  0.32482764861E+03  0.00000000000E+00 0.  1.
</event>
<event>
 7    1  0.5831876E-006  0.1033189E+03  0.7561462E-02  0.1273468E+00
          2   -1    0    0  501    0  0.00000000000E+00  0.00000000000E+00  0.37066636008E+03  0.37066636008E+03  0.00000000000E+00 0. -1.
         -2   -1    0    0    0  501 -0.00000000000E+00 -0.00000000000E+00 -0.33257471731E+02  0.33257471731E+02  0.00000000000E+00 0.  1.
         23    2    1    2    0    0 -0.20503386084E+02  0.11346963670E+02  0.14652480561E+03  0.17450410625E+03  0.91831487049E+02 0.  0.
          5    1    1    2  502    0  0.69802185292E+02 -0.13997714827E+02  0.75542128461E+02  0.10388631606E+03  0.41800000000E+01 0. -1.
         -5    1    1    2    0  502 -0.49298799207E+02  0.26507511572E+01  0.11534195428E+03  0.12553340950E+03  0.41800000000E+01 0. -1.
        -11    1    3    3    0    0 -0.43272817406E+02 -0.19477700765E+02  0.42717906367E+02  0.63849331067E+02  0.00000000000E+00 0.  1.
         11    1    3    3    0    0  0.22769431321E+02  0.30824664435E+02  0.10380689925E+03  0.11065477519E+03  0.00000000000E+00 0. -1.
</event>
<event>
 7    1  0.5831876E-006  0.1267103E+03  0.7561462E-02  0.1232420E+00
         -1   -1    0    0    0  501 -0.00000000000E+00  0.00000000000E+00  0.22575127661E+03  0.22575127661E+03  0.00000000000E+00 0.  1.
          1   -1    0    0  501    0  0.00000000000E+00 -0.00000000000E+00 -0.10990861979E+03  0.10990861979E+03  0.00000000000E+00 0. -1.
         23    2    1    2    0    0  0.21961206477E+02  0.16549276382E+02  0.11744987230E+03  0.15390275084E+03  0.95579344389E+02 0.  0.
          5    1    1    2  502    0 -0.10114782350E+03 -0.95672494017E+01 -0.73227970478E+01  0.10194856652E+03  0.41800000000E+01 0. -1.
         -5    1    1    2    0  502  0.79186617019E+02 -0.69820269802E+01  0.57155815633E+01  0.79808579039E+02  0.41800000000E+01 0.  1.
        -11    1    3    3    0    0 -0.10787235886E+02  0.33544292581E+02  0.11098596775E+03  0.11644513326E+03  0.00000000000E+00 0. -1.
         11    1    3    3    0    0  0.32748442363E+02 -0.16995016199E+02  0.64639045548E+01  0.37457617582E+02  0.00000000000E+00 0.  1.
</event>
<event>
 7    1  0.5831876E-006  0.1127595E+03  0.7561462E-02  0.1255543E+00
         -1   -1    0    0    0  501 -0.00000000000E+00  0.00000000000E+00  0.33165195110E+02  0.33165195110E+02  0.00000000000E+00 0.  1.
          1   -1    0    0  501    0  0.00000000000E+00 -0.00000000000E+00 -0.11066302927E+04  0.11066302927E+04  0.00000000000E+00 0. -1.
         23    2    1    2    0    0  0.41247730874E+02  0.45268388859E+02 -0.78126744724E+02  0.13475949148E+03  0.91135777658E+02 0.  0.
          5    1    1    2  502    0 -0.51459890240E+02 -0.76997552347E+02 -0.49737495352E+03  0.50594076744E+03  0.41800000000E+01 0. -1.
         -5    1    1    2    0  502  0.10212159366E+02  0.31729163488E+02 -0.49796339932E+03  0.49909522886E+03  0.41800000000E+01 0. -1.
        -11    1    3    3    0    0  0.44110063733E+02 -0.88814602099E+01 -0.73397784291E+01  0.45590025284E+02  0.00000000000E+00 0.  1.
         11    1    3    3    0    0 -0.28623328591E+01  0.54149849069E+02 -0.70786966295E+02  0.89169466191E+02  0.00000000000E+00 0. -1.
</event>
<event>
 7    1  0.5831876E-006  0.9907945E+02  0.7561462E-02  0.1282244E+00
         -1   -1    0    0    0  501 -0.00000000000E+00  0.00000000000E+00  0.62963536762E+03  0.62963536762E+03  0.00000000000E+00 0.  1.
          1   -1    0    0  501    0  0.00000000000E+00 -0.00000000000E+00 -0.20701693197E+02  0.20701693197E+02  0.00000000000E+00 0. -1.
         23    2    1    2    0    0  0.54509416001E+01 -0.30530563109E+02  0.29976810231E+03  0.31538524556E+03  0.92979083170E+02 0.  0.
          5    1    1    2  502    0 -0.52386365316E+02  0.32412732179E+02  0.80385293451E+02  0.10136165094E+03  0.41800000000E+01 0. -1.
         -5    1    1    2    0  502  0.46935423716E+02 -0.18821690701E+01  0.22878027866E+03  0.23359016431E+03  0.41800000000E+01 0. -1.
        -11    1    3    3    0    0  0.40927579204E+02 -0.34538233249E+02  0.23881385852E+03  0.24474479630E+03  0.00000000000E+00 0.  1.
         11    1    3    3    0    0 -0.35476637603E+02  0.40076701403E+01  0.60954243788E+02  0.70640449258E+02  0.00000000000E+00 0. -1.
</event>
<event>
 6    1  0.5831876E-006  0.6582468E+02  0.7561462E-02  0.1374896E+00
         -2   -1    0    0    0  501 -0.00000000000E+00  0.00000000000E+00  0.13035477011E+02  0.13035477011E+02  0.00000000000E+00 0.  1.
          2   -1    0    0  501    0  0.00000000000E+00 -0.00000000000E+00 -0.45926151402E+03  0.45926151402E+03  0.00000000000E+00 0. -1.
          5    1    1    2  502    0  0.24200457670E+02  0.27427095539E+02 -0.25898697283E+03  0.26159058129E+03  0.41800000000E+01 0. -1.
         -5    1    1    2    0  502 -0.34164353137E+02 -0.54750177516E+02 -0.13890449281E+03  0.15322113264E+03  0.41800000000E+01 0.  1.
        -11    1    1    2    0    0  0.68000809725E+01  0.76407182799E+01 -0.10148433888E+02  0.14408760788E+02  0.00000000000E+00 0.  1.
         11    1    1    2    0    0  0.31638144943E+01  0.19682363697E+02 -0.38186137480E+02  0.43076516323E+02  0.00000000000E+00 0. -1.
</event>
<event>
 7    1  0.5831876E-006  0.1098883E+03  0.7561462E-02  0.1260777E+00
         -1   -1    0    0    0  501 -0.00000000000E+00  0.00000000000E+00  0.41888782255E+03  0.41888782255E+03  0.00000000000E+00 0.  1.
          1   -1    0    0  501    0  0.00000000000E+00 -0.00000000000E+00 -0.43390118896E+02  0.43390118896E+02  0.00000000000E+00 0. -1.
         23    2    1    2    0    0 -0.27315327899E+02 -0.34032353458E+02  0.29225333012E+03  0.30988430313E+03  0.93337795876E+02 0.  0.
          5    1    1    2  502    0  0.71979277576E+02  0.37922614139E+02  0.43590896831E+02  0.92394695465E+02  0.41800000000E+01 0. -1.
         -5    1    1    2    0  502 -0.44663949678E+02 -0.38902606811E+01  0.39653476706E+02  0.59998942856E+02  0.41800000000E+01 0.  1.
        -11    1    3    3    0    0 -0.37747559869E+02 -0.56823334172E+02  0.26128320832E+03  0.27004200513E+03  0.00000000000E+00 0.  1.
         11    1    3    3    0    0  0.10432231970E+02  0.22790980714E+02  0.30970121800E+02  0.39842298002E+02  0.00000000000E+00 0. -1.
</event>
<event>
 7    1  0.5831876E-006  0.1150699E+03  0.7561462E-02  0.1251459E+00
          2   -1    0    0  501    0  0.00000000000E+00  0.00000000000E+00  0.58724035531E+03  0.58724035531E+03  0.00000000000E+00 0. -1.
         -2   -1    0    0    0  501 -0.00000000000E+00 -0.00000000000E+00 -0.23554522345E+02  0.23554522345E+02  0.00000000000E+00 0.  1.
         23    2    1    2    0    0  0.41879130921E+02  0.34439257044E-02  0.21378819547E+03  0.23685701421E+03  0.92962309796E+02 0.  0.
          5    1    1    2  502    0  0.20691452068E+02  0.48228508652E+02  0.14875061309E+03  0.15779208640E+03  0.41800000000E+01 0. -1.
         -5    1    1    2    0  502 -0.62570582989E+02 -0.48231952577E+02  0.20114702441E+03  0.21614577704E+03  0.41800000000E+01 0. -1.
        -11    1    3    3    0    0  0.69541783499E+02  0.68648820534E+01  0.12032529994E+03  0.13914511872E+03  0.00000000000E+00 0.  1.
         11    1    3    3    0    0 -0.27662652578E+02 -0.68614381277E+01  0.93462895523E+02  0.97711895491E+02  0.00000000000E+00 0. -1.
</event>
<event>
 7    1  0.5831876E-006  0.1080246E+03  0.7561462E-02  0.1264272E+00
          1   -1    0    0  501    0  0.00000000000E+00  0.00000000000E+00  0.26816424910E+03  0.26816424910E+03  0.00000000000E+00 0. -1.
         -1   -1    0    0    0  501 -0.00000000000E+00 -0.00000000000E+00 -0.65555677934E+02  0.65555677934E+02  0.00000000000E+00 0.  1.
         23    2    1    2    0    0 -0.58097476632E+01  0.53097479677E+02  0.23948627227E+02  0.10917492447E+03  0.92154934055E+02 0.  0.
          5    1    1    2  502    0 -0.31836638564E+02  0.27773210545E+02  0.85707203144E+02  0.95645804141E+02  0.41800000000E+01 0.  1.
         -5    1    1    2    0  502  0.37646386227E+02 -0.80870690222E+02  0.92952740791E+02  0.12889919842E+03  0.41800000000E+01 0.  1.
        -11    1    3    3    0    0 -0.34748641579E+01 -0.15384002380E+02 -0.21710641652E+02  0.26834570448E+02  0.00000000000E+00 0.  1.
         11    1    3    3    0    0 -0.23348835052E+01  0.68481482058E+02  0.45659268879E+02  0.82340354022E+02  0.00000000000E+00 0. -1.
</event>
<event>
 7    1  0.5831876E-006  0.1224139E+03  0.7561462E-02  0.1239167E+00
         -1   -1    0    0    0  501 -0.00000000000E+00  0.00000000000E+00  0.15733205592E+02  0.15733205592E+02  0.00000000000E+00 0.  1.
          1   -1    0    0  501    0  0.00000000000E+00 -0.00000000000E+00 -0.10188072113E+04  0.10188072113E+04  0.00000000000E+00 0. -1.
         23    2    1    2    0    0 -0.38507053871E+02 -0.53538733966E+02 -0.39027497226E+03  0.40563703320E+03  0.88756180059E+02 0.  0.
          5    1    1    2  502    0  0.83890928597E+02  0.44053244753E+02 -0.40733738910E+03  0.41823390254E+03  0.41800000000E+01 0.  1.
         -5    1    1    2    0  502 -0.45383874725E+02  0.94854892134E+01 -0.20546164437E+03  0.21066948118E+03  0.41800000000E+01 0.  1.
        -11    1    3    3    0    0 -0.61813948835E+02 -0.25241734941E+02 -0.17581915552E+03  0.18807042538E+03  0.00000000000E+00 0.  1.
         11    1    3    3    0    0  0.23306894963E+02 -0.28296999025E+02 -0.21445581674E+03  0.21756660782E+03  0.00000000000E+00 0. -1.
</event>
<event>
 7    1  0.5831876E-006  0.1057834E+03  0.7561462E-02  0.1268584E+00
         -1   -1    0    0    0  501 -0.00000000000E+00  0.00000000000E+00  0.74555090145E+01  0.74555090145E+01  0.00000000000E+00 0.  1.
          1   -1    0    0  501    0  0.00000000000E+00 -0.00000000000E+00 -0.33898373855E+04  0.33898373855E+04  0.00000000000E+00 0. -1.
         23    2    1    2    0    0  0.28589778268E+02 -0.26805239391E+02 -0.42721768266E+03  0.43938092451E+03  0.94893372615E+02 0.  0.
          5    1    1    2  502    0 -0.66972653005E+02  0.17626376998E+02 -0.25165111868E+04  0.25174673883E+04  0.41800000000E+01 0. -1.
         -5    1    1    2    0  502  0.38382874737E+02  0.91788623938E+01 -0.43865300700E+03  0.44044458168E+03  0.41800000000E+01 0.  1.
        -11    1    3    3    0    0 -0.12963423370E+02 -0.52211572223E+02 -0.23666275866E+03  0.24270014412E+03  0.00000000000E+00 0. -1.
         11    1    3    3    0    0  0.41553201638E+02  0.25406332832E+02 -0.19055492399E+03  0.19668078038E+03  0.00000000000E+00 0.  1.
</event>
<event>
 7    1  0.5831876E-006  0.2154800E+03  0.7561462E-02  0.1137298E+00
          3   -1    0    0  501    0  0.00000000000E+00  0.00000000000E+00  0.20572186816E+03  0.20572186816E+03  0.00000000000E+00 0. -1.
         -3   -1    0    0    0  501 -0.00000000000E+00 -0.00000000000E+00 -0.29295722455E+03  0.29295722455E+03  0.00000000000E+00 0.  1.
         23    2    1    2    0    0  0.58990078810E+02 -0.14808689376E+03 -0.12846012028E+03  0.22387645044E+03  0.90604111696E+02 0.  0.
          5    1    1    2  502    0 -0.81002063319E+02  0.19908905357E+03  0.42235315669E+02  0.21908692294E+03  0.41800000000E+01 0. -1.
         -5    1    1    2    0  502  0.22011984508E+02 -0.51002159806E+02 -0.10105517820E+01  0.55715719342E+02  0.41800000000E+01 0.  1.
        -11    1    3    3    0    0  0.36989070172E+02 -0.70293936177E+02 -0.11816241449E+03  0.14237901872E+03  0.00000000000E+00 0.  1.
         11    1    3    3    0    0  0.22001008638E+02 -0.77792957586E+02 -0.10297705788E+02  0.81497431712E+02  0.00000000000E+00 0. -1.
</event>
<event>
 7    1  0.5831876E-006  0.1197629E+03  0.7561462E-02  0.1243489E+00
          4   -1    0    0  501    0  0.00000000000E+00  0.00000000000E+00  0.55972546767E+02  0.55972546767E+02  0.00000000000E+00 0.  1.
         -4   -1    0    0    0  501 -0.00000000000E+00 -0.00000000000E+00 -0.47121302687E+03  0.47121302687E+03  0.00000000000E+00 0. -1.
         23    2    1    2    0    0  0.23097104273E+02 -0.81423121330E+02 -0.33211733507E+03  0.35479008778E+03  0.91710856613E+02 0.  0.
          5    1    1    2  502    0  0.27478002218E+02  0.86872307183E+01  0.20790104610E+02  0.35780014437E+02  0.41800000000E+01 0. -1.
         -5    1    1    2    0  502 -0.50575106491E+02  0.72735890611E+02 -0.10391324964E+03  0.13661547142E+03  0.41800000000E+01 0. -1.
        -11    1    3    3    0    0  0.25825465752E+02 -0.99825885317E+02 -0.24691333122E+03  0.26757868972E+03  0.00000000000E+00 0.  1.
         11    1    3    3    0    0 -0.27283614798E+01  0.18402763988E+02 -0.85204003854E+02  0.87211398059E+02  0.00000000000E+00 0. -1.
</event>
<event>
 7    1  0.5831876E-006  0.8319742E+02  0.7561462E-02  0.1320215E+00
         -1   -1    0    0    0  501 -0.00000000000E+00  0.00000000000E+00  0.10052503604E+03  0.10052503604E+03  0.00000000000E+00 0.  1.
          1   -1    0    0  501    0  0.00000000000E+00 -0.00000000000E+00 -0.16388018947E+03  0.16388018947E+03  0.00000000000E+00 0. -1.
         23    2    1    2    0    0 -0.21861453355E+02 -0.56460435610E+02  0.52408232061E+01  0.10942472525E+03  0.90997804022E+02 0.  0.
          5    1    1    2  502    0  0.17037854691E+01  0.19812258643E+01  0.35424693515E+02  0.35766037683E+02  0.41800000000E+01 0. -1.
         -5    1    1    2    0  502  0.20157667886E+02  0.54479209746E+02 -0.10402067015E+03  0.11921446258E+03  0.41800000000E+01 0. -1.
        -11    1    3    3    0    0  0.20531610716E+02  0.11195634085E+02  0.16740935398E+02  0.28760183921E+02  0.00000000000E+00 0.  1.
         11    1    3    3    0    0 -0.42393064071E+02 -0.67656069695E+02 -0.11500112192E+02  0.80664541333E+02  0.00000000000E+00 0. -1.
</event>
<event>
 7    1  0.5831876E-006  0.1787576E+03  0.7561462E-02  0.1169011E+00
         -1   -1    0    0    0  501 -0.00000000000E+00  0.00000000000E+00  0.97394989370E+02  0.97394989370E+02  0.00000000000E+00 0.  1.
          1   -1    0    0  501    0  0.00000000000E+00 -0.00000000000E+00 -0.54430172999E+03  0.54430172999E+03  0.00000000000E+00 0. -1.
         23    2    1    2    0    0  0.11679658080E+03 -0.11600358398E+02 -0.37472842127E+02  0.15067633759E+03  0.86736008725E+02 0.  0.
          5    1    1    2  502    0 -0.29970538489E+02 -0.93183602519E+02 -0.57338150743E+02  0.11351895386E+03  0.41800000000E+01 0. -1.
         -5    1    1    2    0  502 -0.86826042315E+02  0.10478396092E+03 -0.35209574775E+03  0.37750142791E+03  0.41800000000E+01 0.  1.
        -11    1    3    3    0    0  0.10028378931E+03 -0.23549680657E+02  0.54540524112E+01  0.10315605918E+03  0.00000000000E+00 0.  1.
         11    1    3    3    0    0  0.16512791491E+02  0.11949322259E+02 -0.42926894538E+02  0.47520278408E+02  0.00000000000E+00 0. -1.
</event>
<event>
 7    1  0.5831876E-006  0.2260048E+03  0.7561462E-02  0.1129484E+00
          2   -1    0    0  501    0  0.00000000000E+00  0.00000000000E+00  0.12902012505E+04  0.12902012505E+04  0.00000000000E+00 0.  1.
         -2   -1    0    0    0  501 -0.00000000000E+00 -0.00000000000E+00 -0.46120492714E+02  0.46120492714E+02  0.00000000000E+00 0. -1.
         23    2    1    2    0    0  0.61620129545E+02 -0.19642521181E+03  0.40688309103E+03  0.46515629923E+03  0.91851122754E+02 0.  0.
          5    1    1    2  502    0  0.43582681491E+01  0.15413673743E+03  0.43911777326E+03  0.46542348407E+03  0.41800000000E+01 0.  1.
         -5    1    1    2    0  502 -0.65978397694E+02  0.42288474381E+02  0.39807989354E+03  0.40574195996E+03  0.41800000000E+01 0.  1.
        -11    1    3    3    0    0 -0.34692630276E+01 -0.11490779419E+03  0.26667990174E+03  0.29040317999E+03  0.00000000000E+00 0.  1.
         11    1    3    3    0    0  0.65089392572E+02 -0.81517417626E+02  0.14020318928E+03  0.17475311925E+03  0.00000000000E+00 0. -1.
</event>
<event>
 7    1  0.5831876E-006  0.9530351E+02  0.7561462E-02  0.1290494E+00
          1   -1    0    0  501    0  0.00000000000E+00  0.00000000000E+00  0.57528102679E+02  0.57528102679E+02  0.00000000000E+00 0. -1.
         -1   -1    0    0    0  501 -0.00000000000E+00 -0.00000000000E+00 -0.24495687340E+03  0.24495687340E+03  0.00000000000E+00 0.  1.
         23    2    1    2    0    0  0.30689393410E+02  0.18377768891E+02 -0.12262321220E+03  0.15713552657E+03  0.91517977915E+02 0.  0.
          5    1    1    2  502    0 -0.59179012711E+02 -0.16054768436E+01  0.12958407467E+02  0.60746405864E+02  0.41800000000E+01 0. -1.
         -5    1    1    2    0  502  0.28489619301E+02 -0.16772292047E+02 -0.77763965985E+02  0.84603043646E+02  0.41800000000E+01 0. -1.
        -11    1    3    3    0    0  0.61210705653E+02 -0.19887293442E+01 -0.82761145582E+02  0.10295684897E+03  0.00000000000E+00 0. -1.
         11    1    3    3    0    0 -0.30521312244E+02  0.20366498235E+02 -0.39862066620E+02  0.54178677601E+02  0.00000000000E+00 0.  1.
</event>
<event>
 7    1  0.5831876E-006  0.9389460E+02  0.7561462E-02  0.1293685E+00
          1   -1    0    0  501    0  0.00000000000E+00  0.00000000000E+00  0.74889745913E+02  0.74889745913E+02  0.00000000000E+00 0. -1.
         -1   -1    0    0    0  501 -0.00000000000E+00 -0.00000000000E+00 -0.20778464319E+03  0.20778464319E+03  0.00000000000E+00 0.  1.
         23    2    1    2    0    0  0.48433291589E+02 -0.23562020210E+02 -0.95565575300E+02  0.14146237801E+03  0.89318937973E+02 0.  0.
          5    1    1    2  502    0 -0.49733491163E+02  0.41718570868E+02 -0.74931262598E+02  0.99227142522E+02  0.41800000000E+01 0.  1.
         -5    1    1    2    0  502  0.13001995735E+01 -0.18156550658E+02  0.37601940617E+02  0.41984868571E+02  0.41800000000E+01 0.  1.
        -11    1    3    3    0    0  0.93989907754E+01 -0.53845451905E+02 -0.45416387765E+02  0.71065617538E+02  0.00000000000E+00 0. -1.
         11    1    3    3    0    0  0.39034300814E+02  0.30283431695E+02 -0.50149187535E+02  0.70396760477E+02  0.00000000000E+00 0.  1.
</event>
<event>
 7    1  0.5831876E-006  0.1214858E+03  0.7561462E-02  0.1240666E+00
          2   -1    0    0  501    0  0.00000000000E+00  0.00000000000E+00  0.53691242946E+03  0.53691242946E+03  0.00000000000E+00 0. -1.
         -2   -1    0    0    0  501 -0.00000000000E+00 -0.00000000000E+00 -0.37107769726E+02  0.37107769726E+02  0.00000000000E+00 0.  1.
         23    2    1    2    0    0  0.55131142491E+02 -0.68029758378E+02  0.20651927044E+03  0.24336708574E+03  0.94391940643E+02 0.  0.
          5    1    1    2  502    0 -0.19347878905E+02 -0.23654366592E+02  0.12839571402E+02  0.33409526647E+02  0.41800000000E+01 0. -1.
         -5    1    1    2    0  502 -0.35783263586E+02  0.91684124969E+02  0.28044581789E+03  0.29724358680E+03  0.41800000000E+01 0. -1.
        -11    1    3    3    0    0  0.67290803673E+02 -0.29967565805E+02  0.71871346896E+02  0.10291548845E+03  0.00000000000E+00 0.  1.
         11    1    3    3    0    0 -0.12159661182E+02 -0.38062192573E+02  0.13464792355E+03  0.14045159728E+03  0.00000000000E+00 0. -1.
</event>
<event>
 7    1  0.5831876E-006  0.9463041E+02  0.7561462E-02  0.1292011E+00
          1   -1    0    0  501    0  0.00000000000E+00  0.00000000000E+00  0.83125554276E+03  0.83125554276E+03  0.00000000000E+00 0. -1.
         -1   -1    0    0    0  501 -0.00000000000E+00 -0.00000000000E+00 -0.21722681073E+02  0.21722681073E+02  0.00000000000E+00 0.  1.
         23    2    1    2    0    0  0.58280707872E+02 -0.41037750840E+02  0.25589594389E+03  0.28092777701E+03  0.91416321812E+02 0.  0.
          5    1    1    2  502    0  0.73758842813E+01 -0.17189627783E+02  0.10501027722E+02  0.21854769627E+02  0.41800000000E+01 0.  1.
         -5    1    1    2    0  502 -0.65656592153E+02  0.58227378623E+02  0.54313589008E+03  0.55019567720E+03  0.41800000000E+01 0.  1.
        -11    1    3    3    0    0  0.14898403466E+02  0.78807350224E+01  0.44988112482E-01  0.16854389169E+02  0.00000000000E+00 0.  1.
         11    1    3    3    0    0  0.43382304406E+02 -0.48918485863E+02  0.25585095578E+03  0.26407338784E+03  0.00000000000E+00 0. -1.
</event>
<event>
 7    1  0.5831876E-006  0.1582915E+03  0.7561462E-02  0.1190639E+00
          2   -1    0    0  501    0  0.00000000000E+00  0.00000000000E+00  0.16334074068E+04  0.16334074068E+04  0.00000000000E+00 0. -1.
         -2   -1    0    0    0  501 -0.00000000000E+00 -0.00000000000E+00 -0.19426154304E+02  0.19426154304E+02  0.00000000000E+00 0.  1.
         23    2    1    2    0    0  0.12994507606E+03 -0.50014446267E+02  0.66013895116E+03  0.68079956069E+03  0.91199996526E+02 0.  0.
          5    1    1    2  502    0 -0.76056318556E+01  0.52027951478E+02  0.15183345824E+03  0.16073464098E+03  0.41800000000E+01 0.  1.
         -5    1    1    2    0  502 -0.12233944420E+03 -0.20135052108E+01  0.80200884313E+03  0.81129935947E+03  0.41800000000E+01 0.  1.
        -11    1    3    3    0    0  0.23197633136E+02  0.74072709086E+00  0.22596222780E+02  0.32392408735E+02  0.00000000000E+00 0.  1.
         11    1    3    3    0    0  0.10674744292E+03 -0.50755173358E+02  0.63754272838E+03  0.64840715196E+03  0.00000000000E+00 0. -1.
</event>
<event>
 7    1  0.5831876E-006  0.1035020E+03  0.7561462E-02  0.1273099E+00
          2   -1    0    0  501    0  0.00000000000E+00  0.00000000000E+00  0.27838626169E+03  0.27838626169E+03  0.00000000000E+00 0. -1.
         -2   -1    0    0    0  501 -0.00000000000E+00 -0.00000000000E+00 -0.64902449026E+02  0.64902449026E+02  0.00000000000E+00 0.  1.
         23    2    1    2    0    0 -0.50833502786E+02  0.10644645883E+02  0.20493780974E+02  0.10749754807E+03  0.91860624272E+02 0.  0.
          5    1    1    2  502    0 -0.78299697137E+01 -0.42334475807E+02  0.15173745296E+02  0.45839188625E+02  0.41800000000E+01 0.  1.
         -5    1    1    2    0  502  0.58663472500E+02  0.31689829923E+02  0.17781628639E+03  0.18995197402E+03  0.41800000000E+01 0.  1.
        -11    1    3    3    0    0  0.21341323558E+01 -0.30063377652E+02  0.26886699914E+02  0.40388808215E+02  0.00000000000E+00 0.  1.
         11    1    3    3    0    0 -0.52967635142E+02  0.40708023536E+02 -0.63929189398E+01  0.67108739858E+02  0.00000000000E+00 0. -1.
</event>
<event>
 7    1  0.5831876E-006  0.1187998E+03  0.7561462E-02  0.1245090E+00
          1   -1    0    0  501    0  0.00000000000E+00  0.00000000000E+00  0.28991463752E+03  0.28991463752E+03  0.00000000000E+00 0. -1.
         -1   -1    0    0    0  501 -0.00000000000E+00 -0.00000000000E+00 -0.84937036419E+02  0.84937036419E+02  0.00000000000E+00 0.  1.
         23    2    1    2    0    0  0.96307340831E+02 -0.27924317290E+02  0.35264647688E+02  0.14138620522E+03  0.93228709399E+02 0.  0.
          5    1    1    2  502    0 -0.28319934814E+02  0.13203188953E+02 -0.15823371463E+02  0.35273139793E+02  0.41800000000E+01 0.  1.
         -5    1    1    2    0  502 -0.67987406017E+02  0.14721128336E+02  0.18553632488E+03  0.19819232893E+03  0.41800000000E+01 0.  1.
        -11    1    3    3    0    0  0.70967128753E+02  0.26975080403E+02  0.25797176125E+02  0.80184054663E+02  0.00000000000E+00 0. -1.
         11    1    3    3    0    0  0.25340212078E+02 -0.54899397692E+02  0.94674715629E+01  0.61202150558E+02  0.00000000000E+00 0.  1.
</event>
<event>
 7    1  0.5831876E-006  0.1555193E+03  0.7561462E-02  0.1193850E+00
         -1   -1    0    0    0  501 -0.00000000000E+00  0.00000000000E+00  0.33644506289E+02  0.33644506289E+02  0.00000000000E+00 0.  1.
          1   -1    0    0  501    0  0.00000000000E+00 -0.00000000000E+00 -0.93892342157E+03  0.93892342157E+03  0.00000000000E+00 0. -1.
         23    2    1    2    0    0  0.97218810494E+02  0.74471932404E+02 -0.23865269385E+03  0.28333923439E+03  0.91260328919E+02 0.  0.
          5    1    1    2  502    0 -0.38319887695E+01 -0.73790154961E+02 -0.39744764046E+03  0.40427932227E+03  0.41800000000E+01 0.  1.
         -5    1    1    2    0  502 -0.93386821724E+02 -0.68177744311E+00 -0.26917858098E+03  0.28494937120E+03  0.41800000000E+01 0.  1.
        -11    1    3    3    0    0  0.70067229437E+02  0.65170487697E+01 -0.16563263882E+03  0.17996127252E+03  0.00000000000E+00 0. -1.
         11    1    3    3    0    0  0.27151581057E+02  0.67954883634E+02 -0.73020055028E+02  0.10337796187E+03  0.00000000000E+00 0.  1.
</event>
<event>
 7    1  0.5831876E-006  0.1057888E+03  0.7561462E-02  0.1268573E+00
          1   -1    0    0  501    0  0.00000000000E+00  0.00000000000E+00  0.84482152181E+03  0.84482152181E+03  0.00000000000E+00 0. -1.
         -1   -1    0    0    0  501 -0.00000000000E+00 -0.00000000000E+00 -0.14221467006E+02  0.14221467006E+02  0.00000000000E+00 0.  1.
         23    2    1    2    0    0  0.25179499200E+00 -0.15774313967E+02  0.33087859172E+03  0.34366215986E+03  0.91510356127E+02 0.  0.
          5    1    1    2  502    0  0.53626734662E+02  0.39119358884E+02  0.29201232247E+03  0.29949093440E+03  0.41800000000E+01 0.  1.
         -5    1    1    2    0  502 -0.53878529654E+02 -0.23345044918E+02  0.20770914061E+03  0.21588989456E+03  0.41800000000E+01 0.  1.
        -11    1    3    3    0    0  0.38631791341E+02  0.10078580565E+02  0.91184267145E+02  0.99541768435E+02  0.00000000000E+00 0.  1.
         11    1    3    3    0    0 -0.38379996349E+02 -0.25852894532E+02  0.23969432458E+03  0.24412039142E+03  0.00000000000E+00 0. -1.
</event>
<event>
 7    1  0.5831876E-006  0.6119114E+02  0.7561462E-02  0.1392900E+00
          2   -1    0    0  501    0  0.00000000000E+00  0.00000000000E+00  0.12325970425E+03  0.12325970425E+03  0.00000000000E+00 0. -1.
         -2   -1    0    0    0  501 -0.00000000000E+00 -0.00000000000E+00 -0.12354761156E+03  0.12354761156E+03  0.00000000000E+00 0.  1.
         23    2    1    2    0    0 -0.43479303828E+02  0.56983325900E+01 -0.39445333715E+02  0.10859458936E+03  0.91180752526E+02 0.  0.
          5    1    1    2  502    0  0.20667742036E+02 -0.68562286701E+01  0.84451350782E+02  0.87313609944E+02  0.41800000000E+01 0.  1.
         -5    1    1    2    0  502  0.22811561792E+02  0.11578960801E+01 -0.45293924379E+02  0.50899116499E+02  0.41800000000E+01 0.  1.
        -11    1    3    3    0    0 -0.52898173028E+02 -0.14374417069E+02 -0.57910435977E+02  0.79739947146E+02  0.00000000000E+00 0.  1.
         11    1    3    3    0    0  0.94188692004E+01  0.20072749659E+02  0.18465102262E+02  0.28854642216E+02  0.00000000000E+00 0. -1.
</event>
<event>
 7    1  0.5831876E-006  0.1405003E+03  0.7561462E-02  0.1212657E+00
         -1   -1    0    0    0  501 -0.00000000000E+00  0.00000000000E+00  0.73171946368E+02  0.73171946368E+02  0.00000000000E+00 0.  1.
          1   -1    0    0  501    0  0.00000000000E+00 -0.00000000000E+00 -0.28147869550E+03  0.28147869550E+03  0.00000000000E+00 0. -1.
         23    2    1    2    0    0  0.25858331519E+02  0.88631995411E+02 -0.79009713837E+02  0.15244109842E+03  0.92040587178E+02 0.  0.
          5    1    1    2  502    0  0.24209390330E+02 -0.10034394365E+03 -0.94257702622E+02  0.13984630318E+03  0.41800000000E+01 0.  1.
         -5    1    1    2    0  502 -0.50067721849E+02  0.11711948243E+02 -0.35039332668E+02  0.62363240267E+02  0.41800000000E+01 0.  1.
        -11    1    3    3    0    0  0.46320682138E+02  0.94135233420E+02 -0.78865805441E+02  0.13125114488E+03  0.00000000000E+00 0.  1.
         11    1    3    3    0    0 -0.20462350619E+02 -0.55032380088E+01 -0.14390839636E+00  0.21189953541E+02  0.00000000000E+00 0. -1.
</event>
<event>
 7    1  0.5831876E-006  0.7761289E+02  0.7561462E-02  0.1335965E+00
          1   -1    0    0  501    0  0.00000000000E+00  0.00000000000E+00  0.11650929794E+03  0.11650929794E+03  0.00000000000E+00 0. -1.
         -1   -1    0    0    0  501 -0.00000000000E+00 -0.00000000000E+00 -0.15328325001E+03  0.15328325001E+03  0.00000000000E+00 0.  1.
         23    2    1    2    0    0 -0.36078408393E+02 -0.96722579875E+01 -0.85929673689E+02  0.13029057956E+03  0.90534646272E+02 0.  0.
          5    1    1    2  502    0  0.19115428053E+02  0.44403893147E+02 -0.25878767701E+02  0.54993529928E+02  0.41800000000E+01 0. -1.
         -5    1    1    2    0  502  0.16962980340E+02 -0.34731635159E+02  0.75034489319E+02  0.84508438456E+02  0.41800000000E+01 0. -1.
        -11    1    3    3    0    0 -0.45091860754E+02  0.99977820635E+01 -0.95918479746E+02  0.10645931763E+03  0.00000000000E+00 0.  1.
         11    1    3    3    0    0  0.90134523610E+01 -0.19670040051E+02  0.99888060569E+01  0.23831261937E+02  0.00000000000E+00 0. -1.
</event>
<event>
 6    1  0.5831876E-006  0.1370872E+03  0.7561462E-02  0.1217303E+00
         -4   -1    0    0    0  501 -0.00000000000E+00  0.00000000000E+00  0.50456987792E+02  0.50456987792E+02  0.00000000000E+00 0.  1.
          4   -1    0    0  501    0  0.00000000000E+00 -0.00000000000E+00 -0.55530665010E+03  0.55530665010E+03  0.00000000000E+00 0. -1.
          5    1    1    2  502    0 -0.33594162052E+02  0.32526266323E+02 -0.13784076802E+03  0.14561619227E+03  0.41800000000E+01 0. -1.
         -5    1    1    2    0  502 -0.24446672765E+02 -0.10318397078E+03 -0.21289651910E+03  0.23788016286E+03  0.41800000000E+01 0. -1.
        -11    1    1    2    0    0 -0.18353958634E+02  0.21280001729E+01 -0.10832344522E+03  0.10988796552E+03  0.00000000000E+00 0. -1.
         11    1    1    2    0    0  0.76394793451E+02  0.68529704284E+02 -0.45788929970E+02  0.11237931724E+03  0.00000000000E+00 0.  1.
</event>
<event>
 7    1  0.5831876E-006  0.1908911E+03  0.7561462E-02  0.1157660E+00
         -1   -1    0    0    0  501 -0.00000000000E+00  0.00000000000E+00  0.55314756296E+02  0.55314756296E+02  0.00000000000E+00 0.  1.
          1   -1    0    0  501    0  0.00000000000E+00 -0.00000000000E+00 -0.69276974403E+03  0.69276974403E+03  0.00000000000E+00 0. -1.
         23    2    1    2    0    0  0.47010886652E+02 -0.15588977418E+03 -0.34057689873E+03  0.38711813369E+03  0.85768177803E+02 0.  0.
          5    1    1    2  502    0  0.30750346793E+02  0.96650267636E+02 -0.10779856838E+03  0.14807046230E+03  0.41800000000E+01 0.  1.
         -5    1    1    2    0  502 -0.77761233446E+02  0.59239506547E+02 -0.18907952062E+03  0.21289590433E+03  0.41800000000E+01 0.  1.
        -11    1    3    3    0    0  0.19812609245E+02 -0.15388487850E+03 -0.26924624253E+03  0.31075172475E+03  0.00000000000E+00 0. -1.
         11    1    3    3    0    0  0.27198277407E+02 -0.20048956786E+01 -0.71330656202E+02  0.76366408942E+02  0.00000000000E+00 0.  1.
</event>
<event>
 7    1  0.5831876E-006  0.1464271E+03  0.7561462E-02  0.1204933E+00
          2   -1    0    0  501    0  0.00000000000E+00  0.00000000000E+00  0.16164494624E+03  0.16164494624E+03  0.00000000000E+00 0. -1.
         -2   -1    0    0    0  501 -0.00000000000E+00 -0.00000000000E+00 -0.15991926014E+03  0.15991926014E+03  0.00000000000E+00 0.  1.
         23    2    1    2    0    0  0.11062944141E+03 -0.24850422043E+02 -0.29806760781E+02  0.14981354508E+03  0.93269708478E+02 0.  0.
          5    1    1    2  502    0  0.43175129150E+01 -0.34355773488E+02  0.23659387332E+02  0.42144977146E+02  0.41800000000E+01 0. -1.
         -5    1    1    2    0  502 -0.11494695432E+03  0.59206195531E+02  0.78730595501E+01  0.12960568415E+03  0.41800000000E+01 0. -1.
        -11    1    3    3    0    0  0.65722453103E+02 -0.44730302049E+02  0.17742584198E+02  0.81455755213E+02  0.00000000000E+00 0. -1.
         11    1    3    3    0    0  0.44906988305E+02  0.19879880006E+02 -0.47549344979E+02  0.68357789868E+02  0.00000000000E+00 0.  1.
</event>
<event>
 7    1  0.5831876E-006  0.1255107E+03  0.7561462E-02  0.1234273E+00
         -4   -1    0    0    0  501 -0.00000000000E+00  0.00000000000E+00  0.17832381078E+02  0.17832381078E+02  0.00000000000E+00 0.  1.
          4   -1    0    0  501    0  0.00000000000E+00 -0.00000000000E+00 -0.96662980088E+03  0.96662980088E+03  0.00000000000E+00 0. -1.
         23    2    1    2    0    0 -0.62055750707E+01 -0.70288721857E+02 -0.35637266940E+03  0.37487737325E+03  0.92480008128E+02 0.  0.
          5    1    1    2  502    0  0.31502220996E+02 -0.27805823280E+02 -0.17222943438E+03  0.17733021232E+03  0.41800000000E+01 0. -1.
         -5    1    1    2    0  502 -0.25296645926E+02  0.98094545137E+02 -0.42019531603E+03  0.43225459638E+03  0.41800000000E+01 0. -1.
        -11    1    3    3    0    0  0.36532719946E+02 -0.20885492007E+02 -0.21584382290E+03  0.21990770630E+03  0.00000000000E+00 0. -1.
         11    1    3    3    0    0 -0.42738295016E+02 -0.49403229850E+02 -0.14052884649E+03  0.15496966696E+03  0.00000000000E+00 0.  1.
</event>
<event>
 7    1  0.5831876E-006  0.6876550E+02  0.7561462E-02  0.1364342E+00
          1   -1    0    0  501    0  0.00000000000E+00  0.00000000000E+00  0.23442541658E+03  0.23442541658E+03  0.00000000000E+00 0. -1.
         -1   -1    0    0    0  501 -0.00000000000E+00 -0.00000000000E+00 -0.59749909868E+02  0.59749909868E+02  0.00000000000E+00 0.  1.
         23    2    1    2    0    0 -0.34685640657E+02  0.98954943857E+01  0.32433155034E+02  0.10134810729E+03  0.88986037267E+02 0.  0.
          5    1    1    2  502    0  0.14963754397E+01  0.71878843081E+01 -0.22407517332E+02  0.23947318289E+02  0.41800000000E+01 0. -1.
         -5    1    1    2    0  502  0.33189265217E+02 -0.17083378694E+02  0.16464986901E+03  0.16887990087E+03  0.41800000000E+01 0. -1.
        -11    1    3    3    0    0  0.23178149082E+02  0.22497512079E+02 -0.28286754321E+01  0.32424775239E+02  0.00000000000E+00 0.  1.
         11    1    3    3    0    0 -0.57863789739E+02 -0.12602017693E+02  0.35261830466E+02  0.68923332049E+02  0.00000000000E+00 0. -1.
</event>
<event>
 7    1  0.5831876E-006  0.1355379E+03  0.7561462E-02  0.1219462E+00
         -2   -1    0    0    0  501 -0.00000000000E+00  0.00000000000E+00  0.15859275983E+03  0.15859275983E+03  0.00000000000E+00 0.  1.
          2   -1    0    0  501    0  0.00000000000E+00 -0.00000000000E+00 -0.12979507644E+03  0.12979507644E+03  0.00000000000E+00 0. -1.
         23    2    1    2    0    0  0.91191465210E+02  0.20457078976E+02  0.24011479207E+02  0.13216759150E+03  0.90318025350E+02 0.  0.
          5    1    1    2  502    0 -0.46964008987E+02 -0.73193983292E+02  0.57944925793E+01  0.87258385698E+02  0.41800000000E+01 0.  1.
         -5    1    1    2    0  502 -0.44227456223E+02  0.52736904317E+02 -0.10082884018E+01  0.68961859070E+02  0.41800000000E+01 0.  1.
        -11    1    3    3    0    0  0.93415950481E+02  0.35436826322E+02  0.42236069422E+02  0.10847208869E+03  0.00000000000E+00 0.  1.
         11    1    3    3    0    0 -0.22244852711E+01 -0.14979747346E+02 -0.18224590215E+02  0.23695502817E+02  0.00000000000E+00 0. -1.
</event>
<event>
 7    1  0.5831876E-006  0.6598437E+02  0.7561462E-02  0.1374307E+00
         -2   -1    0    0    0  501 -0.00000000000E+00  0.00000000000E+00  0.19126642175E+02  0.19126642175E+02  0.00000000000E+00 0.  1.
          2   -1    0    0  501    0  0.00000000000E+00 -0.00000000000E+00 -0.64448201449E+03  0.64448201449E+03  0.00000000000E+00 0. -1.
         23    2    1    2    0    0  0.22769674061E+02 -0.10122732471E+02 -0.21335933189E+03  0.23232029887E+03  0.88484964787E+02 0.  0.
          5    1    1    2  502    0  0.49532856531E+01  0.20862533839E+02 -0.39723078583E+03  0.39783105706E+03  0.41800000000E+01 0. -1.
         -5    1    1    2    0  502 -0.27722959714E+02 -0.10739801368E+02 -0.14765254598E+02  0.33457300729E+02  0.41800000000E+01 0. -1.
        -11    1    3    3    0    0 -0.27144297730E+02 -0.13012449634E+02 -0.14220773331E+03  0.14535878425E+03  0.00000000000E+00 0. -1.
         11    1    3    3    0    0  0.49913971791E+02  0.28897171629E+01 -0.71151598586E+02  0.86961514629E+02  0.00000000000E+00 0.  1.
</event>
<event>
 7    1  0.5831876E-006  0.1566831E+03  0.7561462E-02  0.1192493E+00
         -1   -1    0    0    0  501 -0.00000000000E+00  0.00000000000E+00  0.16590257769E+03  0.16590257769E+03  0.00000000000E+00 0.  1.
          1   -1    0    0  501    0  0.00000000000E+00 -0.00000000000E+00 -0.16065316571E+03  0.16065316571E+03  0.00000000000E+00 0. -1.
         23    2    1    2    0    0 -0.76208034744E+01 -0.11402768416E+03  0.44977074419E+02  0.15252728085E+03  0.90450233722E+02 0.  0.
          5    1    1    2  502    0 -0.30299094629E+02 -0.15348153047E+02 -0.37257017899E+01  0.34423163584E+02  0.41800000000E+01 0.  1.
         -5    1    1    2    0  502  0.37919898104E+02  0.12937583721E+03 -0.36001960654E+02  0.13960529896E+03  0.41800000000E+01 0.  1.
        -11    1    3    3    0    0  0.35176750870E+02 -0.86491454480E+02  0.18595625006E+02  0.95204898872E+02  0.00000000000E+00 0. -1.
         11    1    3    3    0    0 -0.42797554344E+02 -0.27536229684E+02  0.26381449413E+02  0.57322381983E+02  0.00000000000E+00 0.  1.
</event>
<event>
 7    1  0.5831876E-006  0.1179020E+03  0.7561462E-02  0.1246599E+00
         -1   -1    0    0    0  501 -0.00000000000E+00  0.00000000000E+00  0.31252515124E+02  0.31252515124E+02  0.00000000000E+00 0.  1.
          1   -1    0    0  501    0  0.00000000000E+00 -0.00000000000E+00 -0.53335234285E+03  0.53335234285E+03  0.00000000000E+00 0. -1.
         23    2    1    2    0    0  0.48636183320E+02 -0.41348235795E+02 -0.17291984914E+03  0.20671726901E+03  0.93571363925E+02 0.  0.
          5    1    1    2  502    0  0.27960593117E+02  0.55228821278E+02 -0.16008989770E+03  0.17169235630E+03  0.41800000000E+01 0. -1.
         -5    1    1    2    0  502 -0.76596776438E+02 -0.13880585483E+02 -0.16909008088E+03  0.18619523266E+03  0.41800000000E+01 0. -1.
        -11    1    3    3    0    0 -0.14768890493E+02 -0.27030120915E+02 -0.11695392058E+03  0.12094199892E+03  0.00000000000E+00 0. -1.
         11    1    3    3    0    0  0.63405073813E+02 -0.14318114881E+02 -0.55965928561E+02  0.85775270088E+02  0.00000000000E+00 0.  1.
</event>
<event>
 7    1  0.5831876E-006  0.1160150E+03  0.7561462E-02  0.1249820E+00
         -3   -1    0    0    0  501 -0.00000000000E+00  0.00000000000E+00  0.91396708711E+02  0.91396708711E+02  0.00000000000E+00 0.  1.
          3   -1    0    0  501    0  0.00000000000E+00 -0.00000000000E+00 -0.20605925932E+03  0.20605925932E+03  0.00000000000E+00 0. -1.
         23    2    1    2    0    0  0.52160479999E+02  0.32750288470E+02  0.88005542222E+01  0.11122139000E+03  0.92192465912E+02 0.  0.
          5    1    1    2  502    0  0.35298124250E+02 -0.36911769172E+02 -0.37861584351E+02  0.63713485609E+02  0.41800000000E+01 0. -1.
         -5    1    1    2    0  502 -0.87458604249E+02  0.41614807016E+01 -0.85601520480E+02  0.12252109242E+03  0.41800000000E+01 0. -1.
        -11    1    3    3    0    0 -0.15700023385E+02  0.17624558694E+02 -0.24597105674E+02  0.34090077896E+02  0.00000000000E+00 0. -1.
         11    1    3    3    0    0  0.67860503383E+02  0.15125729777E+02  0.33397659896E+02  0.77131312106E+02  0.00000000000E+00 0.  1.
</event>
<event>
 7    1  0.5831876E-006  0.8707178E+02  0.7561462E-02  0.1310102E+00
         -2   -1    0    0    0  501 -0.00000000000E+00  0.00000000000E+00  0.85994526126E+01  0.85994526126E+01  0.00000000000E+00 0.  1.
          2   -1    0    0  501    0  0.00000000000E+00 -0.00000000000E+00 -0.24513416891E+04  0.24513416891E+04  0.00000000000E+00 0. -1.
         23    2    1    2    0    0 -0.28480847183E+02 -0.27205300107E+02 -0.38026607571E+03  0.39329969618E+03  0.92363822319E+02 0.  0.
          5    1    1    2  502    0  0.46707705138E+02  0.29989523130E+02 -0.20115353242E+04  0.20123053481E+04  0.41800000000E+01 0. -1.
         -5    1    1    2    0  502 -0.18226857955E+02 -0.27842230231E+01 -0.50940836549E+02  0.54336097367E+02  0.41800000000E+01 0. -1.
        -11    1    3    3    0    0  0.80656390189E+01  0.30345615125E+02 -0.14466004553E+03  0.14802850963E+03  0.00000000000E+00 0.  1.
         11    1    3    3    0    0 -0.36546486202E+02 -0.57550915232E+02 -0.23560603018E+03  0.24527118656E+03  0.00000000000E+00 0. -1.
</event>
<event>
 7    1  0.5831876E-006  0.7176643E+02  0.7561462E-02  0.1354187E+00
          2   -1    0    0  501    0  0.00000000000E+00  0.00000000000E+00  0.97753548249E+03  0.97753548249E+03  0.00000000000E+00 0. -1.
         -2   -1    0    0    0  501 -0.00000000000E+00 -0.00000000000E+00 -0.19461898491E+02  0.19461898491E+02  0.00000000000E+00 0.  1.
         23    2    1    2    0    0 -0.30280848959E+02  0.56676057282E+02  0.23358849362E+03  0.25898969887E+03  0.91558584988E+02 0.  0.
          5    1    1    2  502    0  0.15468966616E+01  0.42269245719E+01  0.56248960880E+03  0.56252314814E+03  0.41800000000E+01 0.  1.
         -5    1    1    2    0  502  0.28733952297E+02 -0.60902981854E+02  0.16199548158E+03  0.17548453398E+03  0.41800000000E+01 0.  1.
        -11    1    3    3    0    0 -0.23949310794E+02  0.16112581031E+02  0.83616096564E+01  0.30051643400E+02  0.00000000000E+00 0.  1.
         11    1    3    3    0    0 -0.63315381649E+01  0.40563476251E+02  0.22522688397E+03  0.22893805547E+03  0.00000000000E+00 0. -1.
</event>
<event>
 7    1  0.5831876E-006  0.9326852E+02  0.7561462E-02  0.1295124E+00
          2   -1    0    0  501    0  0.00000000000E+00  0.00000000000E+00  0.68233127122E+03  0.68233127122E+03  0.00000000000E+00 0. -1.
         -2   -1    0    0    0  501 -0.00000000000E+00 -0.00000000000E+00 -0.33146519526E+02  0.33146519526E+02  0.00000000000E+00 0.  1.
         23    2    1    2    0    0 -0.38819961999E+02 -0.59229410829E+02  0.17318031411E+03  0.20613557960E+03  0.86517879241E+02 0.  0.
          5    1    1    2  502    0  0.28874728324E+01  0.30589946509E+02  0.45918809135E+03  0.46023391658E+03  0.41800000000E+01 0. -1.
         -5    1    1    2    0  502  0.35932489167E+02  0.28639464320E+02  0.16816346232E+02  0.49108294563E+02  0.41800000000E+01 0.  1.
        -11    1    3    3    0    0 -0.58655287811E+02 -0.14444158778E+02  0.74046467984E+02  0.95561267948E+02  0.00000000000E+00 0. -1.
         11    1    3    3    0    0  0.19835325812E+02 -0.44785252052E+02  0.99133846122E+02  0.11057431166E+03  0.00000000000E+00 0.  1.
</event>
<event>
 7    1  0.5831876E-006  0.1314513E+03  0.7561462E-02  0.1225318E+00
          1   -1    0    0  501    0  0.00000000000E+00  0.00000000000E+00  0.87032470408E+02  0.87032470408E+02  0.00000000000E+00 0. -1.
         -1   -1    0    0    0  501 -0.00000000000E+00 -0.00000000000E+00 -0.20109768925E+03  0.20109768925E+03  0.00000000000E+00 0.  1.
         23    2    1    2    0    0 -0.43224799790E+02 -0.59806233254E+02 -0.60118960543E+02  0.13319682093E+03  0.93176900772E+02 0.  0.
          5    1    1    2  502    0 -0.43950727201E+02  0.25638157923E+02 -0.13190268572E+02  0.52729850637E+02  0.41800000000E+01 0. -1.
         -5    1    1    2    0  502  0.87175526991E+02  0.34168075331E+02 -0.40755989723E+02  0.10220348808E+03  0.41800000000E+01 0. -1.
        -11    1    3    3    0    0  0.48297125343E+01 -0.69024176030E+02 -0.42433647252E+02  0.81168204482E+02  0.00000000000E+00 0.  1.
         11    1    3    3    0    0 -0.48054512324E+02  0.92179427759E+01 -0.17685313291E+02  0.52028616452E+02  0.00000000000E+00 0. -1.
</event>
<event>
 7    1  0.5831876E-006  0.1445117E+03  0.7561462E-02  0.1207384E+00
          1   -1    0    0  501    0  0.00000000000E+00  0.00000000000E+00  0.10567315224E+04  0.10567315224E+04  0.00000000000E+00 0. -1.
         -1   -1    0    0    0  501 -0.00000000000E+00 -0.00000000000E+00 -0.26708823360E+02  0.26708823360E+02  0.00000000000E+00 0.  1.
         23    2    1    2    0    0  0.11530619408E+03 -0.24991053538E+02  0.32382973719E+03  0.35661362791E+03  0.91583348752E+02 0.  0.
          5    1    1    2  502    0 -0.95358855516E+02 -0.25528767087E+02  0.59337473159E+03  0.60154473962E+03  0.41800000000E+01 0.  1.
         -5    1    1    2    0  502 -0.19947338567E+02  0.50519820625E+02  0.11281823027E+03  0.12528197825E+03  0.41800000000E+01 0.  1.
        -11    1    3    3    0    0  0.21812582714E+02 -0.35493733318E+02  0.17991379404E+03  0.18467421898E+03  0.00000000000E+00 0. -1.
         11    1    3    3    0    0  0.93493611369E+02  0.10502679780E+02  0.14391594315E+03  0.17193940893E+03  0.00000000000E+00 0.  1.
</event>
<event>
 7    1  0.5831876E-006  0.1240248E+03  0.7561462E-02  0.1236601E+00
          2   -1    0    0  501    0  0.00000000000E+00  0.00000000000E+00  0.56658662730E+02  0.56658662730E+02  0.00000000000E+00 0. -1.
         -2   -1    0    0    0  501 -0.00000000000E+00 -0.00000000000E+00 -0.38596424809E+03  0.38596424809E+03  0.00000000000E+00 0.  1.
         23    2    1    2    0    0  0.93294418458E+02 -0.32990418114E+02 -0.18593722187E+03  0.22816055664E+03  0.87706173810E+02 0.  0.
          5    1    1    2  502    0 -0.95728182362E+02  0.47669336738E+02 -0.15952824569E+03  0.19210149437E+03  0.41800000000E+01 0.  1.
         -5    1    1    2    0  502  0.24337639042E+01 -0.14678918624E+02  0.16159882208E+02  0.22360859816E+02  0.41800000000E+01 0.  1.
        -11    1    3    3    0    0  0.12096093855E+02  0.23654665997E+02 -0.14702563020E+02  0.30364849240E+02  0.00000000000E+00 0. -1.
         11    1    3    3    0    0  0.81198324603E+02 -0.56645084111E+02 -0.17123465885E+03  0.19779570740E+03  0.00000000000E+00 0.  1.
</event>
<event>
 7    1  0.5831876E-006  0.9615256E+02  0.7561462E-02  0.1288601E+00
          2   -1    0    0  501    0  0.00000000000E+00  0.00000000000E+00  0.48734323563E+03  0.48734323563E+03  0.00000000000E+00 0. -1.
         -2   -1    0    0    0  501 -0.00000000000E+00 -0.00000000000E+00 -0.19927712327E+03  0.19927712327E+03  0.00000000000E+00 0.  1.
         23    2    1    2    0    0 -0.33985311623E+02 -0.62995680836E+02 -0.17161959606E+03  0.20673636070E+03  0.90350317521E+02 0.  0.
          5    1    1    2  502    0  0.91202793301E+01 -0.21326940059E+01  0.34806020696E+03  0.34821129785E+03  0.41800000000E+01 0. -1.
         -5    1    1    2    0  502  0.24865032293E+02  0.65128374842E+02  0.11162550145E+03  0.13167270034E+03  0.41800000000E+01 0.  1.
        -11    1    3    3    0    0  0.11324574906E+02  0.16909909835E+02 -0.15439069205E+02  0.25545173817E+02  0.00000000000E+00 0. -1.
         11    1    3    3    0    0 -0.45309886529E+02 -0.79905590671E+02 -0.15618052685E+03  0.18119118689E+03  0.00000000000E+00 0.  1.
</event>
<event>
 7    1  0.5831876E-006  0.7848412E+02  0.7561462E-02  0.1333409E+00
         -2   -1    0    0    0  501 -0.00000000000E+00  0.00000000000E+00  0.11475070812E+03  0.11475070812E+03  0.00000000000E+00 0.  1.
          2   -1    0    0  501    0  0.00000000000E+00 -0.00000000000E+00 -0.20840431204E+03  0.20840431204E+03  0.00000000000E+00 0. -1.
         23    2    1    2    0    0  0.35562897103E+02  0.37341164287E+02  0.57631953910E+02  0.12019069374E+03  0.92006948372E+02 0.  0.
          5    1    1    2  502    0 -0.27497083573E+02 -0.31890229717E+02 -0.17337581280E+03  0.17846490193E+03  0.41800000000E+01 0.  1.
         -5    1    1    2    0  502 -0.80658135301E+01 -0.54509345692E+01  0.22090254977E+02  0.24499424493E+02  0.41800000000E+01 0.  1.
        -11    1    3    3    0    0  0.64004324750E+02  0.40028804861E+02  0.50244702490E+02  0.90682903205E+02  0.00000000000E+00 0.  1.
         11    1    3    3    0    0 -0.28441427648E+02 -0.26876405745E+01  0.73872514195E+01  0.29507790531E+02  0.00000000000E+00 0. -1.
</event>
<event>
 7    1  0.5831876E-006  0.9722773E+02  0.7561462E-02  0.1286236E+00
         -2   -1    0    0    0  501 -0.00000000000E+00  0.00000000000E+00  0.30763438967E+03  0.30763438967E+03  0.00000000000E+00 0.  1.
          2   -1    0    0  501    0  0.00000000000E+00 -0.00000000000E+00 -0.61486767174E+02  0.61486767174E+02  0.00000000000E+00 0. -1.
         23    2    1    2    0    0 -0.81417083947E+02  0.20568222799E+02  0.10021242733E+03  0.15936806268E+03  0.91125492942E+02 0.  0.
          5    1    1    2  502    0  0.72848618861E+02 -0.30255018543E+02  0.16696815495E+03  0.18471092167E+03  0.41800000000E+01 0. -1.
         -5    1    1    2    0  502  0.85684650860E+01  0.96867957436E+01 -0.21032959786E+02  0.25042172491E+02  0.41800000000E+01 0. -1.
        -11    1    3    3    0    0 -0.47975106895E+02 -0.17622025616E+02  0.48530832162E+01  0.51339060033E+02  0.00000000000E+00 0. -1.
         11    1    3    3    0    0 -0.33441977052E+02  0.38190248415E+02  0.95359344118E+02  0.10802900265E+03  0.00000000000E+00 0.  1.
</event>
<event>
 7    1  0.5831876E-006  0.1064590E+03  0.7561462E-02  0.1267271E+00
          2   -1    0    0  501    0  0.00000000000E+00  0.00000000000E+00  0.87519022468E+03  0.87519022468E+03  0.00000000000E+00 0. -1.
         -2   -1    0    0    0  501 -0.00000000000E+00 -0.00000000000E+00 -0.19398902504E+02  0.19398902504E+02  0.00000000000E+00 0.  1.
         23    2    1    2    0    0  0.24754086058E+02  0.48805799800E+02  0.22045967120E+03  0.24475309143E+03  0.91141857946E+02 0.  0.
          5    1    1    2  502    0 -0.66141601812E+02  0.22683883595E+01  0.39999825564E+03  0.40545768459E+03  0.41800000000E+01 0. -1.
         -5    1    1    2    0  502  0.41387515754E+02 -0.51074188160E+02  0.23533339534E+03  0.24437835117E+03  0.41800000000E+01 0. -1.
        -11    1    3    3    0    0 -0.72220115676E+01  0.48215277543E+02  0.44817312719E+02  0.66222820530E+02  0.00000000000E+00 0.  1.
         11    1    3    3    0    0  0.31976097626E+02  0.59052225682E+00  0.17564235848E+03  0.17853027090E+03  0.00000000000E+00 0. -1.
</event>
<event>
 7    1  0.7618310E-006  0.4982539E+03  0.7561462E-02  0.1014236E+00
          1   -1    0    0  501    0  0.00000000000E+00  0.00000000000E+00  0.86160745388E+03  0.86160745388E+03  0.00000000000E+00 0. -1.
         -1   -1    0    0    0  501 -0.00000000000E+00 -0.00000000000E+00 -0.34674790762E+03  0.34674790762E+03  0.00000000000E+00 0.  1.
         23    2    1    2    0    0 -0.32653019350E+03 -0.36226982309E+03  0.11133594048E+02  0.49614050810E+03  0.90388355846E+02 0.  0.
          5    1    1    2  502    0  0.23746281193E+03  0.17417940068E+03  0.31499613330E+03  0.43123901385E+03  0.41800000000E+01 0. -1.
         -5    1    1    2    0  502  0.89067381567E+02  0.18809042241E+03  0.18872981891E+03  0.28097583955E+03  0.41800000000E+01 0. -1.
        -11    1    3    3    0    0 -0.67139762325E+02 -0.12690774421E+03  0.24410440342E+02  0.14563376265E+03  0.00000000000E+00 0.  1.
         11    1    3    3    0    0 -0.25939043117E+03 -0.23536207888E+03 -0.13276846294E+02  0.35050674545E+03  0.00000000000E+00 0. -1.
</event>
<event>
 7    1  0.5831876E-006  0.1276402E+03  0.7561462E-02  0.1231000E+00
          2   -1    0    0  501    0  0.00000000000E+00  0.00000000000E+00  0.19210617347E+04  0.19210617347E+04  0.00000000000E+00 0. -1.
         -2   -1    0    0    0  501 -0.00000000000E+00 -0.00000000000E+00 -0.20426892729E+02  0.20426892729E+02  0.00000000000E+00 0.  1.
         23    2    1    2    0    0 -0.92213677598E+02  0.32859938958E+02  0.25734668896E+03  0.29054139846E+03  0.92756929543E+02 0.  0.
          5    1    1    2  502    0  0.53195050255E+02 -0.59111894764E+02  0.14419596521E+04  0.14441568613E+04  0.41800000000E+01 0.  1.
         -5    1    1    2    0  502  0.39018627343E+02  0.26251955806E+02  0.20132850100E+03  0.20679036771E+03  0.41800000000E+01 0.  1.
        -11    1    3    3    0    0 -0.22717623897E+02 -0.27999847243E+02  0.37239726997E+02  0.51835115009E+02  0.00000000000E+00 0.  1.
         11    1    3    3    0    0 -0.69496053701E+02  0.60859786201E+02  0.22010696196E+03  0.23870628345E+03  0.00000000000E+00 0. -1.
</event>
<event>
 7    1  0.5831876E-006  0.1477181E+03  0.7561462E-02  0.1203305E+00
         -2   -1    0    0    0  501 -0.00000000000E+00  0.00000000000E+00  0.12549869870E+03  0.12549869870E+03  0.00000000000E+00 0.  1.
          2   -1    0    0  501    0  0.00000000000E+00 -0.00000000000E+00 -0.21954751566E+03  0.21954751566E+03  0.00000000000E+00 0. -1.
         23    2    1    2    0    0 -0.69151579567E+02 -0.94228583123E+02  0.93427111878E+01  0.14505048696E+03  0.85389640366E+02 0.  0.
          5    1    1    2  502    0 -0.36645722140E+02  0.22047319502E+02 -0.28697918971E+02  0.51672393032E+02  0.41800000000E+01 0.  1.
         -5    1    1    2    0  502  0.10579730171E+03  0.72181263621E+02 -0.74693609180E+02  0.14832333437E+03  0.41800000000E+01 0.  1.
        -11    1    3    3    0    0 -0.33124723297E+02 -0.78130988779E+02 -0.29341090600E+02  0.89791972351E+02  0.00000000000E+00 0. -1.
         11    1    3    3    0    0 -0.36026856270E+02 -0.16097594344E+02  0.38683801787E+02  0.55258514612E+02  0.00000000000E+00 0.  1.
</event>
<event>
 7    1  0.5831876E-006  0.1158360E+03  0.7561462E-02  0.1250129E+00
         -2   -1    0    0    0  501 -0.00000000000E+00  0.00000000000E+00  0.10733910538E+02  0.10733910538E+02  0.00000000000E+00 0.  1.
          2   -1    0    0  501    0  0.00000000000E+00 -0.00000000000E+00 -0.13731938951E+04  0.13731938951E+04  0.00000000000E+00 0. -1.
         23    2    1    2    0    0 -0.45108856082E+02  0.33720804096E+02 -0.61410357771E+03  0.62309855421E+03  0.89200350782E+02 0.  0.
          5    1    1    2  502    0 -0.33819980201E+02  0.10517656824E+02 -0.99849566017E+02  0.10602745116E+03  0.41800000000E+01 0.  1.
         -5    1    1    2    0  502  0.78928836283E+02 -0.44238460920E+02 -0.64850684088E+03  0.65480180031E+03  0.41800000000E+01 0.  1.
        -11    1    3    3    0    0 -0.35211092087E+02  0.64289177363E+02 -0.43657796744E+03  0.44268865017E+03  0.00000000000E+00 0. -1.
         11    1    3    3    0    0 -0.98977639948E+01 -0.30568373266E+02 -0.17752561027E+03  0.18040990404E+03  0.00000000000E+00 0.  1.
</event>
<event>
 7    1  0.5831876E-006  0.6605534E+02  0.7561462E-02  0.1374045E+00
          2   -1    0    0  501    0  0.00000000000E+00  0.00000000000E+00  0.12493446550E+03  0.12493446550E+03  0.00000000000E+00 0.  1.
         -2   -1    0    0    0  501 -0.00000000000E+00 -0.00000000000E+00 -0.14286271263E+03  0.14286271263E+03  0.00000000000E+00 0. -1.
         23    2    1    2    0    0 -0.12610078025E+01  0.31527404434E+02 -0.78727684056E+02  0.12518052967E+03  0.92068178000E+02 0.  0.
          5    1    1    2  502    0  0.39289235349E+02 -0.15253408020E+02  0.84673160769E+02  0.94674848958E+02  0.41800000000E+01 0.  1.
         -5    1    1    2    0  502 -0.38028227546E+02 -0.16273996414E+02 -0.23873723844E+02  0.47941799505E+02  0.41800000000E+01 0.  1.
        -11    1    3    3    0    0 -0.17859321553E+02  0.84531815207E+01 -0.91794446673E+02  0.93896922656E+02  0.00000000000E+00 0. -1.
         11    1    3    3    0    0  0.16598313751E+02  0.23074222913E+02  0.13066762618E+02  0.31283607013E+02  0.00000000000E+00 0.  1.
</event>
<event>
 7    1  0.5831876E-006  0.1411721E+03  0.7561462E-02  0.1211760E+00
          1   -1    0    0  501    0  0.00000000000E+00  0.00000000000E+00  0.43047911317E+03  0.43047911317E+03  0.00000000000E+00 0. -1.
         -1   -1    0    0    0  501 -0.00000000000E+00 -0.00000000000E+00 -0.60806840308E+02  0.60806840308E+02  0.00000000000E+00 0.  1.
         23    2    1    2    0    0 -0.50112188103E+02 -0.10219259413E+03  0.11566627168E+03  0.18612769426E+03  0.91160706857E+02 0.  0.
          5    1    1    2  502    0  0.24287964380E+02  0.10767360688E+03  0.10047854562E+03  0.14932153683E+03  0.41800000000E+01 0.  1.
         -5    1    1    2    0  502  0.25824223723E+02 -0.54810127503E+01  0.15352745556E+03  0.15583672238E+03  0.41800000000E+01 0.  1.
        -11    1    3    3    0    0  0.17285330298E+02  0.54781150789E+01  0.89318328299E+01  0.20213115199E+02  0.00000000000E+00 0. -1.
         11    1    3    3    0    0 -0.67397518402E+02 -0.10767070921E+03  0.10673443885E+03  0.16591457906E+03  0.00000000000E+00 0.  1.
</event>
<event>
 7    1  0.5831876E-006  0.9046855E+02  0.7561462E-02  0.1301721E+00
         -1   -1    0    0    0  501 -0.00000000000E+00  0.00000000000E+00  0.88444298990E+02  0.88444298990E+02  0.00000000000E+00 0.  1.
          1   -1    0    0  501    0  0.00000000000E+00 -0.00000000000E+00 -0.13732211972E+03  0.13732211972E+03  0.00000000000E+00 0. -1.
         23    2    1    2    0    0 -0.87752593481E+00 -0.71558390698E+00 -0.13629835225E+02  0.95798195449E+02  0.94816874716E+02 0.  0.
          5    1    1    2  502    0 -0.44688445377E+02  0.41760604581E+02 -0.51392470322E+01  0.61521455650E+02  0.41800000000E+01 0.  1.
         -5    1    1    2    0  502  0.45565971312E+02 -0.41045020674E+02 -0.30108738469E+02  0.68446767607E+02  0.41800000000E+01 0.  1.
        -11    1    3    3    0    0  0.20008289987E+02  0.20321010759E+02 -0.44593194116E+02  0.52932297399E+02  0.00000000000E+00 0. -1.
         11    1    3    3    0    0 -0.20885815922E+02 -0.21036594666E+02  0.30963358890E+02  0.42865898050E+02  0.00000000000E+00 0.  1.
</event>
<event>
 7    1  0.5831876E-006  0.1313041E+03  0.7561462E-02  0.1225533E+00
          2   -1    0    0  501    0  0.00000000000E+00  0.00000000000E+00  0.24264536974E+03  0.24264536974E+03  0.00000000000E+00 0. -1.
         -2   -1    0    0    0  501 -0.00000000000E+00 -0.00000000000E+00 -0.13567246846E+03  0.13567246846E+03  0.00000000000E+00 0.  1.
         23    2    1    2    0    0 -0.10569190093E+03 -0.23473190056E+02 -0.50058088023E+02  0.15022125822E+03  0.91317280238E+02 0.  0.
          5    1    1    2  502    0  0.72221711627E+02  0.55024211194E+02  0.15757224084E+03  0.18190690732E+03  0.41800000000E+01 0.  1.
         -5    1    1    2    0  502  0.33470189306E+02 -0.31551021138E+02 -0.54125152903E+00  0.46189672658E+02  0.41800000000E+01 0.  1.
        -11    1    3    3    0    0 -0.50848587030E+02  0.20908435957E+02 -0.57164408733E+02  0.79312742500E+02  0.00000000000E+00 0. -1.
         11    1    3    3    0    0 -0.54843313903E+02 -0.44381626013E+02  0.71063207093E+01  0.70908515719E+02  0.00000000000E+00 0.  1.
</event>
<event>
 7    1  0.5831876E-006  0.2303824E+03  0.7561462E-02  0.1126371E+00
          2   -1    0    0  501    0  0.00000000000E+00  0.00000000000E+00  0.22957294070E+03  0.22957294070E+03  0.00000000000E+00 0. -1.
         -2   -1    0    0    0  501 -0.00000000000E+00 -0.00000000000E+00 -0.29030023050E+03  0.29030023050E+03  0.00000000000E+00 0.  1.
         23    2    1    2    0    0 -0.18418749007E+03 -0.13734568085E+03 -0.78212070930E+02  0.25768664188E+03  0.86581809975E+02 0.  0.
          5    1    1    2  502    0  0.13365522220E+03  0.10489348196E+03  0.68538639580E+02  0.18325222644E+03  0.41800000000E+01 0. -1.
         -5    1    1    2    0  502  0.50532267872E+02  0.32452198887E+02 -0.51053858441E+02  0.78934302876E+02  0.41800000000E+01 0. -1.
        -11    1    3    3    0    0 -0.88646268141E+02 -0.78459416363E+02 -0.84239979381E+02  0.14529423594E+03  0.00000000000E+00 0.  1.
         11    1    3    3    0    0 -0.95541221930E+02 -0.58886264489E+02  0.60279084510E+01  0.11239240594E+03  0.00000000000E+00 0. -1.
</event>
<event>
 7    1  0.5831876E-006  0.9132236E+02  0.7561462E-02  0.1299681E+00
          1   -1    0    0  501    0  0.00000000000E+00  0.00000000000E+00  0.45881219439E+03  0.45881219439E+03  0.00000000000E+00 0. -1.
         -1   -1    0    0    0  501 -0.00000000000E+00 -0.00000000000E+00 -0.57299887747E+02  0.57299887747E+02  0.00000000000E+00 0.  1.
         23    2    1    2    0    0  0.45615753414E+01  0.68666134686E+02  0.27496727107E+02  0.11577532289E+03  0.88949476483E+02 0.  0.
          5    1    1    2  502    0 -0.81522473217E+01 -0.23585424490E+02  0.18060024387E+01  0.25366620381E+02  0.41800000000E+01 0.  1.
         -5    1    1    2    0  502  0.35906719803E+01 -0.45080710196E+02  0.37220957710E+03  0.37497013886E+03  0.41800000000E+01 0.  1.
        -11    1    3    3    0    0  0.21131389694E+02 -0.15460524791E+02  0.11292453785E+02  0.28514609759E+02  0.00000000000E+00 0. -1.
         11    1    3    3    0    0 -0.16569814353E+02  0.84126659477E+02  0.16204273323E+02  0.87260713132E+02  0.00000000000E+00 0.  1.
</event>
<event>
 7    1  0.5831876E-006  0.7548093E+02  0.7561462E-02  0.1342388E+00
         -2   -1    0    0    0  501 -0.00000000000E+00  0.00000000000E+00  0.19027676706E+02  0.19027676706E+02  0.00000000000E+00 0.  1.
          2   -1    0    0  501    0  0.00000000000E+00 -0.00000000000E+00 -0.10501555508E+04  0.10501555508E+04  0.00000000000E+00 0. -1.
         23    2    1    2    0    0  0.15648383944E+02 -0.24040263527E+02 -0.11838197075E+03  0.14776603561E+03  0.83652280853E+02 0.  0.
          5    1    1    2  502    0 -0.46027877833E+02  0.53197821086E+02 -0.34655705180E+03  0.35364931254E+03  0.41800000000E+01 0. -1.
         -5    1    1    2    0  502  0.30379493888E+02 -0.29157557559E+02 -0.56618885152E+03  0.56776787933E+03  0.41800000000E+01 0.  1.
        -11    1    3    3    0    0  0.93234282539E+00 -0.23429543663E+02 -0.12802946268E+03  0.13015896471E+03  0.00000000000E+00 0. -1.
         11    1    3    3    0    0  0.14716041119E+02 -0.61071986390E+00  0.96474919384E+01  0.17607070900E+02  0.00000000000E+00 0.  1.
</event>
<event>
 7    1  0.5831876E-006  0.1248023E+03  0.7561462E-02  0.1235379E+00
         -1   -1    0    0    0  501 -0.00000000000E+00  0.00000000000E+00  0.47382379687E+02  0.47382379687E+02  0.00000000000E+00 0.  1.
          1   -1    0    0  501    0  0.00000000000E+00 -0.00000000000E+00 -0.42505882703E+03  0.42505882703E+03  0.00000000000E+00 0. -1.
         23    2    1    2    0    0 -0.89352919973E+02 -0.16420675750E+02 -0.18525685932E+03  0.22560982272E+03  0.91247494649E+02 0.  0.
          5    1    1    2  502    0  0.10630638291E+03  0.36416780676E+02 -0.99352185660E+02  0.15005185156E+03  0.41800000000E+01 0.  1.
         -5    1    1    2    0  502 -0.16953462933E+02 -0.19996104926E+02 -0.93067402359E+02  0.96779532441E+02  0.41800000000E+01 0.  1.
        -11    1    3    3    0    0 -0.74782598632E+02 -0.38534228160E+02 -0.17988996052E+03  0.19858932925E+03  0.00000000000E+00 0. -1.
         11    1    3    3    0    0 -0.14570321341E+02  0.22113552410E+02 -0.53668988043E+01  0.27020493462E+02  0.00000000000E+00 0.  1.
</event>
<event>
 7    1  0.9589546E-006  0.1294437E+03  0.7561462E-02  0.1228284E+00
         -2   -1    0    0    0  501 -0.00000000000E+00  0.00000000000E+00  0.15808045708E+03  0.15808045708E+03  0.00000000000E+00 0.  1.
          2   -1    0    0  501    0  0.00000000000E+00 -0.00000000000E+00 -0.13915391170E+03  0.13915391170E+03  0.00000000000E+00 0. -1.
         23    2    1    2    0    0 -0.49110919446E+02 -0.99852652071E+02  0.17123755499E+02  0.12980249981E+03  0.64599004782E+02 0.  0.
          5    1    1    2  502    0 -0.16220032106E+02  0.31128306379E+02 -0.48497819408E+02  0.60013096794E+02  0.41800000000E+01 0. -1.
         -5    1    1    2    0  502  0.65330951552E+02  0.68724345692E+02  0.50300609289E+02  0.10741877218E+03  0.41800000000E+01 0. -1.
        -11    1    3    3    0    0 -0.49211889584E+02 -0.27700042439E+02  0.91884502985E+01  0.57214771226E+02  0.00000000000E+00 0. -1.
         11    1    3    3    0    0  0.10097013769E+00 -0.72152609632E+02  0.79353052001E+01  0.72587728579E+02  0.00000000000E+00 0.  1.
</event>
<event>
 7    1  0.5831876E-006  0.9383968E+02  0.7561462E-02  0.1293811E+00
         -1   -1    0    0    0  501 -0.00000000000E+00  0.00000000000E+00  0.15281770814E+03  0.15281770814E+03  0.00000000000E+00 0.  1.
          1   -1    0    0  501    0  0.00000000000E+00 -0.00000000000E+00 -0.87629889338E+02  0.87629889338E+02  0.00000000000E+00 0. -1.
         23    2    1    2    0    0  0.34999248729E+02 -0.16674364722E+02  0.51324688528E+02  0.10876084280E+03  0.87702425415E+02 0.  0.
          5    1    1    2  502    0 -0.61660393079E+02 -0.17766654293E+02  0.44562562934E+02  0.78236516377E+02  0.41800000000E+01 0. -1.
         -5    1    1    2    0  502  0.26661144350E+02  0.34441019015E+02 -0.30699432660E+02  0.53450238301E+02  0.41800000000E+01 0. -1.
        -11    1    3    3    0    0  0.56353231468E+02 -0.14261406854E+02  0.57994440802E+01  0.58418387293E+02  0.00000000000E+00 0. -1.
         11    1    3    3    0    0 -0.21353982739E+02 -0.24129578674E+01  0.45525244447E+02  0.50342455507E+02  0.00000000000E+00 0.  1.
</event>
<event>
 7    1  0.5831876E-006  0.1288450E+03  0.7561462E-02  0.1229180E+00
         -2   -1    0    0    0  501 -0.00000000000E+00  0.00000000000E+00  0.19560252337E+02  0.19560252337E+02  0.00000000000E+00 0. -1.
          2   -1    0    0  501    0  0.00000000000E+00 -0.00000000000E+00 -0.96318931225E+03  0.96318931225E+03  0.00000000000E+00 0.  1.
         23    2    1    2    0    0 -0.21238200435E+02 -0.58423206608E+02 -0.30258350606E+03  0.32666163570E+03  0.10623894705E+03 0.  0.
          5    1    1    2  502    0 -0.25728290727E+02 -0.29298938452E+02 -0.21597330520E+03  0.21950470085E+03  0.41800000000E+01 0. -1.
         -5    1    1    2    0  502  0.46966491161E+02  0.87722145059E+02 -0.42507224865E+03  0.43658322804E+03  0.41800000000E+01 0. -1.
        -11    1    3    3    0    0 -0.61901489250E+02 -0.27193872083E+02 -0.12872897414E+03  0.14540443540E+03  0.00000000000E+00 0. -1.
         11    1    3    3    0    0  0.40663288815E+02 -0.31229334524E+02 -0.17385453191E+03  0.18125720030E+03  0.00000000000E+00 0.  1.
</event>
<event>
 7    1  0.5831876E-006  0.1248062E+03  0.7561462E-02  0.1235373E+00
          1   -1    0    0  501    0  0.00000000000E+00  0.00000000000E+00  0.64956743930E+03  0.64956743930E+03  0.00000000000E+00 0. -1.
         -1   -1    0    0    0  501 -0.00000000000E+00 -0.00000000000E+00 -0.38942026378E+02  0.38942026378E+02  0.00000000000E+00 0.  1.
         23    2    1    2    0    0 -0.50909148588E+02  0.59789252858E+02  0.94117795787E+02  0.15129815828E+03  0.88693162345E+02 0.  0.
          5    1    1    2  502    0  0.63969071255E+02  0.56450115046E+01  0.37769107711E+03  0.38313435028E+03  0.41800000000E+01 0.  1.
         -5    1    1    2    0  502 -0.13059922667E+02 -0.65434264363E+02  0.13881654002E+03  0.15407695713E+03  0.41800000000E+01 0.  1.
        -11    1    3    3    0    0  0.21844544157E+02  0.35536326654E+02  0.30915565493E+02  0.51920966972E+02  0.00000000000E+00 0. -1.
         11    1    3    3    0    0 -0.72753692745E+02  0.24252926204E+02  0.63202230295E+02  0.99377191305E+02  0.00000000000E+00 0.  1.
</event>
<event>
 7    1  0.5831876E-006  0.1330830E+03  0.7561462E-02  0.1222951E+00
         -3   -1    0    0    0  501 -0.00000000000E+00  0.00000000000E+00  0.64324769909E+02  0.64324769909E+02  0.00000000000E+00 0.  1.
          3   -1    0    0  501    0  0.00000000000E+00 -0.00000000000E+00 -0.34180607936E+03  0.34180607936E+03  0.00000000000E+00 0. -1.
         23    2    1    2    0    0  0.12883566291E+02  0.93804333074E+02 -0.86757222790E+02  0.15918634578E+03  0.94065072112E+02 0.  0.
          5    1    1    2  502    0  0.39667098553E+02 -0.67107040614E+02 -0.16492253294E+03  0.18246574440E+03  0.41800000000E+01 0. -1.
         -5    1    1    2    0  502 -0.52550664844E+02 -0.26697292460E+02 -0.25801553726E+02  0.64478759099E+02  0.41800000000E+01 0. -1.
        -11    1    3    3    0    0 -0.25555243764E+02 -0.21459647562E+01 -0.35547969497E+02  0.43833021615E+02  0.00000000000E+00 0.  1.
         11    1    3    3    0    0  0.38438810055E+02  0.95950297831E+02 -0.51209253293E+02  0.11535332416E+03  0.00000000000E+00 0. -1.
</event>
<event>
 7    1  0.5831876E-006  0.1217296E+03  0.7561462E-02  0.1240271E+00
         -4   -1    0    0    0  501 -0.00000000000E+00  0.00000000000E+00  0.21095206597E+02  0.21095206597E+02  0.00000000000E+00 0.  1.
          4   -1    0    0  501    0  0.00000000000E+00 -0.00000000000E+00 -0.99628289606E+03  0.99628289606E+03  0.00000000000E+00 0. -1.
         23    2    1    2    0    0  0.72949259925E+01 -0.83458332839E+02 -0.27932879659E+03  0.30541913829E+03  0.90762129576E+02 0.  0.
          5    1    1    2  502    0  0.17777330728E+02 -0.11854289866E+02 -0.38955543744E+03  0.39016338746E+03  0.41800000000E+01 0. -1.
         -5    1    1    2    0  502 -0.25072256721E+02  0.95312622705E+02 -0.30630345543E+03  0.32179557690E+03  0.41800000000E+01 0. -1.
        -11    1    3    3    0    0  0.45539374977E+02 -0.21802826599E+02 -0.10167429090E+03  0.11352030370E+03  0.00000000000E+00 0.  1.
         11    1    3    3    0    0 -0.38244448984E+02 -0.61655506240E+02 -0.17765450569E+03  0.19189883459E+03  0.00000000000E+00 0. -1.
</event>
<event>
 7    1  0.5831876E-006  0.1416735E+03  0.7561462E-02  0.1211095E+00
         -3   -1    0    0    0  501 -0.00000000000E+00  0.00000000000E+00  0.29536710329E+03  0.29536710329E+03  0.00000000000E+00 0.  1.
          3   -1    0    0  501    0  0.00000000000E+00 -0.00000000000E+00 -0.85781565195E+02  0.85781565195E+02  0.00000000000E+00 0. -1.
         23    2    1    2    0    0  0.84949623299E+02 -0.61931745168E+02  0.15896163199E+03  0.21008546928E+03  0.88403192243E+02 0.  0.
          5    1    1    2  502    0 -0.70183449132E+02  0.91504447251E+02  0.67528522487E+02  0.13370248370E+03  0.41800000000E+01 0. -1.
         -5    1    1    2    0  502 -0.14766174167E+02 -0.29572702083E+02 -0.16904616382E+02  0.37360715505E+02  0.41800000000E+01 0. -1.
        -11    1    3    3    0    0  0.53436590921E+02 -0.81560747538E+02  0.13242392108E+03  0.16444974813E+03  0.00000000000E+00 0.  1.
         11    1    3    3    0    0  0.31513032379E+02  0.19629002370E+02  0.26537710910E+02  0.45635721141E+02  0.00000000000E+00 0. -1.
</event>
<event>
 7    1  0.5831876E-006  0.2793997E+03  0.7561462E-02  0.1096017E+00
         -2   -1    0    0    0  501 -0.00000000000E+00  0.00000000000E+00  0.55452160113E+02  0.55452160113E+02  0.00000000000E+00 0. -1.
          2   -1    0    0  501    0  0.00000000000E+00 -0.00000000000E+00 -0.16636500505E+04  0.16636500505E+04  0.00000000000E+00 0.  1.
         23    2    1    2    0    0 -0.17682436669E+03  0.21386750221E+03 -0.62701919359E+03  0.69179276724E+03  0.91749651371E+02 0.  0.
          5    1    1    2  502    0  0.14334989015E+03 -0.16234192748E+03 -0.53956965046E+03  0.58142666994E+03  0.41800000000E+01 0.  1.
         -5    1    1    2    0  502  0.33474476540E+02 -0.51525574732E+02 -0.44160904634E+03  0.44588277343E+03  0.41800000000E+01 0.  1.
        -11    1    3    3    0    0 -0.15343340238E+03  0.20388151672E+03 -0.49025549085E+03  0.55268429337E+03  0.00000000000E+00 0. -1.
         11    1    3    3    0    0 -0.23390964307E+02  0.99859854870E+01 -0.13676370274E+03  0.13910847387E+03  0.00000000000E+00 0.  1.
</event>
<event>
 7    1  0.5831876E-006  0.1218101E+03  0.7561462E-02  0.1240141E+00
          1   -1    0    0  501    0  0.00000000000E+00  0.00000000000E+00  0.22168765952E+03  0.22168765952E+03  0.00000000000E+00 0. -1.
         -1   -1    0    0    0  501 -0.00000000000E+00 -0.00000000000E+00 -0.90389682471E+02  0.90389682471E+02  0.00000000000E+00 0.  1.
         23    2    1    2    0    0  0.43467897858E+02  0.74845880694E+02  0.36981236268E+02  0.13308051155E+03  0.94082127520E+02 0.  0.
          5    1    1    2  502    0  0.97897458169E+00  0.28414641191E+02 -0.47135297742E+01  0.29121126149E+02  0.41800000000E+01 0. -1.
         -5    1    1    2    0  502 -0.44446872439E+02 -0.10326052188E+03  0.99030270552E+02  0.14987570429E+03  0.41800000000E+01 0. -1.
        -11    1    3    3    0    0  0.36255820014E+02  0.83552463705E+02  0.58866837710E+02  0.10844723721E+03  0.00000000000E+00 0. -1.
         11    1    3    3    0    0  0.72120778438E+01 -0.87065830116E+01 -0.21885601441E+02  0.24633274346E+02  0.00000000000E+00 0.  1.
</event>
<event>
 7    1  0.5831876E-006  0.1507908E+03  0.7561462E-02  0.1199505E+00
          1   -1    0    0  501    0  0.00000000000E+00  0.00000000000E+00  0.62734458166E+03  0.62734458166E+03  0.00000000000E+00 0. -1.
         -1   -1    0    0    0  501 -0.00000000000E+00 -0.00000000000E+00 -0.69144834290E+02  0.69144834290E+02  0.00000000000E+00 0.  1.
         23    2    1    2    0    0 -0.12551443158E+02  0.77084414016E+02  0.73994772907E+02  0.14857796726E+03  0.10247263209E+03 0.  0.
          5    1    1    2  502    0 -0.37266262237E+02 -0.12550478831E+03  0.45314626364E+03  0.47169824553E+03  0.41800000000E+01 0. -1.
         -5    1    1    2    0  502  0.49817705395E+02  0.48420374289E+02  0.31058710823E+02  0.76213203155E+02  0.41800000000E+01 0.  1.
        -11    1    3    3    0    0 -0.29626263376E+02  0.78459504216E+02  0.12562745005E+02  0.84802310379E+02  0.00000000000E+00 0.  1.
         11    1    3    3    0    0  0.17074820218E+02 -0.13750902002E+01  0.61432027902E+02  0.63775656882E+02  0.00000000000E+00 0. -1.
</event>
<event>
 7    1  0.5831876E-006  0.7602484E+02  0.7561462E-02  0.1340726E+00
         -2   -1    0    0    0  501 -0.00000000000E+00  0.00000000000E+00  0.30845062426E+03  0.30845062426E+03  0.00000000000E+00 0.  1.
          2   -1    0    0  501    0  0.00000000000E+00 -0.00000000000E+00 -0.43297233730E+02  0.43297233730E+02  0.00000000000E+00 0. -1.
         23    2    1    2    0    0  0.24418023736E+02  0.10098014257E+02  0.16034537814E+03  0.18643103761E+03  0.91365648467E+02 0.  0.
          5    1    1    2  502    0 -0.63719750554E+02 -0.46256324835E+01  0.10771994742E+03  0.12531026518E+03  0.41800000000E+01 0.  1.
         -5    1    1    2    0  502  0.39301726818E+02 -0.54723817735E+01 -0.29119350318E+01  0.40006555197E+02  0.41800000000E+01 0.  1.
        -11    1    3    3    0    0  0.99047708159E+01 -0.15677730267E+02 -0.43932285359E+01  0.19057706268E+02  0.00000000000E+00 0. -1.
         11    1    3    3    0    0  0.14513252920E+02  0.25775744524E+02  0.16473860668E+03  0.16737333135E+03  0.00000000000E+00 0.  1.
</event>
<event>
 7    1  0.5831876E-006  0.9934721E+02  0.7561462E-02  0.1281675E+00
          1   -1    0    0  501    0  0.00000000000E+00  0.00000000000E+00  0.13688637371E+03  0.13688637371E+03  0.00000000000E+00 0. -1.
         -1   -1    0    0    0  501 -0.00000000000E+00 -0.00000000000E+00 -0.97039144090E+02  0.97039144090E+02  0.00000000000E+00 0.  1.
         23    2    1    2    0    0 -0.28104403972E+01  0.32360310346E+02 -0.61281652706E+01  0.96751075146E+02  0.90929246513E+02 0.  0.
          5    1    1    2  502    0 -0.52933057190E+02 -0.12199738346E+02  0.54594423813E+02  0.77128241719E+02  0.41800000000E+01 0.  1.
         -5    1    1    2    0  502  0.55743497587E+02 -0.20160572000E+02 -0.86190289264E+01  0.60046200931E+02  0.41800000000E+01 0.  1.
        -11    1    3    3    0    0  0.37726311406E+02  0.13383122793E+02 -0.26049115004E+02  0.47759176505E+02  0.00000000000E+00 0.  1.
         11    1    3    3    0    0 -0.40536751803E+02  0.18977187553E+02  0.19920949734E+02  0.48991898641E+02  0.00000000000E+00 0. -1.
</event>
<event>
 7    1  0.5831876E-006  0.1047454E+03  0.7561462E-02  0.1270622E+00
         -1   -1    0    0    0  501 -0.00000000000E+00  0.00000000000E+00  0.14495853798E+02  0.14495853798E+02  0.00000000000E+00 0.  1.
          1   -1    0    0  501    0  0.00000000000E+00 -0.00000000000E+00 -0.11041660898E+04  0.11041660898E+04  0.00000000000E+00 0. -1.
         23    2    1    2    0    0 -0.28371440730E+01  0.20024758483E+02 -0.21469547527E+03  0.23455934310E+03  0.92276204909E+02 0.  0.
          5    1    1    2  502    0 -0.54367011401E+02 -0.29440871347E+02 -0.30909248747E+03  0.31524304123E+03  0.41800000000E+01 0.  1.
         -5    1    1    2    0  502  0.57204155474E+02  0.94161128648E+01 -0.56588227323E+03  0.56885955924E+03  0.41800000000E+01 0.  1.
        -11    1    3    3    0    0  0.40814543414E+02  0.20652892586E+02 -0.14747956756E+03  0.15441046523E+03  0.00000000000E+00 0. -1.
         11    1    3    3    0    0 -0.43651687487E+02 -0.62813410344E+00 -0.67215907714E+02  0.80148877863E+02  0.00000000000E+00 0.  1.
</event>
<event>
 7    1  0.5831876E-006  0.1001743E+03  0.7561462E-02  0.1279930E+00
          2   -1    0    0  501    0  0.00000000000E+00  0.00000000000E+00  0.39306492567E+03  0.39306492567E+03  0.00000000000E+00 0. -1.
         -2   -1    0    0    0  501 -0.00000000000E+00 -0.00000000000E+00 -0.38361992072E+02  0.38361992072E+02  0.00000000000E+00 0.  1.
         23    2    1    2    0    0 -0.27694649145E+02  0.20500477488E+01  0.64721369981E+02  0.11439651601E+03  0.90147162217E+02 0.  0.
          5    1    1    2  502    0  0.65296960930E+02  0.35361299616E+02  0.18336850281E+03  0.19787772700E+03  0.41800000000E+01 0.  1.
         -5    1    1    2    0  502 -0.37602311785E+02 -0.37411347364E+02  0.10661306081E+03  0.11915267474E+03  0.41800000000E+01 0.  1.
        -11    1    3    3    0    0 -0.44156343748E+02 -0.17244277853E+02  0.28051110148E+01  0.47487013590E+02  0.00000000000E+00 0.  1.
         11    1    3    3    0    0  0.16461694603E+02  0.19294325602E+02  0.61916258966E+02  0.66909502420E+02  0.00000000000E+00 0. -1.
</event>
<event>
 7    1  0.5831876E-006  0.1658054E+03  0.7561462E-02  0.1182294E+00
         -2   -1    0    0    0  501 -0.00000000000E+00  0.00000000000E+00  0.63283409583E+02  0.63283409583E+02  0.00000000000E+00 0. -1.
          2   -1    0    0  501    0  0.00000000000E+00 -0.00000000000E+00 -0.59085904143E+03  0.59085904143E+03  0.00000000000E+00 0.  1.
         23    2    1    2    0    0 -0.13734230754E+03 -0.26632069965E+02 -0.12037163558E+03  0.20577033448E+03  0.90994083921E+02 0.  0.
          5    1    1    2  502    0 -0.13665832483E+02  0.30021513470E+02 -0.45323525704E+02  0.56211570257E+02  0.41800000000E+01 0. -1.
         -5    1    1    2    0  502  0.15100814002E+03 -0.33894435054E+01 -0.36188047056E+03  0.39216054627E+03  0.41800000000E+01 0. -1.
        -11    1    3    3    0    0 -0.10416469322E+03  0.86208383666E+00 -0.12467698329E+03  0.16246654014E+03  0.00000000000E+00 0.  1.
         11    1    3    3    0    0 -0.33177614321E+02 -0.27494153802E+02  0.43053477134E+01  0.43303794340E+02  0.00000000000E+00 0. -1.
</event>
<event>
 7    1  0.5831876E-006  0.1366586E+03  0.7561462E-02  0.1217897E+00
         -2   -1    0    0    0  501 -0.00000000000E+00  0.00000000000E+00  0.24470064681E+03  0.24470064681E+03  0.00000000000E+00 0.  1.
          2   -1    0    0  501    0  0.00000000000E+00 -0.00000000000E+00 -0.12775106809E+03  0.12775106809E+03  0.00000000000E+00 0. -1.
         23    2    1    2    0    0  0.68343088495E+01  0.11772401353E+03  0.13302714009E+03  0.19979245414E+03  0.91187464010E+02 0.  0.
          5    1    1    2  502    0  0.25835221100E+02 -0.29543751718E+01 -0.42845932954E+02  0.50293472267E+02  0.41800000000E+01 0.  1.
         -5    1    1    2    0  502 -0.32669529950E+02 -0.11476963836E+03  0.26768371580E+02  0.12236578849E+03  0.41800000000E+01 0.  1.
        -11    1    3    3    0    0  0.23855608324E+02  0.30566187674E+02 -0.12645710443E+01  0.38794084824E+02  0.00000000000E+00 0. -1.
         11    1    3    3    0    0 -0.17021299474E+02  0.87157825858E+02  0.13429171113E+03  0.16099836932E+03  0.00000000000E+00 0.  1.
</event>
<event>
 7    1  0.5831876E-006  0.1410824E+03  0.7561462E-02  0.1211880E+00
         -1   -1    0    0    0  501 -0.00000000000E+00  0.00000000000E+00  0.18559300946E+03  0.18559300946E+03  0.00000000000E+00 0.  1.
          1   -1    0    0  501    0  0.00000000000E+00 -0.00000000000E+00 -0.12949828508E+03  0.12949828508E+03  0.00000000000E+00 0. -1.
         23    2    1    2    0    0 -0.85958709969E+02 -0.63475661887E+02  0.59075202246E+02  0.15284429598E+03  0.91942589813E+02 0.  0.
          5    1    1    2  502    0  0.98452140152E+02  0.75099315039E+02 -0.32326560420E+02  0.12804378130E+03  0.41800000000E+01 0. -1.
         -5    1    1    2    0  502 -0.12493430183E+02 -0.11623653152E+02  0.29346082549E+02  0.34203217265E+02  0.41800000000E+01 0.  1.
        -11    1    3    3    0    0 -0.85052185321E+02 -0.82328945334E+01  0.40440455858E+02  0.94536158428E+02  0.00000000000E+00 0.  1.
         11    1    3    3    0    0 -0.90652464854E+00 -0.55242767354E+02  0.18634746387E+02  0.58308137552E+02  0.00000000000E+00 0. -1.
</event>
<event>
 7    1  0.5831876E-006  0.9204728E+02  0.7561462E-02  0.1297968E+00
          2   -1    0    0  501    0  0.00000000000E+00  0.00000000000E+00  0.22476488162E+03  0.22476488162E+03  0.00000000000E+00 0. -1.
         -2   -1    0    0    0  501 -0.00000000000E+00 -0.00000000000E+00 -0.73876248751E+02  0.73876248751E+02  0.00000000000E+00 0.  1.
         23    2    1    2    0    0  0.55040145696E+02  0.30389140324E+01  0.17310529521E+02  0.10751446370E+03  0.90670021702E+02 0.  0.
          5    1    1    2  502    0 -0.69032256845E+02 -0.13724079251E+02  0.15059746417E+03  0.16628551185E+03  0.41800000000E+01 0.  1.
         -5    1    1    2    0  502  0.13992111150E+02  0.10685165219E+02 -0.17019360822E+02  0.24841154823E+02  0.41800000000E+01 0.  1.
        -11    1    3    3    0    0 -0.15152075938E+02 -0.16727853951E+02 -0.15674418834E+02  0.27478972120E+02  0.00000000000E+00 0.  1.
         11    1    3    3    0    0  0.70192221633E+02  0.19766767983E+02  0.32984948355E+02  0.80035491579E+02  0.00000000000E+00 0. -1.
</event>
<event>
 7    1  0.5831876E-006  0.6224140E+02  0.7561462E-02  0.1388659E+00
          1   -1    0    0  501    0  0.00000000000E+00  0.00000000000E+00  0.26216136950E+03  0.26216136950E+03  0.00000000000E+00 0. -1.
         -1   -1    0    0    0  501 -0.00000000000E+00 -0.00000000000E+00 -0.80856558185E+02  0.80856558185E+02  0.00000000000E+00 0.  1.
         23    2    1    2    0    0 -0.66596711134E+01 -0.13326307715E+02 -0.30615560214E+02  0.96481434750E+02  0.90274099428E+02 0.  0.
          5    1    1    2  502    0 -0.29405386433E+02  0.31627608616E+02  0.19929490011E+03  0.20396301622E+03  0.41800000000E+01 0.  1.
         -5    1    1    2    0  502  0.36065057546E+02 -0.18301300902E+02  0.12625471418E+02  0.42573476708E+02  0.41800000000E+01 0.  1.
        -11    1    3    3    0    0 -0.22357206790E+02 -0.94217083548E+01 -0.59009935476E+02  0.63802709729E+02  0.00000000000E+00 0.  1.
         11    1    3    3    0    0  0.15697535677E+02 -0.39045993599E+01  0.28394375262E+02  0.32678725021E+02  0.00000000000E+00 0. -1.
</event>
<event>
 7    1  0.5831876E-006  0.2488791E+03  0.7561462E-02  0.1114015E+00
          3   -1    0    0  501    0  0.00000000000E+00  0.00000000000E+00  0.22190830384E+03  0.22190830384E+03  0.00000000000E+00 0. -1.
         -3   -1    0    0    0  501 -0.00000000000E+00 -0.00000000000E+00 -0.29824660198E+03  0.29824660198E+03  0.00000000000E+00 0.  1.
         23    2    1    2    0    0 -0.22940541312E+03 -0.20114534725E+02 -0.78169934671E+02  0.25807911828E+03  0.86387814726E+02 0.  0.
          5    1    1    2  502    0  0.18255633394E+03  0.65097670539E+02  0.18934252053E+02  0.19478321302E+03  0.41800000000E+01 0.  1.
         -5    1    1    2    0  502  0.46849079173E+02 -0.44983135814E+02 -0.17102615524E+02  0.67292574515E+02  0.41800000000E+01 0.  1.
        -11    1    3    3    0    0 -0.84648413799E+02 -0.38318386157E+02 -0.76603100436E+00  0.92920608478E+02  0.00000000000E+00 0. -1.
         11    1    3    3    0    0 -0.14475699932E+03  0.18203851433E+02 -0.77403903667E+02  0.16515850981E+03  0.00000000000E+00 0.  1.
</event>
<event>
 7    1  0.5831876E-006  0.1006522E+03  0.7561462E-02  0.1278930E+00
          2   -1    0    0  501    0  0.00000000000E+00  0.00000000000E+00  0.58496312653E+03  0.58496312653E+03  0.00000000000E+00 0.  1.
         -2   -1    0    0    0  501 -0.00000000000E+00 -0.00000000000E+00 -0.26129952954E+02  0.26129952954E+02  0.00000000000E+00 0. -1.
         23    2    1    2    0    0 -0.49640321378E+02 -0.28359962382E+02  0.20821752899E+03  0.23447404789E+03  0.91406185693E+02 0.  0.
          5    1    1    2  502    0 -0.45343031402E+01  0.40627674204E+02  0.29197240502E+02  0.50409513677E+02  0.41800000000E+01 0. -1.
         -5    1    1    2    0  502  0.54174624519E+02 -0.12267711821E+02  0.32141840408E+03  0.32620951791E+03  0.41800000000E+01 0. -1.
        -11    1    3    3    0    0  0.17187601820E+02 -0.33324662353E+02  0.48777311826E+02  0.61523759039E+02  0.00000000000E+00 0. -1.
         11    1    3    3    0    0 -0.66827923199E+02  0.49646999709E+01  0.15944021717E+03  0.17295028885E+03  0.00000000000E+00 0.  1.
</event>
<event>
 7    1  0.5831876E-006  0.9976966E+02  0.7561462E-02  0.1280781E+00
          1   -1    0    0  501    0  0.00000000000E+00  0.00000000000E+00  0.40458923902E+02  0.40458923902E+02  0.00000000000E+00 0. -1.
         -1   -1    0    0    0  501 -0.00000000000E+00 -0.00000000000E+00 -0.32088702679E+03  0.32088702679E+03  0.00000000000E+00 0.  1.
         23    2    1    2    0    0 -0.22163212280E+02 -0.30789406497E+02 -0.15130467328E+03  0.17760685636E+03  0.84922881119E+02 0.  0.
          5    1    1    2  502    0  0.56399912745E+02  0.61064128147E+02 -0.69066999662E+02  0.10815498484E+03  0.41800000000E+01 0. -1.
         -5    1    1    2    0  502 -0.34236700465E+02 -0.30274721651E+02 -0.60056429942E+02  0.75584109488E+02  0.41800000000E+01 0. -1.
        -11    1    3    3    0    0 -0.42726428476E+02 -0.21926649740E+02 -0.14720776239E+03  0.15484331102E+03  0.00000000000E+00 0.  1.
         11    1    3    3    0    0  0.20563216196E+02 -0.88627567568E+01 -0.40969108925E+01  0.22763545341E+02  0.00000000000E+00 0. -1.
</event>
<event>
 7    1  0.5831876E-006  0.1718013E+03  0.7561462E-02  0.1175982E+00
         -2   -1    0    0    0  501 -0.00000000000E+00  0.00000000000E+00  0.93514430101E+02  0.93514430101E+02  0.00000000000E+00 0.  1.
          2   -1    0    0  501    0  0.00000000000E+00 -0.00000000000E+00 -0.50295751668E+03  0.50295751668E+03  0.00000000000E+00 0. -1.
         23    2    1    2    0    0  0.12999636011E+03 -0.73192220286E+02 -0.38932960654E+02  0.17790599677E+03  0.88761554228E+02 0.  0.
          5    1    1    2  502    0  0.19411338585E+02 -0.85546645112E+00 -0.12168200472E+02  0.23303849279E+02  0.41800000000E+01 0. -1.
         -5    1    1    2    0  502 -0.14940769869E+03  0.74047686737E+02 -0.35834192546E+03  0.39526210074E+03  0.41800000000E+01 0. -1.
        -11    1    3    3    0    0  0.40791172890E+02 -0.50428918418E+02  0.20855352012E+02  0.68131793651E+02  0.00000000000E+00 0.  1.
         11    1    3    3    0    0  0.89205187217E+02 -0.22763301868E+02 -0.59788312666E+02  0.10977420312E+03  0.00000000000E+00 0. -1.
</event>
<event>
 7    1  0.5831876E-006  0.9833509E+02  0.7561462E-02  0.1283836E+00
         -2   -1    0    0    0  501 -0.00000000000E+00  0.00000000000E+00  0.95900695674E+02  0.95900695674E+02  0.00000000000E+00 0.  1.
          2   -1    0    0  501    0  0.00000000000E+00 -0.00000000000E+00 -0.23245666929E+03  0.23245666929E+03  0.00000000000E+00 0. -1.
         23    2    1    2    0    0  0.53926905260E+02  0.37548168521E+01  0.30645260937E+02  0.11266564844E+03  0.93979819958E+02 0.  0.
          5    1    1    2  502    0 -0.47947525246E+02 -0.55943801970E+02 -0.13522699138E+03  0.15405351588E+03  0.41800000000E+01 0.  1.
         -5    1    1    2    0  502 -0.59793800142E+01  0.52188985118E+02 -0.31974243170E+02  0.61638200649E+02  0.41800000000E+01 0.  1.
        -11    1    3    3    0    0 -0.16713994578E+01  0.13608701752E+02 -0.28048926972E+02  0.31220708573E+02  0.00000000000E+00 0. -1.
         11    1    3    3    0    0  0.55598304718E+02 -0.98538848998E+01  0.58694187909E+02  0.81444939864E+02  0.00000000000E+00 0.  1.
</event>
<event>
 7    1  0.5831876E-006  0.2310585E+03  0.7561462E-02  0.1125897E+00
          2   -1    0    0  501    0  0.00000000000E+00  0.00000000000E+00  0.44048469223E+03  0.44048469223E+03  0.00000000000E+00 0. -1.
         -2   -1    0    0    0  501 -0.00000000000E+00 -0.00000000000E+00 -0.15285968985E+03  0.15285968985E+03  0.00000000000E+00 0.  1.
         23    2    1    2    0    0  0.15979447748E+03  0.14110721508E+03  0.25849205999E+02  0.23332310378E+03  0.91246743087E+02 0.  0.
          5    1    1    2  502    0 -0.99775944664E+02 -0.14554359950E+03  0.14440233740E+03  0.22805193693E+03  0.41800000000E+01 0.  1.
         -5    1    1    2    0  502 -0.60018532819E+02  0.44363844170E+01  0.11737345898E+03  0.13196934137E+03  0.41800000000E+01 0.  1.
        -11    1    3    3    0    0  0.11756210662E+03  0.14029535216E+03 -0.14199394936E+01  0.18304548882E+03  0.00000000000E+00 0.  1.
         11    1    3    3    0    0  0.42232370859E+02  0.81186292699E+00  0.27269145493E+02  0.50277614956E+02  0.00000000000E+00 0. -1.
</event>
<event>
 7    1  0.5831876E-006  0.8467897E+02  0.7561462E-02  0.1316274E+00
          1   -1    0    0  501    0  0.00000000000E+00  0.00000000000E+00  0.59889669617E+02  0.59889669617E+02  0.00000000000E+00 0. -1.
         -1   -1    0    0    0  501 -0.00000000000E+00 -0.00000000000E+00 -0.38909795064E+03  0.38909795064E+03  0.00000000000E+00 0.  1.
         23    2    1    2    0    0 -0.46807363746E+02 -0.37317870661E+02 -0.28605763701E+03  0.30375381025E+03  0.82787998989E+02 0.  0.
          5    1    1    2  502    0  0.34042409748E+02  0.48788575527E+01  0.41222790184E+02  0.53846817390E+02  0.41800000000E+01 0. -1.
         -5    1    1    2    0  502  0.12764953997E+02  0.32439013108E+02 -0.84373434190E+02  0.91386992614E+02  0.41800000000E+01 0. -1.
        -11    1    3    3    0    0  0.89571061654E+01 -0.42655085225E+02 -0.92529130616E+02  0.10228062406E+03  0.00000000000E+00 0.  1.
         11    1    3    3    0    0 -0.55764469911E+02  0.53372145641E+01 -0.19352850640E+03  0.20147318619E+03  0.00000000000E+00 0. -1.
</event>
<event>
 7    1  0.5831876E-006  0.1052101E+03  0.7561462E-02  0.1269706E+00
          1   -1    0    0  501    0  0.00000000000E+00  0.00000000000E+00  0.46775171976E+02  0.46775171976E+02  0.00000000000E+00 0. -1.
         -1   -1    0    0    0  501 -0.00000000000E+00 -0.00000000000E+00 -0.30968820100E+03  0.30968820100E+03  0.00000000000E+00 0.  1.
         23    2    1    2    0    0  0.30226988353E+02  0.42093066060E+02 -0.13134170950E+03  0.16766474136E+03  0.90417497228E+02 0.  0.
          5    1    1    2  502    0 -0.63384846611E+02 -0.39267238970E+02 -0.27707551339E+02  0.79653848855E+02  0.41800000000E+01 0.  1.
         -5    1    1    2    0  502  0.33157858257E+02 -0.28258270902E+01 -0.10386376819E+03  0.10914478276E+03  0.41800000000E+01 0.  1.
        -11    1    3    3    0    0  0.42819852162E+02 -0.13736272449E+02 -0.41804679633E+02  0.61399154385E+02  0.00000000000E+00 0.  1.
         11    1    3    3    0    0 -0.12592863808E+02  0.55829338509E+02 -0.89537029871E+02  0.10626558698E+03  0.00000000000E+00 0. -1.
</event>
<event>
 7    1  0.5831876E-006  0.1005888E+03  0.7561462E-02  0.1279063E+00
          2   -1    0    0  501    0  0.00000000000E+00  0.00000000000E+00  0.93251498754E+03  0.93251498754E+03  0.00000000000E+00 0.  1.
         -2   -1    0    0    0  501 -0.00000000000E+00 -0.00000000000E+00 -0.13051403837E+02  0.13051403837E+02  0.00000000000E+00 0. -1.
         23    2    1    2    0    0  0.46067404021E+01  0.29402843277E+01  0.29005688980E+03  0.30382583029E+03  0.90262220782E+02 0.  0.
          5    1    1    2  502    0  0.15147800816E+02 -0.60195494518E+02  0.37946755127E+03  0.38453354639E+03  0.41800000000E+01 0. -1.
         -5    1    1    2    0  502 -0.19754541218E+02  0.57255210190E+02  0.24993914263E+03  0.25720701470E+03  0.41800000000E+01 0. -1.
        -11    1    3    3    0    0 -0.32328824494E+02  0.19522693455E+02  0.21734577272E+03  0.22060252349E+03  0.00000000000E+00 0.  1.
         11    1    3    3    0    0  0.36935564896E+02 -0.16582409127E+02  0.72711117084E+02  0.83223306797E+02  0.00000000000E+00 0. -1.
</event>
<event>
 7    1  0.5831876E-006  0.1314896E+03  0.7561462E-02  0.1225262E+00
          1   -1    0    0  501    0  0.00000000000E+00  0.00000000000E+00  0.29461048502E+02  0.29461048502E+02  0.00000000000E+00 0.  1.
         -1   -1    0    0    0  501 -0.00000000000E+00 -0.00000000000E+00 -0.70132326397E+03  0.70132326397E+03  0.00000000000E+00 0. -1.
         23    2    1    2    0    0  0.47265640931E+02  0.76901619694E+02 -0.37236140225E+03  0.39389264434E+03  0.91381078209E+02 0.  0.
          5    1    1    2  502    0 -0.75263589706E+01 -0.99755537678E+02 -0.14906631420E+03  0.17957185695E+03  0.41800000000E+01 0.  1.
         -5    1    1    2    0  502 -0.39739281961E+02  0.22853917984E+02 -0.15043449901E+03  0.15731981118E+03  0.41800000000E+01 0.  1.
        -11    1    3    3    0    0  0.56281509086E+00 -0.14323918915E+02 -0.10421586588E+02  0.17722891438E+02  0.00000000000E+00 0.  1.
         11    1    3    3    0    0  0.46702825840E+02  0.91225538610E+02 -0.36193981567E+03  0.37616975291E+03  0.00000000000E+00 0. -1.
</event>
<event>
 7    1  0.5831876E-006  0.9397339E+02  0.7561462E-02  0.1293505E+00
          2   -1    0    0  501    0  0.00000000000E+00  0.00000000000E+00  0.11621715605E+03  0.11621715605E+03  0.00000000000E+00 0. -1.
         -2   -1    0    0    0  501 -0.00000000000E+00 -0.00000000000E+00 -0.10660182198E+03  0.10660182198E+03  0.00000000000E+00 0.  1.
         23    2    1    2    0    0 -0.86147742844E+01 -0.41493830004E+00 -0.22262805207E+02  0.93442824722E+02  0.90341255729E+02 0.  0.
          5    1    1    2  502    0 -0.17089010934E+02  0.56285375130E+02  0.33290461657E+02  0.67718571940E+02  0.41800000000E+01 0. -1.
         -5    1    1    2    0  502  0.25703785218E+02 -0.55870436830E+02 -0.14123223749E+01  0.61657581372E+02  0.41800000000E+01 0. -1.
        -11    1    3    3    0    0  0.20380496299E+02  0.22514331372E+02  0.20710065142E+02  0.36758217377E+02  0.00000000000E+00 0. -1.
         11    1    3    3    0    0 -0.28995270583E+02 -0.22929269672E+02 -0.42972870349E+02  0.56684607346E+02  0.00000000000E+00 0.  1.
</event>
<event>
 7    1  0.5831876E-006  0.1119216E+03  0.7561462E-02  0.1257052E+00
         -2   -1    0    0    0  501 -0.00000000000E+00  0.00000000000E+00  0.19103086923E+02  0.19103086923E+02  0.00000000000E+00 0.  1.
          2   -1    0    0  501    0  0.00000000000E+00 -0.00000000000E+00 -0.96655261531E+03  0.96655261531E+03  0.00000000000E+00 0. -1.
         23    2    1    2    0    0  0.37324229233E+02 -0.58931667829E+02 -0.29441177959E+03  0.31709621142E+03  0.94898217978E+02 0.  0.
          5    1    1    2  502    0  0.15252005626E+02  0.62900183687E+02 -0.15930424219E+03  0.17200107780E+03  0.41800000000E+01 0. -1.
         -5    1    1    2    0  502 -0.52576234859E+02 -0.39685158579E+01 -0.49373350661E+03  0.49655841302E+03  0.41800000000E+01 0. -1.
        -11    1    3    3    0    0 -0.22421901031E+01 -0.65883481058E+02 -0.24337888670E+03  0.25214865255E+03  0.00000000000E+00 0.  1.
         11    1    3    3    0    0  0.39566419336E+02  0.69518132289E+01 -0.51032892890E+02  0.64947558869E+02  0.00000000000E+00 0. -1.
</event>
<event>
 7    1  0.5831876E-006  0.1081396E+03  0.7561462E-02  0.1264054E+00
          1   -1    0    0  501    0  0.00000000000E+00  0.00000000000E+00  0.61891300887E+03  0.61891300887E+03  0.00000000000E+00 0. -1.
         -1   -1    0    0    0  501 -0.00000000000E+00 -0.00000000000E+00 -0.75358623702E+02  0.75358623702E+02  0.00000000000E+00 0.  1.
         23    2    1    2    0    0  0.82907204995E+01  0.48571250212E+02 -0.25632399735E+02  0.10768844422E+03  0.92259843428E+02 0.  0.
          5    1    1    2  502    0 -0.67745151678E+02 -0.31484421130E+02  0.38610073275E+03  0.39328351425E+03  0.41800000000E+01 0. -1.
         -5    1    1    2    0  502  0.59454431179E+02 -0.17086829082E+02  0.18308605215E+03  0.19329967410E+03  0.41800000000E+01 0.  1.
        -11    1    3    3    0    0  0.20594573749E+01  0.63367799322E+02 -0.48445935521E+02  0.79791779176E+02  0.00000000000E+00 0.  1.
         11    1    3    3    0    0  0.62312631246E+01 -0.14796549109E+02  0.22813535786E+02  0.27896665047E+02  0.00000000000E+00 0. -1.
</event>
<event>
 7    1  0.5831876E-006  0.1736027E+03  0.7561462E-02  0.1174142E+00
         -1   -1    0    0    0  501 -0.00000000000E+00  0.00000000000E+00  0.60018699190E+02  0.60018699190E+02  0.00000000000E+00 0.  1.
          1   -1    0    0  501    0  0.00000000000E+00 -0.00000000000E+00 -0.10150228106E+04  0.10150228106E+04  0.00000000000E+00 0. -1.
         23    2    1    2    0    0  0.13582825636E+03  0.50301699200E+02 -0.98147043188E+02  0.19707140175E+03  0.90690237256E+02 0.  0.
          5    1    1    2  502    0 -0.71668513697E+02  0.29004226127E+02 -0.22576733231E+03  0.23867547366E+03  0.41800000000E+01 0.  1.
         -5    1    1    2    0  502 -0.64159742663E+02 -0.79305925327E+02 -0.63108973591E+03  0.63929463437E+03  0.41800000000E+01 0.  1.
        -11    1    3    3    0    0  0.27657090789E+02  0.52664968299E+02 -0.53569042749E+02  0.80050958132E+02  0.00000000000E+00 0. -1.
         11    1    3    3    0    0  0.10817116557E+03 -0.23632690988E+01 -0.44578000439E+02  0.11702044362E+03  0.00000000000E+00 0.  1.
</event>
<event>
 7    1  0.5831876E-006  0.1034941E+03  0.7561462E-02  0.1273115E+00
         -1   -1    0    0    0  501 -0.00000000000E+00  0.00000000000E+00  0.20199009023E+03  0.20199009023E+03  0.00000000000E+00 0.  1.
          1   -1    0    0  501    0  0.00000000000E+00 -0.00000000000E+00 -0.11948897270E+03  0.11948897270E+03  0.00000000000E+00 0. -1.
         23    2    1    2    0    0 -0.56955751009E+02  0.47670074941E+02  0.11954051281E+03  0.17136034088E+03  0.97765221865E+02 0.  0.
          5    1    1    2  502    0  0.51892629284E+02 -0.19880389033E+02  0.39578943464E+02  0.68352322622E+02  0.41800000000E+01 0.  1.
         -5    1    1    2    0  502  0.50631217252E+01 -0.27789685908E+02 -0.76618338744E+02  0.81766399434E+02  0.41800000000E+01 0.  1.
        -11    1    3    3    0    0  0.26705896179E+02  0.23628904628E+02  0.37433711927E+02  0.51699253508E+02  0.00000000000E+00 0.  1.
         11    1    3    3    0    0 -0.83661647188E+02  0.24041170313E+02  0.82106800878E+02  0.11966108737E+03  0.00000000000E+00 0. -1.
</event>
<event>
 7    1  0.5831876E-006  0.1011224E+03  0.7561462E-02  0.1277953E+00
          2   -1    0    0  501    0  0.00000000000E+00  0.00000000000E+00  0.39166136425E+03  0.39166136425E+03  0.00000000000E+00 0. -1.
         -2   -1    0    0    0  501 -0.00000000000E+00 -0.00000000000E+00 -0.32185321386E+02  0.32185321386E+02  0.00000000000E+00 0.  1.
         23    2    1    2    0    0 -0.12236295859E+02  0.71873906229E+01  0.97983808060E+02  0.13362808751E+03  0.89745493526E+02 0.  0.
          5    1    1    2  502    0  0.59376198012E+02  0.12163830535E+02  0.73297946312E+02  0.95202694275E+02  0.41800000000E+01 0.  1.
         -5    1    1    2    0  502 -0.47139902153E+02 -0.19351221157E+02  0.18819428849E+03  0.19501590385E+03  0.41800000000E+01 0.  1.
        -11    1    3    3    0    0  0.13541584723E+02 -0.36892355656E+02  0.35759445215E+02  0.53133401404E+02  0.00000000000E+00 0.  1.
         11    1    3    3    0    0 -0.25777880582E+02  0.44079746278E+02  0.62224362844E+02  0.80494686102E+02  0.00000000000E+00 0. -1.
</event>
<event>
 7    1  0.5831876E-006  0.1081017E+03  0.7561462E-02  0.1264126E+00
          1   -1    0    0  501    0  0.00000000000E+00  0.00000000000E+00  0.18723407460E+04  0.18723407460E+04  0.00000000000E+00 0. -1.
         -1   -1    0    0    0  501 -0.00000000000E+00 -0.00000000000E+00 -0.91326507472E+01  0.91326507472E+01  0.00000000000E+00 0.  1.
         23    2    1    2    0    0 -0.24539996654E+02 -0.22077594504E+02  0.35832573171E+03  0.37104011879E+03  0.90464402580E+02 0.  0.
          5    1    1    2  502    0  0.60850986568E+02 -0.22890071953E+02  0.56024418414E+03  0.56401934029E+03  0.41800000000E+01 0.  1.
         -5    1    1    2    0  502 -0.36310989913E+02  0.44967666457E+02  0.94463817939E+03  0.94641393765E+03  0.41800000000E+01 0.  1.
        -11    1    3    3    0    0 -0.55933050409E+02 -0.25606609414E+02  0.27801714351E+03  0.28474152606E+03  0.00000000000E+00 0. -1.
         11    1    3    3    0    0  0.31393053754E+02  0.35290149100E+01  0.80308588196E+02  0.86298592736E+02  0.00000000000E+00 0.  1.
</event>
<event>
 7    1  0.5831876E-006  0.8017770E+02  0.7561462E-02  0.1328548E+00
          2   -1    0    0  501    0  0.00000000000E+00  0.00000000000E+00  0.19926819312E+04  0.19926819312E+04  0.00000000000E+00 0. -1.
         -2   -1    0    0    0  501 -0.00000000000E+00 -0.00000000000E+00 -0.47381980308E+02  0.47381980308E+02  0.00000000000E+00 0.  1.
         23    2    1    2    0    0  0.31816704726E+02  0.89327774361E+01  0.45950121214E+01  0.95663452380E+02  0.89656482044E+02 0.  0.
          5    1    1    2  502    0 -0.72202191704E+02 -0.95092071155E+01  0.91964948687E+03  0.92253793017E+03  0.41800000000E+01 0. -1.
         -5    1    1    2    0  502  0.40385486978E+02  0.57642967941E+00  0.10210554519E+04  0.10218625289E+04  0.41800000000E+01 0.  1.
        -11    1    3    3    0    0  0.16599110533E+02 -0.12315611758E+02 -0.39399196741E+02  0.44491588725E+02  0.00000000000E+00 0.  1.
         11    1    3    3    0    0  0.15217594194E+02  0.21248389194E+02  0.43994208863E+02  0.51171863654E+02  0.00000000000E+00 0. -1.
</event>
<event>
 6    1  0.5831876E-006  0.1090808E+03  0.7561462E-02  0.1262282E+00
         -3   -1    0    0    0  501 -0.00000000000E+00  0.00000000000E+00  0.62756587839E+02  0.62756587839E+02  0.00000000000E+00 0.  1.
          3   -1    0    0  501    0  0.00000000000E+00 -0.00000000000E+00 -0.20410577830E+03  0.20410577830E+03  0.00000000000E+00 0. -1.
          5    1    1    2  502    0  0.93468938831E+02  0.40780953471E+02 -0.92876429337E+02  0.13799649350E+03  0.41800000000E+01 0. -1.
         -5    1    1    2    0  502 -0.80527429415E+02 -0.32902769945E+02 -0.47758270446E+02  0.99325646004E+02  0.41800000000E+01 0.  1.
        -11    1    1    2    0    0 -0.16884185303E+01 -0.15386955787E+02 -0.31444538708E+01  0.15795466301E+02  0.00000000000E+00 0. -1.
         11    1    1    2    0    0 -0.11253090886E+02  0.75087722607E+01  0.24299631969E+01  0.13744760328E+02  0.00000000000E+00 0.  1.
</event>
<event>
 7    1  0.5831876E-006  0.1125392E+03  0.7561462E-02  0.1255939E+00
          3   -1    0    0  501    0  0.00000000000E+00  0.00000000000E+00  0.29251440190E+03  0.29251440190E+03  0.00000000000E+00 0. -1.
         -3   -1    0    0    0  501 -0.00000000000E+00 -0.00000000000E+00 -0.46916791185E+02  0.46916791185E+02  0.00000000000E+00 0.  1.
         23    2    1    2    0    0 -0.21593730894E+02  0.32364954649E+02  0.69411245004E+02  0.11988026312E+03  0.89663688578E+02 0.  0.
          5    1    1    2  502    0  0.58395004212E+02  0.21836941628E+02  0.10884863180E+03  0.12550826897E+03  0.41800000000E+01 0.  1.
         -5    1    1    2    0  502 -0.36801273318E+02 -0.54201896277E+02  0.67337733914E+02  0.94042660992E+02  0.41800000000E+01 0.  1.
        -11    1    3    3    0    0 -0.24018619645E+02 -0.27796279059E+02  0.19030891167E+02  0.41372720938E+02  0.00000000000E+00 0. -1.
         11    1    3    3    0    0  0.24248887508E+01  0.60161233709E+02  0.50380353837E+02  0.78507542183E+02  0.00000000000E+00 0.  1.
</event>
<event>
 7    1  0.5831876E-006  0.1305734E+03  0.7561462E-02  0.1226607E+00
          2   -1    0    0  501    0  0.00000000000E+00  0.00000000000E+00  0.28043475704E+03  0.28043475704E+03  0.00000000000E+00 0. -1.
         -2   -1    0    0    0  501 -0.00000000000E+00 -0.00000000000E+00 -0.71887442707E+02  0.71887442707E+02  0.00000000000E+00 0.  1.
         23    2    1    2    0    0 -0.87042341157E+02  0.31745371398E+02  0.93174572841E+02  0.15855974494E+03  0.88744317746E+02 0.  0.
          5    1    1    2  502    0  0.11066791330E+03 -0.35214373348E+02  0.54729204492E+02  0.12845309396E+03  0.41800000000E+01 0. -1.
         -5    1    1    2    0  502 -0.23625572145E+02  0.34690019500E+01  0.60643537002E+02  0.65309360844E+02  0.41800000000E+01 0. -1.
        -11    1    3    3    0    0  0.24403375631E+01 -0.18100923379E+02 -0.24542361168E+01  0.18428834730E+02  0.00000000000E+00 0.  1.
         11    1    3    3    0    0 -0.89482678720E+02  0.49846294777E+02  0.95628808958E+02  0.14013091021E+03  0.00000000000E+00 0. -1.
</event>
<event>
 7    1  0.5831876E-006  0.1625460E+03  0.7561462E-02  0.1185852E+00
         -1   -1    0    0    0  501 -0.00000000000E+00  0.00000000000E+00  0.33002431822E+03  0.33002431822E+03  0.00000000000E+00 0. -1.
          1   -1    0    0  501    0  0.00000000000E+00 -0.00000000000E+00 -0.84274107181E+02  0.84274107181E+02  0.00000000000E+00 0.  1.
         23    2    1    2    0    0  0.12017405657E+03 -0.22867596832E+02  0.15463404075E+03  0.21703179335E+03  0.90699404134E+02 0.  0.
          5    1    1    2  502    0 -0.10095081384E+03 -0.38771862757E+02  0.71300450127E+02  0.12959764946E+03  0.41800000000E+01 0. -1.
         -5    1    1    2    0  502 -0.19223242728E+02  0.61639459589E+02  0.19815720156E+02  0.67668982590E+02  0.41800000000E+01 0. -1.
        -11    1    3    3    0    0  0.45852489210E+02 -0.54648784255E+02  0.76761627367E+02  0.10479164005E+03  0.00000000000E+00 0.  1.
         11    1    3    3    0    0  0.74321567355E+02  0.31781187422E+02  0.77872413386E+02  0.11224015331E+03  0.00000000000E+00 0. -1.
</event>
<event>
 7    1  0.5831876E-006  0.1270515E+03  0.7561462E-02  0.1231897E+00
          2   -1    0    0  501    0  0.00000000000E+00  0.00000000000E+00  0.61168685319E+03  0.61168685319E+03  0.00000000000E+00 0. -1.
         -2   -1    0    0    0  501 -0.00000000000E+00 -0.00000000000E+00 -0.49855145395E+02  0.49855145395E+02  0.00000000000E+00 0.  1.
         23    2    1    2    0    0 -0.73721308360E+02 -0.84287883395E+02  0.10140010249E+03  0.17490647621E+03  0.88153366594E+02 0.  0.
          5    1    1    2  502    0  0.64677098420E+02  0.73370913411E+02  0.46154537788E+03  0.47181355029E+03  0.41800000000E+01 0. -1.
         -5    1    1    2    0  502  0.90442099403E+01  0.10916969984E+02 -0.11137725764E+01  0.14821972083E+02  0.41800000000E+01 0.  1.
        -11    1    3    3    0    0 -0.64029554144E+02 -0.10246526306E+03  0.78414035842E+02  0.14404053234E+03  0.00000000000E+00 0.  1.
         11    1    3    3    0    0 -0.96917542156E+01  0.18177379667E+02  0.22986066649E+02  0.30865943875E+02  0.00000000000E+00 0. -1.
</event>
<event>
 7    1  0.5831876E-006  0.1012721E+03  0.7561462E-02  0.1277643E+00
          2   -1    0    0  501    0  0.00000000000E+00  0.00000000000E+00  0.85077861620E+03  0.85077861620E+03  0.00000000000E+00 0. -1.
         -2   -1    0    0    0  501 -0.00000000000E+00 -0.00000000000E+00 -0.14075380402E+02  0.14075380402E+02  0.00000000000E+00 0.  1.
         23    2    1    2    0    0 -0.63827879853E+01  0.75433944727E+01  0.23457649403E+03  0.25189289850E+03  0.91248331393E+02 0.  0.
          5    1    1    2  502    0  0.57521608264E+02 -0.13979945749E+02  0.24359309454E+03  0.25071745533E+03  0.41800000000E+01 0. -1.
         -5    1    1    2    0  502 -0.51138820279E+02  0.64365512766E+01  0.35853364723E+03  0.36224364277E+03  0.41800000000E+01 0.  1.
        -11    1    3    3    0    0 -0.36095025672E+02  0.35547015755E+02  0.13980211363E+03  0.14869792259E+03  0.00000000000E+00 0.  1.
         11    1    3    3    0    0  0.29712237687E+02 -0.28003621282E+02  0.94774380401E+02  0.10319497591E+03  0.00000000000E+00 0. -1.
</event>
<event>
 7    1  0.5831876E-006  0.1197845E+03  0.7561462E-02  0.1243453E+00
          2   -1    0    0  501    0  0.00000000000E+00  0.00000000000E+00  0.23258701525E+03  0.23258701525E+03  0.00000000000E+00 0. -1.
         -2   -1    0    0    0  501 -0.00000000000E+00 -0.00000000000E+00 -0.70957232243E+02  0.70957232243E+02  0.00000000000E+00 0.  1.
         23    2    1    2    0    0  0.41314047096E+02 -0.54048855844E+02  0.87981436916E+02  0.14322968346E+03  0.90254527183E+02 0.  0.
          5    1    1    2  502    0  0.17923917059E+02 -0.29572619828E+02  0.38446275201E+02  0.51878657683E+02  0.41800000000E+01 0.  1.
         -5    1    1    2    0  502 -0.59237964154E+02  0.83621475672E+02  0.35202070890E+02  0.10843590635E+03  0.41800000000E+01 0.  1.
        -11    1    3    3    0    0  0.58803592513E+02 -0.17011513796E+02  0.20998514243E+02  0.64716239805E+02  0.00000000000E+00 0. -1.
         11    1    3    3    0    0 -0.17489545417E+02 -0.37037342048E+02  0.66982922673E+02  0.78513443656E+02  0.00000000000E+00 0.  1.
</event>
<event>
 7    1  0.5831876E-006  0.2449257E+03  0.7561462E-02  0.1116554E+00
         -2   -1    0    0    0  501 -0.00000000000E+00  0.00000000000E+00  0.60105720753E+02  0.60105720753E+02  0.00000000000E+00 0.  1.
          2   -1    0    0  501    0  0.00000000000E+00 -0.00000000000E+00 -0.10704350086E+04  0.10704350086E+04  0.00000000000E+00 0. -1.
         23    2    1    2    0    0 -0.15974204355E+03 -0.16002140701E+03 -0.41509376384E+03  0.48163634469E+03  0.92446549797E+02 0.  0.
          5    1    1    2  502    0  0.17380296418E+03  0.15825043200E+03 -0.58620215916E+03  0.63158618841E+03  0.41800000000E+01 0.  1.
         -5    1    1    2    0  502 -0.14060920637E+02  0.17709750050E+01 -0.90333648869E+01  0.17318196292E+02  0.41800000000E+01 0.  1.
        -11    1    3    3    0    0 -0.85385226292E+02 -0.13827316339E+03 -0.23639746907E+03  0.28686907810E+03  0.00000000000E+00 0.  1.
         11    1    3    3    0    0 -0.74356817254E+02 -0.21748243614E+02 -0.17869629477E+03  0.19476726659E+03  0.00000000000E+00 0. -1.
</event>
<event>
 7    1  0.5831876E-006  0.1056960E+03  0.7561462E-02  0.1268754E+00
          1   -1    0    0  501    0  0.00000000000E+00  0.00000000000E+00  0.46704974429E+03  0.46704974429E+03  0.00000000000E+00 0. -1.
         -1   -1    0    0    0  501 -0.00000000000E+00 -0.00000000000E+00 -0.36474754949E+02  0.36474754949E+02  0.00000000000E+00 0.  1.
         23    2    1    2    0    0  0.32538903217E+02  0.26217092263E+02  0.79382045810E+02  0.12838597952E+03  0.91844076520E+02 0.  0.
          5    1    1    2  502    0  0.41070618271E+02 -0.12258522867E+02  0.56492040397E+02  0.71034428950E+02  0.41800000000E+01 0.  1.
         -5    1    1    2    0  502 -0.73609521488E+02 -0.13958569396E+02  0.29470090314E+03  0.30410409077E+03  0.41800000000E+01 0.  1.
        -11    1    3    3    0    0  0.56859596461E+02  0.35753411844E+02  0.32270751304E+02  0.74516585791E+02  0.00000000000E+00 0.  1.
         11    1    3    3    0    0 -0.24320693244E+02 -0.95363195808E+01  0.47111294506E+02  0.53869393732E+02  0.00000000000E+00 0. -1.
</event>
<event>
 7    1  0.5831876E-006  0.1070706E+03  0.7561462E-02  0.1266093E+00
          1   -1    0    0  501    0  0.00000000000E+00  0.00000000000E+00  0.27305220891E+03  0.27305220891E+03  0.00000000000E+00 0. -1.
         -1   -1    0    0    0  501 -0.00000000000E+00 -0.00000000000E+00 -0.44003657665E+02  0.44003657665E+02  0.00000000000E+00 0.  1.
         23    2    1    2    0    0 -0.27515491506E+01  0.13105452120E+02  0.89574310748E+02  0.12922709383E+03  0.92177875522E+02 0.  0.
          5    1    1    2  502    0  0.62931314968E+02 -0.13225530783E+02  0.84028282522E+02  0.10589376626E+03  0.41800000000E+01 0.  1.
         -5    1    1    2    0  502 -0.60179765818E+02  0.12007866268E+00  0.55445957974E+02  0.81935006489E+02  0.41800000000E+01 0.  1.
        -11    1    3    3    0    0  0.34236593077E+02 -0.20072299887E+02  0.22079722368E+02  0.45415368192E+02  0.00000000000E+00 0. -1.
         11    1    3    3    0    0 -0.36988142227E+02  0.33177752007E+02  0.67494588380E+02  0.83811725637E+02  0.00000000000E+00 0.  1.
</event>
<event>
 7    1  0.5831876E-006  0.1712268E+03  0.7561462E-02  0.1176575E+00
          1   -1    0    0  501    0  0.00000000000E+00  0.00000000000E+00  0.34829072040E+03  0.34829072040E+03  0.00000000000E+00 0. -1.
         -1   -1    0    0    0  501 -0.00000000000E+00 -0.00000000000E+00 -0.11946545817E+03  0.11946545817E+03  0.00000000000E+00 0.  1.
         23    2    1    2    0    0  0.71187916480E+02 -0.13706686133E+03  0.21797096680E+02  0.18076564534E+03  0.91356779629E+02 0.  0.
          5    1    1    2  502    0 -0.42141783704E+02  0.28935669641E+02 -0.33784058321E+00  0.51291221935E+02  0.41800000000E+01 0. -1.
         -5    1    1    2    0  502 -0.29046132776E+02  0.10813119169E+03  0.20736600613E+03  0.23569931129E+03  0.41800000000E+01 0. -1.
        -11    1    3    3    0    0  0.19615857211E+02 -0.12450550225E+03  0.20293811866E+02  0.12766456339E+03  0.00000000000E+00 0.  1.
         11    1    3    3    0    0  0.51572059269E+02 -0.12561359076E+02  0.15032848137E+01  0.53101081951E+02  0.00000000000E+00 0. -1.
</event>
<event>
 7    1  0.5831876E-006  0.7652397E+02  0.7561462E-02  0.1339216E+00
          2   -1    0    0  501    0  0.00000000000E+00  0.00000000000E+00  0.84327382336E+02  0.84327382336E+02  0.00000000000E+00 0. -1.
         -2   -1    0    0    0  501 -0.00000000000E+00 -0.00000000000E+00 -0.16101216892E+03  0.16101216892E+03  0.00000000000E+00 0.  1.
         23    2    1    2    0    0  0.11098965624E+02  0.38417574250E+02 -0.47743689267E+02  0.11085672184E+03  0.91709627968E+02 0.  0.
          5    1    1    2  502    0  0.23218784138E+02 -0.30612784299E+02 -0.70172955784E+02  0.80112237660E+02  0.41800000000E+01 0.  1.
         -5    1    1    2    0  502 -0.34317749763E+02 -0.78047899513E+01  0.41231858472E+02  0.54370591757E+02  0.41800000000E+01 0.  1.
        -11    1    3    3    0    0  0.48133179646E+00 -0.19786907399E+02  0.14836429684E+02  0.24736067401E+02  0.00000000000E+00 0. -1.
         11    1    3    3    0    0  0.10617633828E+02  0.58204481650E+02 -0.62580118951E+02  0.86120654434E+02  0.00000000000E+00 0.  1.
</event>
<event>
 7    1  0.1036208E-005  0.2484127E+03  0.7561462E-02  0.1114312E+00
         -2   -1    0    0    0  501 -0.00000000000E+00  0.00000000000E+00  0.37044210293E+03  0.37044210293E+03  0.00000000000E+00 0.  1.
          2   -1    0    0  501    0  0.00000000000E+00 -0.00000000000E+00 -0.23189237479E+03  0.23189237479E+03  0.00000000000E+00 0. -1.
         23    2    1    2    0    0 -0.11088455223E+03  0.21520391947E+03  0.19479760786E+03  0.32409113543E+03  0.92091504271E+02 0.  0.
          5    1    1    2  502    0  0.37016845487E+01 -0.44861441054E+02  0.35052567361E+02  0.57204949441E+02  0.41800000000E+01 0. -1.
         -5    1    1    2    0  502  0.10718286768E+03 -0.17034247842E+03 -0.91300447072E+02  0.22103839285E+03  0.41800000000E+01 0. -1.
        -11    1    3    3    0    0 -0.27686439470E+02  0.12320432696E+03  0.56570409653E+02  0.13836927535E+03  0.00000000000E+00 0. -1.
         11    1    3    3    0    0 -0.83198112764E+02  0.91999592512E+02  0.13822719820E+03  0.18572186008E+03  0.00000000000E+00 0.  1.
</event>
<event>
 7    1  0.5831876E-006  0.1586780E+03  0.7561462E-02  0.1190197E+00
         -2   -1    0    0    0  501 -0.00000000000E+00  0.00000000000E+00  0.26770122075E+02  0.26770122075E+02  0.00000000000E+00 0.  1.
          2   -1    0    0  501    0  0.00000000000E+00 -0.00000000000E+00 -0.11787105055E+04  0.11787105055E+04  0.00000000000E+00 0. -1.
         23    2    1    2    0    0  0.13600690410E+03  0.35666791484E+01 -0.42978900912E+03  0.46005417142E+03  0.91764094915E+02 0.  0.
          5    1    1    2  502    0 -0.46862414851E+02 -0.48372931006E+02 -0.45957628779E+03  0.46450388920E+03  0.41800000000E+01 0.  1.
         -5    1    1    2    0  502 -0.89144489246E+02  0.44806251858E+02 -0.26257508649E+03  0.28092256694E+03  0.41800000000E+01 0.  1.
        -11    1    3    3    0    0 -0.61933488895E+00  0.13047928852E+02 -0.54365868198E+01  0.14148798510E+02  0.00000000000E+00 0.  1.
         11    1    3    3    0    0  0.13662623899E+03 -0.94812497033E+01 -0.42435242230E+03  0.44590537291E+03  0.00000000000E+00 0. -1.
</event>
<event>
 7    1  0.5831876E-006  0.1166295E+03  0.7561462E-02  0.1248763E+00
          1   -1    0    0  501    0  0.00000000000E+00  0.00000000000E+00  0.48981194966E+03  0.48981194966E+03  0.00000000000E+00 0. -1.
         -1   -1    0    0    0  501 -0.00000000000E+00 -0.00000000000E+00 -0.81984786385E+02  0.81984786385E+02  0.00000000000E+00 0.  1.
         23    2    1    2    0    0  0.89334345061E+01  0.81823095275E+02 -0.15405990171E+02  0.12285549791E+03  0.89896071443E+02 0.  0.
          5    1    1    2  502    0  0.26868006613E+02 -0.10350964963E+03  0.28415631638E+03  0.30364193038E+03  0.41800000000E+01 0.  1.
         -5    1    1    2    0  502 -0.35801441119E+02  0.21686554356E+02  0.13907683706E+03  0.14529930775E+03  0.41800000000E+01 0.  1.
        -11    1    3    3    0    0 -0.53475140777E+01  0.18440932526E+02  0.35471145655E+02  0.40334427891E+02  0.00000000000E+00 0. -1.
         11    1    3    3    0    0  0.14280948584E+02  0.63382162749E+02 -0.50877135825E+02  0.82521070018E+02  0.00000000000E+00 0.  1.
</event>
<event>
 7    1  0.5831876E-006  0.1903231E+03  0.7561462E-02  0.1158170E+00
          1   -1    0    0  501    0  0.00000000000E+00  0.00000000000E+00  0.13840388490E+04  0.13840388490E+04  0.00000000000E+00 0. -1.
         -1   -1    0    0    0  501 -0.00000000000E+00 -0.00000000000E+00 -0.72622314421E+02  0.72622314421E+02  0.00000000000E+00 0.  1.
         23    2    1    2    0    0 -0.12648927839E+03  0.12933935124E+03  0.10282678981E+03  0.22731423688E+03  0.91488842261E+02 0.  0.
          5    1    1    2  502    0  0.63752284261E+02 -0.73574225709E+02  0.99588671436E+03  0.10006424640E+04  0.41800000000E+01 0. -1.
         -5    1    1    2    0  502  0.62736994132E+02 -0.55765125534E+02  0.21270303038E+03  0.22870446256E+03  0.41800000000E+01 0.  1.
        -11    1    3    3    0    0 -0.94076810245E+02  0.36642249733E+02  0.30878692327E+02  0.10557743287E+03  0.00000000000E+00 0.  1.
         11    1    3    3    0    0 -0.32412468147E+02  0.92697101510E+02  0.71948097484E+02  0.12173680401E+03  0.00000000000E+00 0. -1.
</event>
<event>
 6    1  0.5831876E-006  0.1520943E+03  0.7561462E-02  0.1197923E+00
         -2   -1    0    0    0  501 -0.00000000000E+00  0.00000000000E+00  0.16871956866E+03  0.16871956866E+03  0.00000000000E+00 0.  1.
          2   -1    0    0  501    0  0.00000000000E+00 -0.00000000000E+00 -0.16513591922E+03  0.16513591922E+03  0.00000000000E+00 0. -1.
          5    1    1    2  502    0  0.24658193472E+02  0.84832427891E+01  0.19439240564E+02  0.32792505047E+02  0.41800000000E+01 0.  1.
         -5    1    1    2    0  502 -0.68205395385E+02 -0.95082149592E+02 -0.55187418972E+02  0.12944386715E+03  0.41800000000E+01 0.  1.
        -11    1    1    2    0    0  0.45976286334E+02  0.11932341297E+03  0.11142510001E+02  0.12835907181E+03  0.00000000000E+00 0. -1.
         11    1    1    2    0    0 -0.24290844215E+01 -0.32724506164E+02  0.28189317850E+02  0.43260043870E+02  0.00000000000E+00 0.  1.
</event>
<event>
 7    1  0.5831876E-006  0.1477178E+03  0.7561462E-02  0.1203306E+00
         -1   -1    0    0    0  501 -0.00000000000E+00  0.00000000000E+00  0.35019365049E+03  0.35019365049E+03  0.00000000000E+00 0.  1.
          1   -1    0    0  501    0  0.00000000000E+00 -0.00000000000E+00 -0.12664086354E+04  0.12664086354E+04  0.00000000000E+00 0. -1.
         23    2    1    2    0    0  0.51661704417E+02 -0.12190198924E+03  0.31699519174E+03  0.35533030192E+03  0.90800028585E+02 0.  0.
          5    1    1    2  502    0 -0.42493431661E+02  0.65037799740E+02 -0.11805696684E+04  0.11831305175E+04  0.41800000000E+01 0. -1.
         -5    1    1    2    0  502 -0.91682727556E+01  0.56864189497E+02 -0.52640508301E+02  0.78141466500E+02  0.41800000000E+01 0.  1.
        -11    1    3    3    0    0  0.64881327097E+02 -0.38507299742E+02  0.13361835289E+03  0.15344791615E+03  0.00000000000E+00 0.  1.
         11    1    3    3    0    0 -0.13219622679E+02 -0.83394689495E+02  0.18337683885E+03  0.20188238577E+03  0.00000000000E+00 0. -1.
</event>
<event>
 7    1  0.5831876E-006  0.1387818E+03  0.7561462E-02  0.1214978E+00
          1   -1    0    0  501    0  0.00000000000E+00  0.00000000000E+00  0.45121439544E+03  0.45121439544E+03  0.00000000000E+00 0. -1.
         -1   -1    0    0    0  501 -0.00000000000E+00 -0.00000000000E+00 -0.63795544172E+02  0.63795544172E+02  0.00000000000E+00 0.  1.
         23    2    1    2    0    0  0.57462582625E+02  0.11091008355E+03  0.12654826263E+03  0.19988487050E+03  0.91304455771E+02 0.  0.
          5    1    1    2  502    0 -0.15527149097E+02 -0.10676885386E+03  0.24860250324E+03  0.27103755742E+03  0.41800000000E+01 0.  1.
         -5    1    1    2    0  502 -0.41935433528E+02 -0.41412296901E+01  0.12268085392E+02  0.44087511698E+02  0.41800000000E+01 0.  1.
        -11    1    3    3    0    0  0.56019877184E+02  0.88187988163E+02  0.13903789518E+03  0.17391631376E+03  0.00000000000E+00 0. -1.
         11    1    3    3    0    0  0.14427054409E+01  0.22722095383E+02 -0.12489632549E+02  0.25968556733E+02  0.00000000000E+00 0.  1.
</event>
<event>
 7    1  0.5831876E-006  0.1200416E+03  0.7561462E-02  0.1243028E+00
          1   -1    0    0  501    0  0.00000000000E+00  0.00000000000E+00  0.43787157423E+02  0.43787157423E+02  0.00000000000E+00 0. -1.
         -1   -1    0    0    0  501 -0.00000000000E+00 -0.00000000000E+00 -0.49830598781E+03  0.49830598781E+03  0.00000000000E+00 0.  1.
         23    2    1    2    0    0 -0.20222041027E+02 -0.82045508534E+02 -0.30623770150E+03  0.33049225162E+03  0.91121908177E+02 0.  0.
          5    1    1    2  502    0  0.21700064162E+02  0.11230508908E+03 -0.89339998701E+02  0.14519791179E+03  0.41800000000E+01 0.  1.
         -5    1    1    2    0  502 -0.14780231347E+01 -0.30259580550E+02 -0.58941130192E+02  0.66402981829E+02  0.41800000000E+01 0.  1.
        -11    1    3    3    0    0 -0.32731377373E+02 -0.42992619894E+02 -0.27127303293E+03  0.27660218152E+03  0.00000000000E+00 0.  1.
         11    1    3    3    0    0  0.12509336347E+02 -0.39052888641E+02 -0.34964668571E+02  0.53890070099E+02  0.00000000000E+00 0. -1.
</event>
<event>
 7    1  0.5831876E-006  0.1284882E+03  0.7561462E-02  0.1229716E+00
         -1   -1    0    0    0  501 -0.00000000000E+00  0.00000000000E+00  0.10451817211E+03  0.10451817211E+03  0.00000000000E+00 0.  1.
          1   -1    0    0  501    0  0.00000000000E+00 -0.00000000000E+00 -0.33647441076E+03  0.33647441076E+03  0.00000000000E+00 0. -1.
         23    2    1    2    0    0 -0.62067323011E+02 -0.77660375448E+02  0.27877521493E+02  0.13594642436E+03  0.88435216916E+02 0.  0.
          5    1    1    2  502    0 -0.20362448918E+02 -0.19981924658E+02 -0.74555581720E+02  0.79936936422E+02  0.41800000000E+01 0.  1.
         -5    1    1    2    0  502  0.82429771929E+02  0.97642300106E+02 -0.18527817842E+03  0.22510922209E+03  0.41800000000E+01 0.  1.
        -11    1    3    3    0    0 -0.19239922952E+02 -0.34410565316E+02 -0.31840648782E+02  0.50676311580E+02  0.00000000000E+00 0. -1.
         11    1    3    3    0    0 -0.42827400059E+02 -0.43249810132E+02  0.59718170275E+02  0.85270112778E+02  0.00000000000E+00 0.  1.
</event>
<event>
 7    1  0.5831876E-006  0.1417809E+03  0.7561462E-02  0.1210952E+00
          2   -1    0    0  501    0  0.00000000000E+00  0.00000000000E+00  0.19329761126E+04  0.19329761126E+04  0.00000000000E+00 0. -1.
         -2   -1    0    0    0  501 -0.00000000000E+00 -0.00000000000E+00 -0.21613613849E+02  0.21613613849E+02  0.00000000000E+00 0.  1.
         23    2    1    2    0    0  0.11176729129E+03  0.50897835931E+02  0.36205295274E+03  0.39539433219E+03  0.10085544229E+03 0.  0.
          5    1    1    2  502    0 -0.63686602149E+02 -0.11789362775E+02  0.13207834124E+04  0.13223771275E+04  0.41800000000E+01 0. -1.
         -5    1    1    2    0  502 -0.48080689142E+02 -0.39108473156E+02  0.22852613353E+03  0.23681826671E+03  0.41800000000E+01 0. -1.
        -11    1    3    3    0    0  0.23121970470E+02  0.62965941552E+02  0.18962626999E+03  0.20114039272E+03  0.00000000000E+00 0. -1.
         11    1    3    3    0    0  0.88645320820E+02 -0.12068105621E+02  0.17242668275E+03  0.19425393947E+03  0.00000000000E+00 0.  1.
</event>
<event>
 7    1  0.5831876E-006  0.1248142E+03  0.7561462E-02  0.1235360E+00
         -2   -1    0    0    0  501 -0.00000000000E+00  0.00000000000E+00  0.55541368154E+03  0.55541368154E+03  0.00000000000E+00 0.  1.
          2   -1    0    0  501    0  0.00000000000E+00 -0.00000000000E+00 -0.48551356927E+02  0.48551356927E+02  0.00000000000E+00 0. -1.
         23    2    1    2    0    0  0.78356497583E+02  0.38828327885E+02  0.39451764167E+03  0.41445065589E+03  0.92074952203E+02 0.  0.
          5    1    1    2  502    0  0.31589678151E+02 -0.16243344499E+02  0.89921726565E+01  0.36879338053E+02  0.41800000000E+01 0. -1.
         -5    1    1    2    0  502 -0.10994617573E+03 -0.22584983386E+02  0.10335251029E+03  0.15263504453E+03  0.41800000000E+01 0. -1.
        -11    1    3    3    0    0  0.15229018638E+02 -0.12876401888E+02  0.11889281052E+02  0.23218090753E+02  0.00000000000E+00 0. -1.
         11    1    3    3    0    0  0.63127478945E+02  0.51704729773E+02  0.38262836061E+03  0.39123256514E+03  0.00000000000E+00 0.  1.
</event>
<event>
 7    1  0.5831876E-006  0.1901122E+03  0.7561462E-02  0.1158360E+00
          2   -1    0    0  501    0  0.00000000000E+00  0.00000000000E+00  0.74966622591E+03  0.74966622591E+03  0.00000000000E+00 0. -1.
         -2   -1    0    0    0  501 -0.00000000000E+00 -0.00000000000E+00 -0.11462315534E+03  0.11462315534E+03  0.00000000000E+00 0.  1.
         23    2    1    2    0    0 -0.17577841337E+03 -0.32824276254E+02  0.91476514688E+01  0.20144096119E+03  0.92300041168E+02 0.  0.
          5    1    1    2  502    0  0.18022151670E+03  0.13142398448E+02  0.61165124403E+03  0.63779874133E+03  0.41800000000E+01 0. -1.
         -5    1    1    2    0  502 -0.44431033245E+01  0.19681877806E+02  0.14244175073E+02  0.25049678733E+02  0.41800000000E+01 0. -1.
        -11    1    3    3    0    0 -0.68493389938E+02 -0.10624103588E+02 -0.41452832497E+02  0.80762326392E+02  0.00000000000E+00 0.  1.
         11    1    3    3    0    0 -0.10728502343E+03 -0.22200172665E+02  0.50600483966E+02  0.12067863480E+03  0.00000000000E+00 0. -1.
</event>
<event>
 7    1  0.5831876E-006  0.1145110E+03  0.7561462E-02  0.1252437E+00
         -3   -1    0    0    0  501 -0.00000000000E+00  0.00000000000E+00  0.47097993261E+02  0.47097993261E+02  0.00000000000E+00 0.  1.
          3   -1    0    0  501    0  0.00000000000E+00 -0.00000000000E+00 -0.38290748488E+03  0.38290748488E+03  0.00000000000E+00 0. -1.
         23    2    1    2    0    0 -0.74519698161E+02 -0.18161391439E+02 -0.90178439249E+02  0.14388435935E+03  0.81777358763E+02 0.  0.
          5    1    1    2  502    0  0.72851576303E+02  0.65495427904E+02 -0.18141791369E+03  0.20622059804E+03  0.41800000000E+01 0. -1.
         -5    1    1    2    0  502  0.16681218580E+01 -0.47334036466E+02 -0.64213138683E+02  0.79900520763E+02  0.41800000000E+01 0. -1.
        -11    1    3    3    0    0 -0.25875845459E+02 -0.22890924076E+02  0.68700760598E+01  0.35224305931E+02  0.00000000000E+00 0.  1.
         11    1    3    3    0    0 -0.48643852702E+02  0.47295326368E+01 -0.97048515309E+02  0.10866005342E+03  0.00000000000E+00 0. -1.
</event>
<event>
 7    1  0.5831876E-006  0.8593856E+02  0.7561462E-02  0.1312996E+00
         -2   -1    0    0    0  501 -0.00000000000E+00  0.00000000000E+00  0.66986498843E+02  0.66986498843E+02  0.00000000000E+00 0.  1.
          2   -1    0    0  501    0  0.00000000000E+00 -0.00000000000E+00 -0.25530509895E+03  0.25530509895E+03  0.00000000000E+00 0. -1.
         23    2    1    2    0    0  0.22391256893E+01 -0.26175143232E+02 -0.36555253405E+02  0.10225358579E+03  0.91811532221E+02 0.  0.
          5    1    1    2  502    0 -0.23689081565E+02 -0.17987200682E+02 -0.16604232394E+03  0.16873718533E+03  0.41800000000E+01 0. -1.
         -5    1    1    2    0  502  0.21449955876E+02  0.44162343914E+02  0.14278977231E+02  0.51300826678E+02  0.41800000000E+01 0.  1.
        -11    1    3    3    0    0  0.92275330256E+01  0.32342813633E+02 -0.14674846504E+01  0.33665389804E+02  0.00000000000E+00 0.  1.
         11    1    3    3    0    0 -0.69884073363E+01 -0.58517956865E+02 -0.35087768755E+02  0.68588195989E+02  0.00000000000E+00 0. -1.
</event>
<event>
 7    1  0.5831876E-006  0.1002121E+03  0.7561462E-02  0.1279851E+00
         -2   -1    0    0    0  501 -0.00000000000E+00  0.00000000000E+00  0.36938674646E+02  0.36938674646E+02  0.00000000000E+00 0.  1.
          2   -1    0    0  501    0  0.00000000000E+00 -0.00000000000E+00 -0.48870219924E+03  0.48870219924E+03  0.00000000000E+00 0. -1.
         23    2    1    2    0    0  0.72462969529E+02  0.25789390279E+02 -0.16522101378E+03  0.20366178986E+03  0.90907462019E+02 0.  0.
          5    1    1    2  502    0 -0.38988390115E+02  0.78245866204E+01 -0.97991785262E+01  0.41168131113E+02  0.41800000000E+01 0.  1.
         -5    1    1    2    0  502 -0.33474579414E+02 -0.33613976899E+02 -0.27674333228E+03  0.28081095291E+03  0.41800000000E+01 0.  1.
        -11    1    3    3    0    0 -0.13510862826E+02  0.23147695988E+02 -0.15416817243E+02  0.30919856044E+02  0.00000000000E+00 0.  1.
         11    1    3    3    0    0  0.85973832355E+02  0.26416942906E+01 -0.14980419654E+03  0.17274193382E+03  0.00000000000E+00 0. -1.
</event>
<event>
 7    1  0.5831876E-006  0.2152724E+03  0.7561462E-02  0.1137458E+00
         -1   -1    0    0    0  501 -0.00000000000E+00  0.00000000000E+00  0.18325090261E+03  0.18325090261E+03  0.00000000000E+00 0.  1.
          1   -1    0    0  501    0  0.00000000000E+00 -0.00000000000E+00 -0.34057249166E+03  0.34057249166E+03  0.00000000000E+00 0. -1.
         23    2    1    2    0    0  0.20243208625E+03  0.31759929944E+02  0.26520391129E+02  0.22147398813E+03  0.79749317125E+02 0.  0.
          5    1    1    2  502    0 -0.20522807322E+03 -0.35566811376E+02 -0.12454714395E+03  0.24272005186E+03  0.41800000000E+01 0.  1.
         -5    1    1    2    0  502  0.27959869696E+01  0.38068814320E+01 -0.59294836219E+02  0.59629354278E+02  0.41800000000E+01 0.  1.
        -11    1    3    3    0    0  0.55259563222E+02 -0.21642648528E+02 -0.11290566195E+02  0.60411095404E+02  0.00000000000E+00 0. -1.
         11    1    3    3    0    0  0.14717252302E+03  0.53402578472E+02  0.37810957324E+02  0.16106289273E+03  0.00000000000E+00 0.  1.
</event>
<event>
 7    1  0.5831876E-006  0.2299315E+03  0.7561462E-02  0.1126688E+00
          1   -1    0    0  501    0  0.00000000000E+00  0.00000000000E+00  0.78357533247E+03  0.78357533247E+03  0.00000000000E+00 0. -1.
         -1   -1    0    0    0  501 -0.00000000000E+00 -0.00000000000E+00 -0.76314767427E+02  0.76314767427E+02  0.00000000000E+00 0.  1.
         23    2    1    2    0    0  0.10721965333E+03 -0.18388734269E+03  0.24934471029E+03  0.33965423416E+03  0.88778406034E+02 0.  0.
          5    1    1    2  502    0 -0.47082368207E+02 -0.53925305975E+01  0.10445846919E+03  0.11478184947E+03  0.41800000000E+01 0.  1.
         -5    1    1    2    0  502 -0.60137285119E+02  0.18927987328E+03  0.35345738557E+03  0.40545401626E+03  0.41800000000E+01 0.  1.
        -11    1    3    3    0    0  0.50082664270E+02 -0.10392346092E+03  0.69421764410E+02  0.13463929725E+03  0.00000000000E+00 0.  1.
         11    1    3    3    0    0  0.57136989056E+02 -0.79963881768E+02  0.17992294588E+03  0.20501493692E+03  0.00000000000E+00 0. -1.
</event>
<event>
 7    1  0.5831876E-006  0.9798419E+02  0.7561462E-02  0.1284593E+00
          2   -1    0    0  501    0  0.00000000000E+00  0.00000000000E+00  0.73242109007E+03  0.73242109007E+03  0.00000000000E+00 0. -1.
         -2   -1    0    0    0  501 -0.00000000000E+00 -0.00000000000E+00 -0.21040528923E+02  0.21040528923E+02  0.00000000000E+00 0.  1.
         23    2    1    2    0    0 -0.30623935454E+02  0.44793014433E+02  0.23920502858E+03  0.26199255671E+03  0.92069617737E+02 0.  0.
          5    1    1    2  502    0  0.58118722125E+02  0.10634603186E+02  0.11939892746E+03  0.13328337077E+03  0.41800000000E+01 0.  1.
         -5    1    1    2    0  502 -0.27494786670E+02 -0.55427617618E+02  0.35277660511E+03  0.35818569151E+03  0.41800000000E+01 0.  1.
        -11    1    3    3    0    0 -0.44827917315E+02  0.38874053581E+02  0.23935903307E+03  0.24660389479E+03  0.00000000000E+00 0. -1.
         11    1    3    3    0    0  0.14203981861E+02  0.59189608521E+01 -0.15400449574E+00  0.15388661919E+02  0.00000000000E+00 0.  1.
</event>
<event>
 7    1  0.5831876E-006  0.1549268E+03  0.7561462E-02  0.1194546E+00
          1   -1    0    0  501    0  0.00000000000E+00  0.00000000000E+00  0.59309011060E+02  0.59309011060E+02  0.00000000000E+00 0.  1.
         -1   -1    0    0    0  501 -0.00000000000E+00 -0.00000000000E+00 -0.45920409149E+03  0.45920409149E+03  0.00000000000E+00 0. -1.
         23    2    1    2    0    0 -0.81358017535E+02  0.78453738159E+02 -0.26849328974E+03  0.30475858392E+03  0.89526709906E+02 0.  0.
          5    1    1    2  502    0  0.86336163666E+02 -0.10666090583E+03 -0.12098752086E+03  0.18299162438E+03  0.41800000000E+01 0. -1.
         -5    1    1    2    0  502 -0.49781461308E+01  0.28207167673E+02 -0.10414269838E+02  0.30762894261E+02  0.41800000000E+01 0. -1.
        -11    1    3    3    0    0 -0.70519741538E+02  0.64607688927E+01 -0.14587852045E+03  0.16215831218E+03  0.00000000000E+00 0.  1.
         11    1    3    3    0    0 -0.10838275998E+02  0.71992969266E+02 -0.12261476929E+03  0.14260027173E+03  0.00000000000E+00 0. -1.
</event>
<event>
 7    1  0.5831876E-006  0.7830777E+02  0.7561462E-02  0.1333924E+00
         -1   -1    0    0    0  501 -0.00000000000E+00  0.00000000000E+00  0.42811572540E+03  0.42811572540E+03  0.00000000000E+00 0.  1.
          1   -1    0    0  501    0  0.00000000000E+00 -0.00000000000E+00 -0.32743806417E+02  0.32743806417E+02  0.00000000000E+00 0. -1.
         23    2    1    2    0    0  0.37421136696E+02 -0.10294582606E+01  0.22941931923E+03  0.24969461447E+03  0.91174421881E+02 0.  0.
          5    1    1    2  502    0 -0.65644398029E+01  0.41721849778E+02  0.55812992783E+01  0.42806867679E+02  0.41800000000E+01 0.  1.
         -5    1    1    2    0  502 -0.30856696893E+02 -0.40692391518E+02  0.16037130047E+03  0.16835804966E+03  0.41800000000E+01 0.  1.
        -11    1    3    3    0    0 -0.42948382726E+01 -0.17548975365E+02  0.23314204050E+01  0.18216687220E+02  0.00000000000E+00 0. -1.
         11    1    3    3    0    0  0.41715974969E+02  0.16519517105E+02  0.22708789882E+03  0.23147792725E+03  0.00000000000E+00 0.  1.
</event>
<event>
 7    1  0.5831876E-006  0.1121341E+03  0.7561462E-02  0.1256668E+00
         -3   -1    0    0    0  501 -0.00000000000E+00  0.00000000000E+00  0.10627640618E+03  0.10627640618E+03  0.00000000000E+00 0.  1.
          3   -1    0    0  501    0  0.00000000000E+00 -0.00000000000E+00 -0.12665067333E+03  0.12665067333E+03  0.00000000000E+00 0. -1.
         23    2    1    2    0    0  0.13707088837E+02  0.29534297878E+02  0.19337470779E+02  0.97708057954E+02  0.90070904166E+02 0.  0.
          5    1    1    2  502    0 -0.36473276511E+02 -0.71890153678E+02 -0.20628715608E+02  0.83315727224E+02  0.41800000000E+01 0.  1.
         -5    1    1    2    0  502  0.22766187674E+02  0.42355855799E+02 -0.19083022321E+02  0.51903294333E+02  0.41800000000E+01 0.  1.
        -11    1    3    3    0    0  0.23819261109E+02  0.59266502927E+02  0.82547139958E+01  0.64405091974E+02  0.00000000000E+00 0.  1.
         11    1    3    3    0    0 -0.10112172271E+02 -0.29732205049E+02  0.11082756783E+02  0.33302965980E+02  0.00000000000E+00 0. -1.
</event>
<event>
 7    1  0.7134707E-006  0.1562884E+03  0.7561462E-02  0.1192952E+00
         -1   -1    0    0    0  501 -0.00000000000E+00  0.00000000000E+00  0.23657296678E+02  0.23657296678E+02  0.00000000000E+00 0.  1.
          1   -1    0    0  501    0  0.00000000000E+00 -0.00000000000E+00 -0.11160640519E+04  0.11160640519E+04  0.00000000000E+00 0. -1.
         23    2    1    2    0    0  0.11437416960E+03 -0.26988048130E+02 -0.35336660878E+03  0.38101350328E+03  0.80582405479E+02 0.  0.
          5    1    1    2  502    0  0.11863171271E+02 -0.29456580959E+02 -0.17827067156E+03  0.18112517697E+03  0.41800000000E+01 0.  1.
         -5    1    1    2    0  502 -0.12623734087E+03  0.56444629089E+02 -0.56076947491E+03  0.57758266835E+03  0.41800000000E+01 0.  1.
        -11    1    3    3    0    0  0.78911495676E+02  0.21818592459E+02 -0.19138256536E+03  0.20815946160E+03  0.00000000000E+00 0.  1.
         11    1    3    3    0    0  0.35462673926E+02 -0.48806640590E+02 -0.16198404341E+03  0.17285404169E+03  0.00000000000E+00 0. -1.
</event>
<event>
 7    1  0.5831876E-006  0.8369936E+02  0.7561462E-02  0.1318869E+00
          3   -1    0    0  501    0  0.00000000000E+00  0.00000000000E+00  0.29985857369E+03  0.29985857369E+03  0.00000000000E+00 0. -1.
         -3   -1    0    0    0  501 -0.00000000000E+00 -0.00000000000E+00 -0.46297599010E+02  0.46297599010E+02  0.00000000000E+00 0.  1.
         23    2    1    2    0    0 -0.28857153622E+02 -0.15415626627E+02  0.76509042061E+02  0.12691689703E+03  0.95832606008E+02 0.  0.
          5    1    1    2  502    0 -0.60301314206E+01  0.40084097718E+02  0.40050936887E+01  0.40946435135E+02  0.41800000000E+01 0.  1.
         -5    1    1    2    0  502  0.34887285042E+02 -0.24668471090E+02  0.17304683893E+03  0.17829284054E+03  0.41800000000E+01 0.  1.
        -11    1    3    3    0    0  0.31424836017E+00 -0.43336083382E+02  0.74865064464E+02  0.86503715250E+02  0.00000000000E+00 0. -1.
         11    1    3    3    0    0 -0.29171401982E+02  0.27920456754E+02  0.16439775975E+01  0.40413181777E+02  0.00000000000E+00 0.  1.
</event>
<event>
 7    1  0.5831876E-006  0.1322279E+03  0.7561462E-02  0.1224187E+00
          3   -1    0    0  501    0  0.00000000000E+00  0.00000000000E+00  0.11321897000E+03  0.11321897000E+03  0.00000000000E+00 0. -1.
         -3   -1    0    0    0  501 -0.00000000000E+00 -0.00000000000E+00 -0.22141280858E+03  0.22141280858E+03  0.00000000000E+00 0.  1.
         23    2    1    2    0    0 -0.90612223049E+02  0.26880839605E+02 -0.11973429869E+03  0.17744698808E+03  0.90653057271E+02 0.  0.
          5    1    1    2  502    0  0.11334911749E+03  0.61231242400E+01 -0.48234124439E+01  0.11369367965E+03  0.41800000000E+01 0. -1.
         -5    1    1    2    0  502 -0.22736894436E+02 -0.33003963845E+02  0.16363872553E+02  0.43491110850E+02  0.41800000000E+01 0. -1.
        -11    1    3    3    0    0 -0.84841641238E+02  0.41794991873E+02 -0.12823240671E+03  0.15933761503E+03  0.00000000000E+00 0.  1.
         11    1    3    3    0    0 -0.57705818107E+01 -0.14914152268E+02  0.84981080195E+01  0.18109373049E+02  0.00000000000E+00 0. -1.
</event>
<event>
 7    1  0.5831876E-006  0.1800709E+03  0.7561462E-02  0.1167734E+00
         -1   -1    0    0    0  501 -0.00000000000E+00  0.00000000000E+00  0.88861681758E+02  0.88861681758E+02  0.00000000000E+00 0.  1.
          1   -1    0    0  501    0  0.00000000000E+00 -0.00000000000E+00 -0.59629601933E+03  0.59629601933E+03  0.00000000000E+00 0. -1.
         23    2    1    2    0    0  0.27492917071E+02  0.16381282388E+03 -0.70954128703E+02  0.20167846015E+03  0.89717396032E+02 0.  0.
          5    1    1    2  502    0 -0.17137868134E+01 -0.13539303480E+03 -0.42036321096E+03  0.44165247929E+03  0.41800000000E+01 0.  1.
         -5    1    1    2    0  502 -0.25779130257E+02 -0.28419789083E+02 -0.16116997910E+02  0.41826761648E+02  0.41800000000E+01 0.  1.
        -11    1    3    3    0    0  0.52457974177E+02  0.61842359459E+02 -0.14169768391E+02  0.82323136568E+02  0.00000000000E+00 0.  1.
         11    1    3    3    0    0 -0.24965057106E+02  0.10197046442E+03 -0.56784360312E+02  0.11935532358E+03  0.00000000000E+00 0. -1.
</event>
<event>
 7    1  0.5831876E-006  0.5932778E+02  0.7561462E-02  0.1400675E+00
         -1   -1    0    0    0  501 -0.00000000000E+00  0.00000000000E+00  0.80115423349E+02  0.80115423349E+02  0.00000000000E+00 0.  1.
          1   -1    0    0  501    0  0.00000000000E+00 -0.00000000000E+00 -0.15629598189E+03  0.15629598189E+03  0.00000000000E+00 0. -1.
         23    2    1    2    0    0 -0.23173378002E+02 -0.35032603547E+01 -0.12840335941E+02  0.94252195274E+02  0.90384311723E+02 0.  0.
          5    1    1    2  502    0  0.21377184646E+02  0.22002855498E+02  0.32239945337E+02  0.44698950198E+02  0.41800000000E+01 0.  1.
         -5    1    1    2    0  502  0.17961933559E+01 -0.18499595143E+02 -0.95580167937E+02  0.97460259768E+02  0.41800000000E+01 0.  1.
        -11    1    3    3    0    0  0.74360384915E+01  0.25447702156E+02 -0.37127286228E+02  0.45621437901E+02  0.00000000000E+00 0. -1.
         11    1    3    3    0    0 -0.30609416494E+02 -0.28950962511E+02  0.24286950287E+02  0.48630757373E+02  0.00000000000E+00 0.  1.
</event>
<event>
 7    1  0.5831876E-006  0.1713732E+03  0.7561462E-02  0.1176423E+00
          2   -1    0    0  501    0  0.00000000000E+00  0.00000000000E+00  0.11191995707E+03  0.11191995707E+03  0.00000000000E+00 0. -1.
         -2   -1    0    0    0  501 -0.00000000000E+00 -0.00000000000E+00 -0.36017076011E+03  0.36017076011E+03  0.00000000000E+00 0.  1.
         23    2    1    2    0    0  0.12311413731E+03 -0.85228286662E+02 -0.20961954997E+03  0.27318994594E+03  0.90947452852E+02 0.  0.
          5    1    1    2  502    0 -0.63127601266E+02 -0.23867196735E+02  0.26466175851E+01  0.67669890692E+02  0.41800000000E+01 0.  1.
         -5    1    1    2    0  502 -0.59986536046E+02  0.10909548340E+03 -0.41277870653E+02  0.13123088055E+03  0.41800000000E+01 0.  1.
        -11    1    3    3    0    0  0.48834495882E+02 -0.24620544270E+02 -0.15152594252E+03  0.16109342149E+03  0.00000000000E+00 0.  1.
         11    1    3    3    0    0  0.74279641431E+02 -0.60607742392E+02 -0.58093607447E+02  0.11209652446E+03  0.00000000000E+00 0. -1.
</event>
<event>
 7    1  0.5831876E-006  0.1094148E+03  0.7561462E-02  0.1261657E+00
          1   -1    0    0  501    0  0.00000000000E+00  0.00000000000E+00  0.17506449874E+03  0.17506449874E+03  0.00000000000E+00 0. -1.
         -1   -1    0    0    0  501 -0.00000000000E+00 -0.00000000000E+00 -0.80381478950E+02  0.80381478950E+02  0.00000000000E+00 0.  1.
         23    2    1    2    0    0 -0.43008629457E+02 -0.21013023381E+02  0.31619351235E+02  0.10740095338E+03  0.90795881272E+02 0.  0.
          5    1    1    2  502    0  0.63021785640E+02  0.54583512063E+02  0.13141516717E+02  0.84506077391E+02  0.41800000000E+01 0.  1.
         -5    1    1    2    0  502 -0.20013156182E+02 -0.33570488682E+02  0.49922151834E+02  0.63538946911E+02  0.41800000000E+01 0.  1.
        -11    1    3    3    0    0 -0.54998865614E+02  0.15885938148E+02  0.37099894617E+02  0.68217596193E+02  0.00000000000E+00 0. -1.
         11    1    3    3    0    0  0.11990236157E+02 -0.36898961529E+02 -0.54805433827E+01  0.39183357191E+02  0.00000000000E+00 0.  1.
</event>
<event>
 7    1  0.5831876E-006  0.1132274E+03  0.7561462E-02  0.1254707E+00
          1   -1    0    0  501    0  0.00000000000E+00  0.00000000000E+00  0.55687526760E+02  0.55687526760E+02  0.00000000000E+00 0. -1.
         -1   -1    0    0    0  501 -0.00000000000E+00 -0.00000000000E+00 -0.42026884538E+03  0.42026884538E+03  0.00000000000E+00 0.  1.
         23    2    1    2    0    0  0.33090062942E+02 -0.59745465978E+02 -0.29802883619E+03  0.31866298751E+03  0.89779950092E+02 0.  0.
          5    1    1    2  502    0 -0.27425165172E+02  0.95552436154E+02 -0.68420951054E+02  0.12075308146E+03  0.41800000000E+01 0. -1.
         -5    1    1    2    0  502 -0.56648977702E+01 -0.35806970176E+02  0.18684686306E+01  0.36540303159E+02  0.41800000000E+01 0. -1.
        -11    1    3    3    0    0 -0.17295222783E+02 -0.12004012294E+02 -0.11791849360E+02  0.24130245618E+02  0.00000000000E+00 0. -1.
         11    1    3    3    0    0  0.50385285725E+02 -0.47741453684E+02 -0.28623698683E+03  0.29453274190E+03  0.00000000000E+00 0.  1.
</event>
<event>
 7    1  0.5831876E-006  0.1023924E+03  0.7561462E-02  0.1275344E+00
         -1   -1    0    0    0  501 -0.00000000000E+00  0.00000000000E+00  0.17237730805E+03  0.17237730805E+03  0.00000000000E+00 0.  1.
          1   -1    0    0  501    0  0.00000000000E+00 -0.00000000000E+00 -0.96668407896E+02  0.96668407896E+02  0.00000000000E+00 0. -1.
         23    2    1    2    0    0  0.54205747309E+02  0.48077591022E+02  0.42786443029E+02  0.12072789376E+03  0.86572667880E+02 0.  0.
          5    1    1    2  502    0 -0.22005237668E+02 -0.55515712699E+02  0.74159717278E+02  0.95306667700E+02  0.41800000000E+01 0.  1.
         -5    1    1    2    0  502 -0.32200509641E+02  0.74381216775E+01 -0.41237260154E+02  0.53011154489E+02  0.41800000000E+01 0.  1.
        -11    1    3    3    0    0  0.39771870244E+02  0.72814892418E+02  0.39525327544E+02  0.91902457737E+02  0.00000000000E+00 0.  1.
         11    1    3    3    0    0  0.14433877065E+02 -0.24737301396E+02  0.32611154850E+01  0.28825436019E+02  0.00000000000E+00 0. -1.
</event>
<event>
 7    1  0.5831876E-006  0.1238206E+03  0.7561462E-02  0.1236924E+00
          2   -1    0    0  501    0  0.00000000000E+00  0.00000000000E+00  0.11666841153E+04  0.11666841153E+04  0.00000000000E+00 0. -1.
         -2   -1    0    0    0  501 -0.00000000000E+00 -0.00000000000E+00 -0.18592996411E+02  0.18592996411E+02  0.00000000000E+00 0.  1.
         23    2    1    2    0    0  0.43957839333E+02 -0.44992412725E+02  0.21652132504E+03  0.24324389929E+03  0.91266102729E+02 0.  0.
          5    1    1    2  502    0 -0.78316108489E+02  0.60495558831E+02  0.75255566349E+03  0.75904586458E+03  0.41800000000E+01 0.  1.
         -5    1    1    2    0  502  0.34358269156E+02 -0.15503146106E+02  0.17901413041E+03  0.18298734788E+03  0.41800000000E+01 0.  1.
        -11    1    3    3    0    0  0.48216705042E+02  0.15021847394E+02  0.92032360670E+02  0.10497838804E+03  0.00000000000E+00 0.  1.
         11    1    3    3    0    0 -0.42588657088E+01 -0.60014260119E+02  0.12448896437E+03  0.13826551126E+03  0.00000000000E+00 0. -1.
</event>
<event>
 7    1  0.5831876E-006  0.1196259E+03  0.7561462E-02  0.1243715E+00
         -1   -1    0    0    0  501 -0.00000000000E+00  0.00000000000E+00  0.52662911664E+02  0.52662911664E+02  0.00000000000E+00 0.  1.
          1   -1    0    0  501    0  0.00000000000E+00 -0.00000000000E+00 -0.35771305869E+03  0.35771305869E+03  0.00000000000E+00 0. -1.
         23    2    1    2    0    0 -0.55017672402E+02 -0.20097921559E+02 -0.46431610377E+02  0.11718220681E+03  0.90249124226E+02 0.  0.
          5    1    1    2  502    0 -0.22565350281E+02 -0.32492750920E+02 -0.11462817610E+03  0.12133451714E+03  0.41800000000E+01 0.  1.
         -5    1    1    2    0  502  0.77583022683E+02  0.52590672478E+02 -0.14399036055E+03  0.17185924640E+03  0.41800000000E+01 0.  1.
        -11    1    3    3    0    0 -0.64337976201E+02 -0.45362564748E+02 -0.43898276130E+02  0.90134322593E+02  0.00000000000E+00 0. -1.
         11    1    3    3    0    0  0.93203037984E+01  0.25264643189E+02 -0.25333342477E+01  0.27047884220E+02  0.00000000000E+00 0.  1.
</event>
<event>
 7    1  0.5831876E-006  0.1343888E+03  0.7561462E-02  0.1221085E+00
          1   -1    0    0  501    0  0.00000000000E+00  0.00000000000E+00  0.93308181962E+03  0.93308181962E+03  0.00000000000E+00 0. -1.
         -1   -1    0    0    0  501 -0.00000000000E+00 -0.00000000000E+00 -0.27031827936E+02  0.27031827936E+02  0.00000000000E+00 0.  1.
         23    2    1    2    0    0 -0.80444434825E+02 -0.40370043194E+02  0.19794534109E+03  0.23543402116E+03  0.90253934982E+02 0.  0.
          5    1    1    2  502    0 -0.80646717883E+01 -0.35325559730E+02  0.20820496467E+03  0.21137576449E+03  0.41800000000E+01 0. -1.
         -5    1    1    2    0  502  0.88509106614E+02  0.75695602924E+02  0.49989968593E+03  0.51330386190E+03  0.41800000000E+01 0. -1.
        -11    1    3    3    0    0 -0.37903554109E+02  0.19259195439E+02  0.29489156825E+02  0.51741727777E+02  0.00000000000E+00 0.  1.
         11    1    3    3    0    0 -0.42540880716E+02 -0.59629238633E+02  0.16845618427E+03  0.18369229339E+03  0.00000000000E+00 0. -1.
</event>
<event>
 7    1  0.5831876E-006  0.1751350E+03  0.7561462E-02  0.1172596E+00
         -2   -1    0    0    0  501 -0.00000000000E+00  0.00000000000E+00  0.40764466176E+03  0.40764466176E+03  0.00000000000E+00 0.  1.
          2   -1    0    0  501    0  0.00000000000E+00 -0.00000000000E+00 -0.92936610510E+02  0.92936610510E+02  0.00000000000E+00 0. -1.
         23    2    1    2    0    0  0.60779535116E+02 -0.13216186807E+03  0.22472667399E+03  0.28393132772E+03  0.94625628673E+02 0.  0.
          5    1    1    2  502    0  0.37611469955E+02  0.82910382826E+01  0.20353497444E+02  0.43761869775E+02  0.41800000000E+01 0. -1.
         -5    1    1    2    0  502 -0.98391005071E+02  0.12387082978E+03  0.69627879817E+02  0.17288807477E+03  0.41800000000E+01 0.  1.
        -11    1    3    3    0    0  0.29207584723E+02 -0.16836134504E+02  0.54179626370E+01  0.34145171687E+02  0.00000000000E+00 0. -1.
         11    1    3    3    0    0  0.31571950392E+02 -0.11532573356E+03  0.21930871135E+03  0.24978615604E+03  0.00000000000E+00 0.  1.
</event>
<event>
 7    1  0.5831876E-006  0.1161279E+03  0.7561462E-02  0.1249625E+00
         -1   -1    0    0    0  501 -0.00000000000E+00  0.00000000000E+00  0.43645213246E+03  0.43645213246E+03  0.00000000000E+00 0.  1.
          1   -1    0    0  501    0  0.00000000000E+00 -0.00000000000E+00 -0.45478743304E+02  0.45478743304E+02  0.00000000000E+00 0. -1.
         23    2    1    2    0    0 -0.86318308782E+02  0.16852897411E+02  0.18022354971E+03  0.22155246194E+03  0.94181181460E+02 0.  0.
          5    1    1    2  502    0  0.10478144710E+02  0.36132246214E+02  0.13658081792E+03  0.14172904768E+03  0.41800000000E+01 0.  1.
         -5    1    1    2    0  502  0.75840164072E+02 -0.52985143625E+02  0.74169021533E+02  0.11864936614E+03  0.41800000000E+01 0.  1.
        -11    1    3    3    0    0 -0.68027397251E+01  0.21094881399E+02 -0.24288285405E+01  0.22297320402E+02  0.00000000000E+00 0. -1.
         11    1    3    3    0    0 -0.79515569056E+02 -0.42419839879E+01  0.18265237825E+03  0.19925514154E+03  0.00000000000E+00 0.  1.
</event>
<event>
 7    1  0.5831876E-006  0.1412406E+03  0.7561462E-02  0.1211669E+00
          2   -1    0    0  501    0  0.00000000000E+00  0.00000000000E+00  0.14200296526E+03  0.14200296526E+03  0.00000000000E+00 0.  1.
         -2   -1    0    0    0  501 -0.00000000000E+00 -0.00000000000E+00 -0.17899134422E+03  0.17899134422E+03  0.00000000000E+00 0. -1.
         23    2    1    2    0    0  0.84185674047E+02  0.78735855321E+02 -0.52228623327E+01  0.14795309905E+03  0.92608199412E+02 0.  0.
          5    1    1    2  502    0 -0.53271469517E+01 -0.86429577103E+02 -0.35332624052E+02  0.93617931056E+02  0.41800000000E+01 0.  1.
         -5    1    1    2    0  502 -0.78858527096E+02  0.76937217821E+01  0.35671074245E+01  0.79423279370E+02  0.41800000000E+01 0.  1.
        -11    1    3    3    0    0  0.15860017966E+02  0.24606683188E+02 -0.43757062760E+02  0.52647028110E+02  0.00000000000E+00 0. -1.
         11    1    3    3    0    0  0.68325656081E+02  0.54129172133E+02  0.38534200427E+02  0.95306070936E+02  0.00000000000E+00 0.  1.
</event>
<event>
 7    1  0.5831876E-006  0.1095818E+03  0.7561462E-02  0.1261346E+00
          2   -1    0    0  501    0  0.00000000000E+00  0.00000000000E+00  0.30431076936E+03  0.30431076936E+03  0.00000000000E+00 0. -1.
         -2   -1    0    0    0  501 -0.00000000000E+00 -0.00000000000E+00 -0.44592520414E+02  0.44592520414E+02  0.00000000000E+00 0.  1.
         23    2    1    2    0    0  0.28681521762E+02 -0.32001939908E+02  0.11601400743E+03  0.15359618533E+03  0.91026284008E+02 0.  0.
          5    1    1    2  502    0 -0.20627394055E+02 -0.47435895882E+02  0.49103644300E+02  0.71444341184E+02  0.41800000000E+01 0.  1.
         -5    1    1    2    0  502 -0.80541277068E+01  0.79437835790E+02  0.94600597221E+02  0.12386276326E+03  0.41800000000E+01 0.  1.
        -11    1    3    3    0    0 -0.23083958457E+02  0.50808404656E+01  0.73053398773E+02  0.76782049661E+02  0.00000000000E+00 0. -1.
         11    1    3    3    0    0  0.51765480219E+02 -0.37082780374E+02  0.42960608652E+02  0.76814135668E+02  0.00000000000E+00 0.  1.
</event>
<event>
 7    1  0.5831876E-006  0.5842879E+02  0.7561462E-02  0.1404546E+00
          2   -1    0    0  501    0  0.00000000000E+00  0.00000000000E+00  0.16033946231E+03  0.16033946231E+03  0.00000000000E+00 0. -1.
         -2   -1    0    0    0  501 -0.00000000000E+00 -0.00000000000E+00 -0.94543934487E+02  0.94543934487E+02  0.00000000000E+00 0.  1.
         23    2    1    2    0    0 -0.10136439981E+02  0.38247230559E+02 -0.87356997584E+01  0.10399330865E+03  0.95774201817E+02 0.  0.
          5    1    1    2  502    0 -0.99390073201E+01 -0.47255768721E+00 -0.33195191971E+02  0.34905591919E+02  0.41800000000E+01 0. -1.
         -5    1    1    2    0  502  0.20075447302E+02 -0.37774672871E+02  0.10772641955E+03  0.11598449622E+03  0.41800000000E+01 0. -1.
        -11    1    3    3    0    0 -0.30019189122E+02  0.19800063718E+02  0.36506746593E+02  0.51243895106E+02  0.00000000000E+00 0. -1.
         11    1    3    3    0    0  0.19882749141E+02  0.18447166841E+02 -0.45242446351E+02  0.52749413549E+02  0.00000000000E+00 0.  1.
</event>
<event>
 7    1  0.5831876E-006  0.1131421E+03  0.7561462E-02  0.1254859E+00
          1   -1    0    0  501    0  0.00000000000E+00  0.00000000000E+00  0.13451716812E+04  0.13451716812E+04  0.00000000000E+00 0. -1.
         -1   -1    0    0    0  501 -0.00000000000E+00 -0.00000000000E+00 -0.11128512054E+02  0.11128512054E+02  0.00000000000E+00 0.  1.
         23    2    1    2    0    0 -0.97297909953E+00  0.54904511431E+02  0.52106224077E+03  0.53192231235E+03  0.91760751708E+02 0.  0.
          5    1    1    2  502    0 -0.46901689104E+02 -0.55140729174E+02  0.66136109331E+03  0.66532415904E+03  0.41800000000E+01 0.  1.
         -5    1    1    2    0  502  0.47874668203E+02  0.23621774309E+00  0.15161983504E+03  0.15905372185E+03  0.41800000000E+01 0.  1.
        -11    1    3    3    0    0  0.37874916826E+02  0.55107399562E+02  0.36668245287E+03  0.37272960180E+03  0.00000000000E+00 0.  1.
         11    1    3    3    0    0 -0.38847895926E+02 -0.20288813084E+00  0.15437978790E+03  0.15919271055E+03  0.00000000000E+00 0. -1.
</event>
<event>
 7    1  0.5831876E-006  0.9099897E+02  0.7561462E-02  0.1300450E+00
         -1   -1    0    0    0  501 -0.00000000000E+00  0.00000000000E+00  0.60052416294E+03  0.60052416294E+03  0.00000000000E+00 0.  1.
          1   -1    0    0  501    0  0.00000000000E+00 -0.00000000000E+00 -0.34487738360E+02  0.34487738360E+02  0.00000000000E+00 0. -1.
         23    2    1    2    0    0 -0.46435628861E+02  0.27660982288E+02  0.42614509015E+03  0.43972115758E+03  0.93987557642E+02 0.  0.
          5    1    1    2  502    0  0.48928747882E+02  0.13855430504E+01  0.15470916346E+03  0.16232171684E+03  0.41800000000E+01 0.  1.
         -5    1    1    2    0  502 -0.24931190208E+01 -0.29046525339E+02 -0.14817829030E+02  0.32969026887E+02  0.41800000000E+01 0.  1.
        -11    1    3    3    0    0 -0.64478468692E+02 -0.64812867330E+01  0.19811399938E+03  0.20844336582E+03  0.00000000000E+00 0. -1.
         11    1    3    3    0    0  0.18042839831E+02  0.34142269021E+02  0.22803109077E+03  0.23127779176E+03  0.00000000000E+00 0.  1.
</event>
<event>
 7    1  0.5831876E-006  0.9802078E+02  0.7561462E-02  0.1284514E+00
         -2   -1    0    0    0  501 -0.00000000000E+00  0.00000000000E+00  0.38144525319E+02  0.38144525319E+02  0.00000000000E+00 0.  1.
          2   -1    0    0  501    0  0.00000000000E+00 -0.00000000000E+00 -0.49935358329E+03  0.49935358329E+03  0.00000000000E+00 0. -1.
         23    2    1    2    0    0 -0.78775902835E+02  0.26879901199E+02 -0.18281137936E+03  0.22114144075E+03  0.92495213040E+02 0.  0.
          5    1    1    2  502    0 -0.35712208960E+01  0.16895566262E+02 -0.17942930616E+03  0.18030685535E+03  0.41800000000E+01 0.  1.
         -5    1    1    2    0  502  0.82347123731E+02 -0.43775467462E+02 -0.98968372442E+02  0.13604981250E+03  0.41800000000E+01 0.  1.
        -11    1    3    3    0    0 -0.19621887919E+02 -0.74124299991E+00  0.66627066596E+01  0.20735466880E+02  0.00000000000E+00 0.  1.
         11    1    3    3    0    0 -0.59154014916E+02  0.27621144199E+02 -0.18947408602E+03  0.20040597387E+03  0.00000000000E+00 0. -1.
</event>
<event>
 7    1  0.5831876E-006  0.1082146E+03  0.7561462E-02  0.1263912E+00
          1   -1    0    0  501    0  0.00000000000E+00  0.00000000000E+00  0.94267088465E+02  0.94267088465E+02  0.00000000000E+00 0. -1.
         -1   -1    0    0    0  501 -0.00000000000E+00 -0.00000000000E+00 -0.16215541342E+03  0.16215541342E+03  0.00000000000E+00 0.  1.
         23    2    1    2    0    0  0.31507156610E+02 -0.23039186471E+02 -0.75794012335E+02  0.12514392814E+03  0.91612037489E+02 0.  0.
          5    1    1    2  502    0 -0.58938262273E+02  0.52898631045E+02 -0.20111701115E+02  0.81816482740E+02  0.41800000000E+01 0. -1.
         -5    1    1    2    0  502  0.27431105663E+02 -0.29859444574E+02  0.28017388499E+02  0.49462091004E+02  0.41800000000E+01 0. -1.
        -11    1    3    3    0    0  0.55267398576E+02  0.94923893422E+01 -0.28131084194E+02  0.62737139707E+02  0.00000000000E+00 0. -1.
         11    1    3    3    0    0 -0.23760241966E+02 -0.32531575813E+02 -0.47662928141E+02  0.62406788430E+02  0.00000000000E+00 0.  1.
</event>
<event>
 7    1  0.5831876E-006  0.1044710E+03  0.7561462E-02  0.1271165E+00
         -1   -1    0    0    0  501 -0.00000000000E+00  0.00000000000E+00  0.11373458571E+02  0.11373458571E+02  0.00000000000E+00 0.  1.
          1   -1    0    0  501    0  0.00000000000E+00 -0.00000000000E+00 -0.16763300481E+04  0.16763300481E+04  0.00000000000E+00 0. -1.
         23    2    1    2    0    0 -0.16537062736E+02  0.53572362331E+02 -0.30134134014E+03  0.31721971616E+03  0.81720698693E+02 0.  0.
          5    1    1    2  502    0 -0.44378047542E+02 -0.32636728438E+02 -0.30934025921E+03  0.31423468223E+03  0.41800000000E+01 0.  1.
         -5    1    1    2    0  502  0.60915110278E+02 -0.20935633893E+02 -0.10542749902E+04  0.10562491083E+04  0.41800000000E+01 0.  1.
        -11    1    3    3    0    0  0.13581664056E+02 -0.11272750238E+02 -0.18862148409E+02  0.25832482247E+02  0.00000000000E+00 0.  1.
         11    1    3    3    0    0 -0.30118726791E+02  0.64845112569E+02 -0.28247919173E+03  0.29138723392E+03  0.00000000000E+00 0. -1.
</event>
<event>
 7    1  0.5831876E-006  0.9250164E+02  0.7561462E-02  0.1296904E+00
          2   -1    0    0  501    0  0.00000000000E+00  0.00000000000E+00  0.19506850045E+03  0.19506850045E+03  0.00000000000E+00 0. -1.
         -2   -1    0    0    0  501 -0.00000000000E+00 -0.00000000000E+00 -0.12425105729E+03  0.12425105729E+03  0.00000000000E+00 0.  1.
         23    2    1    2    0    0  0.34215588894E+02 -0.55637583628E+02 -0.59704826801E+02  0.12709597869E+03  0.91227595721E+02 0.  0.
          5    1    1    2  502    0  0.26696770698E+02  0.40625780705E+02  0.11857950698E+03  0.12822536215E+03  0.41800000000E+01 0.  1.
         -5    1    1    2    0  502 -0.60912359592E+02  0.15011802923E+02  0.11942762984E+02  0.63998216895E+02  0.41800000000E+01 0.  1.
        -11    1    3    3    0    0  0.40159340705E+02 -0.40322382850E+02 -0.81746887788E+02  0.99605325498E+02  0.00000000000E+00 0.  1.
         11    1    3    3    0    0 -0.59437518113E+01 -0.15315200779E+02  0.22042060987E+02  0.27490653194E+02  0.00000000000E+00 0. -1.
</event>
<event>
 7    1  0.5831876E-006  0.1482053E+03  0.7561462E-02  0.1202696E+00
          1   -1    0    0  501    0  0.00000000000E+00  0.00000000000E+00  0.29983991862E+03  0.29983991862E+03  0.00000000000E+00 0. -1.
         -1   -1    0    0    0  501 -0.00000000000E+00 -0.00000000000E+00 -0.83406229913E+02  0.83406229913E+02  0.00000000000E+00 0.  1.
         23    2    1    2    0    0 -0.11005529642E+03  0.20237607977E+01  0.13990450463E+03  0.19988639190E+03  0.90912239954E+02 0.  0.
          5    1    1    2  502    0  0.49775746687E+02 -0.60318730688E+02  0.16205779682E+02  0.79975458267E+02  0.41800000000E+01 0. -1.
         -5    1    1    2    0  502  0.60279549734E+02  0.58294969890E+02  0.60323404397E+02  0.10338429837E+03  0.41800000000E+01 0. -1.
        -11    1    3    3    0    0  0.11976908108E+02  0.17282875940E+01 -0.24902033890E+01  0.12354530293E+02  0.00000000000E+00 0.  1.
         11    1    3    3    0    0 -0.12203220453E+03  0.29547320365E+00  0.14239470802E+03  0.18753186161E+03  0.00000000000E+00 0. -1.
</event>
<event>
 7    1  0.5831876E-006  0.3096790E+03  0.7561462E-02  0.1080500E+00
          2   -1    0    0  501    0  0.00000000000E+00  0.00000000000E+00  0.14349203294E+04  0.14349203294E+04  0.00000000000E+00 0. -1.
         -2   -1    0    0    0  501 -0.00000000000E+00 -0.00000000000E+00 -0.78466262363E+02  0.78466262363E+02  0.00000000000E+00 0.  1.
         23    2    1    2    0    0 -0.18164822626E+03 -0.24780488629E+03  0.48892643084E+03  0.58459891726E+03  0.91123539838E+02 0.  0.
          5    1    1    2  502    0  0.14071198108E+02  0.44147239009E+02  0.43947990297E+02  0.63999027957E+02  0.41800000000E+01 0.  1.
         -5    1    1    2    0  502  0.16757702815E+03  0.20365764728E+03  0.82357964590E+03  0.86478864655E+03  0.41800000000E+01 0.  1.
        -11    1    3    3    0    0 -0.13474577562E+03 -0.20644574667E+03  0.44312704654E+03  0.50708761544E+03  0.00000000000E+00 0.  1.
         11    1    3    3    0    0 -0.46902450638E+02 -0.41359139621E+02  0.45799384303E+02  0.77511301812E+02  0.00000000000E+00 0. -1.
</event>
<event>
 7    1  0.5831876E-006  0.1671502E+03  0.7561462E-02  0.1180853E+00
          1   -1    0    0  501    0  0.00000000000E+00  0.00000000000E+00  0.50727878997E+03  0.50727878997E+03  0.00000000000E+00 0. -1.
         -1   -1    0    0    0  501 -0.00000000000E+00 -0.00000000000E+00 -0.64284211198E+02  0.64284211198E+02  0.00000000000E+00 0.  1.
         23    2    1    2    0    0 -0.98951302818E+02  0.82644881743E+02  0.10481746102E+03  0.18863414267E+03  0.89300631805E+02 0.  0.
          5    1    1    2  502    0  0.12740667080E+03 -0.80348839830E+02  0.28847840854E+03  0.32546222580E+03  0.41800000000E+01 0. -1.
         -5    1    1    2    0  502 -0.28455367986E+02 -0.22960419130E+01  0.49698709213E+02  0.57466632693E+02  0.41800000000E+01 0. -1.
        -11    1    3    3    0    0 -0.48940142728E+02  0.91696990302E+02  0.84288470298E+02  0.13382085722E+03  0.00000000000E+00 0. -1.
         11    1    3    3    0    0 -0.50011160089E+02 -0.90521085588E+01  0.20528990720E+02  0.54813285459E+02  0.00000000000E+00 0.  1.
</event>
<event>
 7    1  0.5831876E-006  0.1040249E+03  0.7561462E-02  0.1272053E+00
         -1   -1    0    0    0  501 -0.00000000000E+00  0.00000000000E+00  0.47185534481E+02  0.47185534481E+02  0.00000000000E+00 0.  1.
          1   -1    0    0  501    0  0.00000000000E+00 -0.00000000000E+00 -0.38457830821E+03  0.38457830821E+03  0.00000000000E+00 0. -1.
         23    2    1    2    0    0 -0.23855413134E+02 -0.71540179656E+02 -0.10224076287E+03  0.15493603605E+03  0.88684404674E+02 0.  0.
          5    1    1    2  502    0  0.24084212801E+02 -0.40861466850E+01  0.47662574928E+01  0.25237581331E+02  0.41800000000E+01 0. -1.
         -5    1    1    2    0  502 -0.22879966696E+00  0.75626326341E+02 -0.23991826834E+03  0.25159022531E+03  0.41800000000E+01 0. -1.
        -11    1    3    3    0    0  0.27385236893E+02 -0.35698049593E+02 -0.14655587263E+02  0.47319004454E+02  0.00000000000E+00 0.  1.
         11    1    3    3    0    0 -0.51240650027E+02 -0.35842130063E+02 -0.87585175610E+02  0.10761703159E+03  0.00000000000E+00 0. -1.
</event>
<event>
 7    1  0.5831876E-006  0.1003654E+03  0.7561462E-02  0.1279529E+00
          1   -1    0    0  501    0  0.00000000000E+00  0.00000000000E+00  0.50635182159E+03  0.50635182159E+03  0.00000000000E+00 0. -1.
         -1   -1    0    0    0  501 -0.00000000000E+00 -0.00000000000E+00 -0.24508073098E+02  0.24508073098E+02  0.00000000000E+00 0.  1.
         23    2    1    2    0    0  0.18117972454E+01  0.70570020558E+01  0.14688617112E+03  0.17323837651E+03  0.91558199761E+02 0.  0.
          5    1    1    2  502    0  0.45501752298E+02  0.26021548515E+02  0.24552414864E+03  0.25109183662E+03  0.41800000000E+01 0.  1.
         -5    1    1    2    0  502 -0.47313549543E+02 -0.33078550571E+02  0.89433428732E+02  0.10652968156E+03  0.41800000000E+01 0.  1.
        -11    1    3    3    0    0  0.20392530796E+02 -0.37113393450E+02  0.53089268761E+02  0.67909717591E+02  0.00000000000E+00 0. -1.
         11    1    3    3    0    0 -0.18580733550E+02  0.44170395506E+02  0.93796902357E+02  0.10532865892E+03  0.00000000000E+00 0.  1.
</event>
<event>
 7    1  0.5831876E-006  0.8488000E+02  0.7561462E-02  0.1315747E+00
          4   -1    0    0  501    0  0.00000000000E+00  0.00000000000E+00  0.79063997746E+02  0.79063997746E+02  0.00000000000E+00 0.  1.
         -4   -1    0    0    0  501 -0.00000000000E+00 -0.00000000000E+00 -0.18198392196E+03  0.18198392196E+03  0.00000000000E+00 0. -1.
         23    2    1    2    0    0 -0.40518047978E+02 -0.25087252874E+02 -0.66276969700E+02  0.12226271739E+03  0.91018969899E+02 0.  0.
          5    1    1    2  502    0  0.18300158732E+02  0.60491246346E+02  0.21649060673E+02  0.66934601830E+02  0.41800000000E+01 0.  1.
         -5    1    1    2    0  502  0.22217889246E+02 -0.35403993473E+02 -0.58292015191E+02  0.71850600494E+02  0.41800000000E+01 0.  1.
        -11    1    3    3    0    0 -0.12257826998E+02  0.12422845290E+02  0.18445972283E+02  0.25393607489E+02  0.00000000000E+00 0.  1.
         11    1    3    3    0    0 -0.28260220980E+02 -0.37510098163E+02 -0.84722941984E+02  0.96869109898E+02  0.00000000000E+00 0. -1.
</event>
<event>
 7    1  0.5831876E-006  0.1250735E+03  0.7561462E-02  0.1234955E+00
          2   -1    0    0  501    0  0.00000000000E+00  0.00000000000E+00  0.28259270221E+03  0.28259270221E+03  0.00000000000E+00 0. -1.
         -2   -1    0    0    0  501 -0.00000000000E+00 -0.00000000000E+00 -0.72486037786E+02  0.72486037786E+02  0.00000000000E+00 0.  1.
         23    2    1    2    0    0 -0.67893365385E+02 -0.49194610785E+02  0.42197043924E+02  0.12953235746E+03  0.89266019962E+02 0.  0.
          5    1    1    2  502    0 -0.23767238558E+02  0.47106016671E+02  0.32983499130E+02  0.62363787971E+02  0.41800000000E+01 0. -1.
         -5    1    1    2    0  502  0.91660603943E+02  0.20885941138E+01  0.13492612137E+03  0.16318259456E+03  0.41800000000E+01 0. -1.
        -11    1    3    3    0    0 -0.21876797823E+02 -0.54873865627E+02  0.55749603264E+02  0.81226557700E+02  0.00000000000E+00 0. -1.
         11    1    3    3    0    0 -0.46016567563E+02  0.56792548420E+01 -0.13552559340E+02  0.48305799760E+02  0.00000000000E+00 0.  1.
</event>
<event>
 7    1  0.5831876E-006  0.1495286E+03  0.7561462E-02  0.1201053E+00
         -1   -1    0    0    0  501 -0.00000000000E+00  0.00000000000E+00  0.30222074624E+03  0.30222074624E+03  0.00000000000E+00 0.  1.
          1   -1    0    0  501    0  0.00000000000E+00 -0.00000000000E+00 -0.11682217075E+03  0.11682217075E+03  0.00000000000E+00 0. -1.
         23    2    1    2    0    0  0.69159195484E+02 -0.11015324090E+03  0.17665948889E+03  0.23837866476E+03  0.93268869383E+02 0.  0.
          5    1    1    2  502    0 -0.29717694160E+02 -0.11856890210E+02 -0.32604665812E+02  0.45872255497E+02  0.41800000000E+01 0.  1.
         -5    1    1    2    0  502 -0.39441501323E+02  0.12201013111E+03  0.41343752405E+02  0.13479199673E+03  0.41800000000E+01 0.  1.
        -11    1    3    3    0    0  0.62719846693E+02 -0.56374617383E+02  0.44069313460E+02  0.95152409550E+02  0.00000000000E+00 0. -1.
         11    1    3    3    0    0  0.64393487906E+01 -0.53778623518E+02  0.13259017543E+03  0.14322625521E+03  0.00000000000E+00 0.  1.
</event>
<event>
 7    1  0.5831876E-006  0.8740261E+02  0.7561462E-02  0.1309266E+00
          2   -1    0    0  501    0  0.00000000000E+00  0.00000000000E+00  0.18002027602E+04  0.18002027602E+04  0.00000000000E+00 0. -1.
         -2   -1    0    0    0  501 -0.00000000000E+00 -0.00000000000E+00 -0.10235190638E+02  0.10235190638E+02  0.00000000000E+00 0.  1.
         23    2    1    2    0    0 -0.34570955237E+02  0.23698098270E+02  0.34578070990E+03  0.36046080954E+03  0.92795178046E+02 0.  0.
          5    1    1    2  502    0  0.43983805199E+02  0.45082062885E+01  0.13576933750E+04  0.13584195493E+04  0.41800000000E+01 0. -1.
         -5    1    1    2    0  502 -0.94128499624E+01 -0.28206304558E+02  0.86493484742E+02  0.91557592061E+02  0.41800000000E+01 0.  1.
        -11    1    3    3    0    0 -0.64283125148E+02  0.33817060647E+01  0.19122108079E+03  0.20176535345E+03  0.00000000000E+00 0.  1.
         11    1    3    3    0    0  0.29712169911E+02  0.20316392205E+02  0.15455962911E+03  0.15869545609E+03  0.00000000000E+00 0. -1.
</event>
<event>
 7    1  0.5831876E-006  0.7425759E+02  0.7561462E-02  0.1346186E+00
         -1   -1    0    0    0  501 -0.00000000000E+00  0.00000000000E+00  0.13722182195E+02  0.13722182195E+02  0.00000000000E+00 0.  1.
          1   -1    0    0  501    0  0.00000000000E+00 -0.00000000000E+00 -0.20244512550E+04  0.20244512550E+04  0.00000000000E+00 0. -1.
         23    2    1    2    0    0 -0.44792033988E+01 -0.24075291573E+02 -0.18457537970E+03  0.20757529578E+03  0.91759194105E+02 0.  0.
          5    1    1    2  502    0  0.35708887871E+02  0.19762534735E+02 -0.20154674056E+03  0.20567995401E+03  0.41800000000E+01 0. -1.
         -5    1    1    2    0  502 -0.31229684472E+02  0.43127568375E+01 -0.16246069526E+04  0.16249181874E+04  0.41800000000E+01 0. -1.
        -11    1    3    3    0    0  0.33343268911E+02 -0.64587458818E+01 -0.14876013562E+03  0.15258789903E+03  0.00000000000E+00 0. -1.
         11    1    3    3    0    0 -0.37822472310E+02 -0.17616545691E+02 -0.35815244072E+02  0.54987396753E+02  0.00000000000E+00 0.  1.
</event>
<event>
 7    1  0.5831876E-006  0.1032177E+03  0.7561462E-02  0.1273672E+00
         -3   -1    0    0    0  501 -0.00000000000E+00  0.00000000000E+00  0.10382199630E+03  0.10382199630E+03  0.00000000000E+00 0.  1.
          3   -1    0    0  501    0  0.00000000000E+00 -0.00000000000E+00 -0.13605324575E+03  0.13605324575E+03  0.00000000000E+00 0. -1.
         23    2    1    2    0    0  0.28922979916E+02 -0.37267360053E+02 -0.24173051198E+02  0.10594815636E+03  0.91734838198E+02 0.  0.
          5    1    1    2  502    0  0.44960775673E+01  0.66776787941E+02 -0.40764062069E+02  0.78476335780E+02  0.41800000000E+01 0. -1.
         -5    1    1    2    0  502 -0.33419057483E+02 -0.29509427888E+02  0.32705863812E+02  0.55450749905E+02  0.41800000000E+01 0. -1.
        -11    1    3    3    0    0 -0.28983750545E+02 -0.10812606899E+02 -0.28601317889E+02  0.42130815902E+02  0.00000000000E+00 0. -1.
         11    1    3    3    0    0  0.57906730461E+02 -0.26454753154E+02  0.44282666916E+01  0.63817340457E+02  0.00000000000E+00 0.  1.
</event>
<event>
 7    1  0.5831876E-006  0.8137069E+02  0.7561462E-02  0.1325206E+00
          1   -1    0    0  501    0  0.00000000000E+00  0.00000000000E+00  0.25223029874E+03  0.25223029874E+03  0.00000000000E+00 0. -1.
         -1   -1    0    0    0  501 -0.00000000000E+00 -0.00000000000E+00 -0.42861924954E+02  0.42861924954E+02  0.00000000000E+00 0.  1.
         23    2    1    2    0    0  0.27314871184E+02  0.14916092747E+02  0.48657627918E+02  0.89073392584E+02  0.67807908839E+02 0.  0.
          5    1    1    2  502    0 -0.17104434694E+02  0.52154282939E+02  0.42053325023E+02  0.69271822991E+02  0.41800000000E+01 0.  1.
         -5    1    1    2    0  502 -0.10210436489E+02 -0.67070375686E+02  0.11865742085E+03  0.13674700812E+03  0.41800000000E+01 0.  1.
        -11    1    3    3    0    0  0.56441330661E+01  0.17038316400E+02 -0.13985239019E+02  0.22754062808E+02  0.00000000000E+00 0.  1.
         11    1    3    3    0    0  0.21670738118E+02 -0.21222236534E+01  0.62642866938E+02  0.66319329776E+02  0.00000000000E+00 0. -1.
</event>
<event>
 7    1  0.5831876E-006  0.1156813E+03  0.7561462E-02  0.1250397E+00
         -2   -1    0    0    0  501 -0.00000000000E+00  0.00000000000E+00  0.21318016365E+03  0.21318016365E+03  0.00000000000E+00 0.  1.
          2   -1    0    0  501    0  0.00000000000E+00 -0.00000000000E+00 -0.11622154696E+03  0.11622154696E+03  0.00000000000E+00 0. -1.
         23    2    1    2    0    0 -0.81437038921E+02  0.57161178727E+02  0.10057085818E+03  0.16952757981E+03  0.93411515030E+02 0.  0.
          5    1    1    2  502    0  0.65721120209E+02 -0.37923943084E+02 -0.60840375332E+02  0.97347392215E+02  0.41800000000E+01 0. -1.
         -5    1    1    2    0  502  0.15715918713E+02 -0.19237235643E+02  0.57228133837E+02  0.62526738589E+02  0.41800000000E+01 0. -1.
        -11    1    3    3    0    0 -0.15738936646E+02  0.62322212039E+02  0.24271640469E+02  0.68708695020E+02  0.00000000000E+00 0. -1.
         11    1    3    3    0    0 -0.65698102275E+02 -0.51610333125E+01  0.76299217714E+02  0.10081888479E+03  0.00000000000E+00 0.  1.
</event>
<event>
 7    1  0.5831876E-006  0.1146969E+03  0.7561462E-02  0.1252111E+00
          2   -1    0    0  501    0  0.00000000000E+00  0.00000000000E+00  0.13181262920E+04  0.13181262920E+04  0.00000000000E+00 0. -1.
         -2   -1    0    0    0  501 -0.00000000000E+00 -0.00000000000E+00 -0.18135204574E+02  0.18135204574E+02  0.00000000000E+00 0.  1.
         23    2    1    2    0    0 -0.18539938050E+02 -0.59995265773E+02  0.21475585776E+03  0.24203745421E+03  0.92297830834E+02 0.  0.
          5    1    1    2  502    0  0.55932984524E+01  0.97929830136E+02  0.69216365557E+03  0.69909193609E+03  0.41800000000E+01 0.  1.
         -5    1    1    2    0  502  0.12946639597E+02 -0.37934564363E+02  0.39307157406E+03  0.39513210624E+03  0.41800000000E+01 0.  1.
        -11    1    3    3    0    0 -0.22025586693E+02  0.75470653696E+01  0.81893340852E+01  0.24680961441E+02  0.00000000000E+00 0.  1.
         11    1    3    3    0    0  0.34856486437E+01 -0.67542331142E+02  0.20656652368E+03  0.21735649277E+03  0.00000000000E+00 0. -1.
</event>
<event>
 7    1  0.5831876E-006  0.8435049E+02  0.7561462E-02  0.1317140E+00
          1   -1    0    0  501    0  0.00000000000E+00  0.00000000000E+00  0.56038095592E+03  0.56038095592E+03  0.00000000000E+00 0. -1.
         -1   -1    0    0    0  501 -0.00000000000E+00 -0.00000000000E+00 -0.22040242566E+02  0.22040242566E+02  0.00000000000E+00 0.  1.
         23    2    1    2    0    0  0.14125911112E+02 -0.16077133100E+02  0.18140894233E+03  0.20360054663E+03  0.89921980946E+02 0.  0.
          5    1    1    2  502    0  0.17073287793E+02 -0.44162315115E+02  0.22976158514E+03  0.23462665160E+03  0.41800000000E+01 0.  1.
         -5    1    1    2    0  502 -0.31199198905E+02  0.60239448215E+02  0.12717018588E+03  0.14419400026E+03  0.41800000000E+01 0.  1.
        -11    1    3    3    0    0  0.90088623964E+01  0.17262054055E+02  0.39976997744E+00  0.19475572595E+02  0.00000000000E+00 0.  1.
         11    1    3    3    0    0  0.51170487152E+01 -0.33339187155E+02  0.18100917235E+03  0.18412497403E+03  0.00000000000E+00 0. -1.
</event>
<event>
 7    1  0.5831876E-006  0.1649340E+03  0.7561462E-02  0.1183236E+00
         -1   -1    0    0    0  501 -0.00000000000E+00  0.00000000000E+00  0.36483002302E+02  0.36483002302E+02  0.00000000000E+00 0.  1.
          1   -1    0    0  501    0  0.00000000000E+00 -0.00000000000E+00 -0.93818162476E+03  0.93818162476E+03  0.00000000000E+00 0. -1.
         23    2    1    2    0    0  0.12475979108E+03  0.82507311945E+02 -0.44798198944E+03  0.48082387186E+03  0.90173559846E+02 0.  0.
          5    1    1    2  502    0 -0.96951596397E+02 -0.86913755034E+02 -0.20099019339E+03  0.23951647772E+03  0.41800000000E+01 0. -1.
         -5    1    1    2    0  502 -0.27808194680E+02  0.44064430886E+01 -0.25272643962E+03  0.25432427748E+03  0.41800000000E+01 0. -1.
        -11    1    3    3    0    0 -0.11081546633E+02  0.17066295740E+02 -0.28137294897E+02  0.34724148516E+02  0.00000000000E+00 0.  1.
         11    1    3    3    0    0  0.13584133771E+03  0.65441016205E+02 -0.41984469454E+03  0.44609972335E+03  0.00000000000E+00 0. -1.
</event>
<event>
 7    1  0.5831876E-006  0.1294693E+03  0.7561462E-02  0.1228245E+00
         -3   -1    0    0    0  501 -0.00000000000E+00  0.00000000000E+00  0.46760637871E+03  0.46760637871E+03  0.00000000000E+00 0.  1.
          3   -1    0    0  501    0  0.00000000000E+00 -0.00000000000E+00 -0.39861999076E+02  0.39861999076E+02  0.00000000000E+00 0. -1.
         23    2    1    2    0    0 -0.48869288558E+01  0.83591780704E+02  0.21135714389E+03  0.24385797480E+03  0.88223589379E+02 0.  0.
          5    1    1    2  502    0  0.54247051826E+02 -0.15376315297E+02  0.13530247809E+03  0.14664039921E+03  0.41800000000E+01 0.  1.
         -5    1    1    2    0  502 -0.49360122970E+02 -0.68215465407E+02  0.81084757656E+02  0.11697000378E+03  0.41800000000E+01 0.  1.
        -11    1    3    3    0    0  0.39174399441E+02  0.35436066022E+02  0.66134146752E+02  0.84640851326E+02  0.00000000000E+00 0.  1.
         11    1    3    3    0    0 -0.44061328297E+02  0.48155714683E+02  0.14522299714E+03  0.15921712347E+03  0.00000000000E+00 0. -1.
</event>
<event>
 7    1  0.5831876E-006  0.1701826E+03  0.7561462E-02  0.1177658E+00
         -2   -1    0    0    0  501 -0.00000000000E+00  0.00000000000E+00  0.13431054335E+03  0.13431054335E+03  0.00000000000E+00 0.  1.
          2   -1    0    0  501    0  0.00000000000E+00 -0.00000000000E+00 -0.31273410424E+03  0.31273410424E+03  0.00000000000E+00 0. -1.
         23    2    1    2    0    0  0.16825279985E+03 -0.12908068817E+02 -0.41215165308E+02  0.19614866345E+03  0.91104255813E+02 0.  0.
          5    1    1    2  502    0 -0.42584861871E+02  0.10779537111E+02 -0.11502545571E+03  0.12319901274E+03  0.41800000000E+01 0. -1.
         -5    1    1    2    0  502 -0.12566793797E+03  0.21285317053E+01 -0.22182939874E+02  0.12769697139E+03  0.41800000000E+01 0. -1.
        -11    1    3    3    0    0  0.74799697119E+02 -0.17848295837E+02 -0.63752394998E+02  0.99889560122E+02  0.00000000000E+00 0.  1.
         11    1    3    3    0    0  0.93453102727E+02  0.49402270201E+01  0.22537229690E+02  0.96259103332E+02  0.00000000000E+00 0. -1.
</event>
<event>
 7    1  0.5831876E-006  0.1309168E+03  0.7561462E-02  0.1226102E+00
         -2   -1    0    0    0  501 -0.00000000000E+00  0.00000000000E+00  0.10948339853E+03  0.10948339853E+03  0.00000000000E+00 0.  1.
          2   -1    0    0  501    0  0.00000000000E+00 -0.00000000000E+00 -0.25520525784E+03  0.25520525784E+03  0.00000000000E+00 0. -1.
         23    2    1    2    0    0  0.49977465424E+02  0.84975686762E+02  0.21878235991E+02  0.13348298390E+03  0.87295105193E+02 0.  0.
          5    1    1    2  502    0 -0.64411826277E+02  0.30336807325E+01 -0.41863436454E+02  0.76994196501E+02  0.41800000000E+01 0. -1.
         -5    1    1    2    0  502  0.14434360853E+02 -0.88009367495E+02 -0.12573665885E+03  0.15421147596E+03  0.41800000000E+01 0. -1.
        -11    1    3    3    0    0  0.46566642899E+02  0.36056962415E+02  0.49735281774E+02  0.77085374895E+02  0.00000000000E+00 0.  1.
         11    1    3    3    0    0  0.34108225241E+01  0.48918724347E+02 -0.27857045783E+02  0.56397609008E+02  0.00000000000E+00 0. -1.
</event>
<event>
 7    1  0.5831876E-006  0.1214747E+03  0.7561462E-02  0.1240684E+00
          2   -1    0    0  501    0  0.00000000000E+00  0.00000000000E+00  0.47250941612E+03  0.47250941612E+03  0.00000000000E+00 0. -1.
         -2   -1    0    0    0  501 -0.00000000000E+00 -0.00000000000E+00 -0.42893393886E+02  0.42893393886E+02  0.00000000000E+00 0.  1.
         23    2    1    2    0    0 -0.77010852243E+02  0.23196107910E+02  0.11632306411E+03  0.16860574645E+03  0.91804747738E+02 0.  0.
          5    1    1    2  502    0  0.83071317989E+02 -0.54703173024E+02  0.29086014120E+03  0.30742539769E+03  0.41800000000E+01 0. -1.
         -5    1    1    2    0  502 -0.60604657461E+01  0.31507065114E+02  0.22432816926E+02  0.39371665857E+02  0.41800000000E+01 0. -1.
        -11    1    3    3    0    0 -0.82086253150E+02  0.41546556131E+02  0.11784583345E+03  0.14950555088E+03  0.00000000000E+00 0. -1.
         11    1    3    3    0    0  0.50754009073E+01 -0.18350448221E+02 -0.15227693438E+01  0.19100195568E+02  0.00000000000E+00 0.  1.
</event>
<event>
 7    1  0.5831876E-006  0.9599105E+02  0.7561462E-02  0.1288959E+00
          1   -1    0    0  501    0  0.00000000000E+00  0.00000000000E+00  0.46600634210E+03  0.46600634210E+03  0.00000000000E+00 0. -1.
         -1   -1    0    0    0  501 -0.00000000000E+00 -0.00000000000E+00 -0.34852663978E+02  0.34852663978E+02  0.00000000000E+00 0.  1.
         23    2    1    2    0    0 -0.19304614041E+00 -0.48144266535E+01  0.57941478111E+02  0.10721390791E+03  0.90079915593E+02 0.  0.
          5    1    1    2  502    0  0.51297457555E+02  0.34728126623E+02  0.14289993813E+03  0.15580544486E+03  0.41800000000E+01 0. -1.
         -5    1    1    2    0  502 -0.51104411415E+02 -0.29913699969E+02  0.23031226188E+03  0.23783965330E+03  0.41800000000E+01 0. -1.
        -11    1    3    3    0    0 -0.30422593540E+02 -0.20292361786E+02 -0.37817099656E+01  0.36764323397E+02  0.00000000000E+00 0.  1.
         11    1    3    3    0    0  0.30229547400E+02  0.15477935133E+02  0.61723188077E+02  0.70449584515E+02  0.00000000000E+00 0. -1.
</event>
<event>
 7    1  0.8001773E-006  0.1917024E+03  0.7561462E-02  0.1156935E+00
          2   -1    0    0  501    0  0.00000000000E+00  0.00000000000E+00  0.68418401489E+03  0.68418401489E+03  0.00000000000E+00 0.  1.
         -2   -1    0    0    0  501 -0.00000000000E+00 -0.00000000000E+00 -0.76683340265E+02  0.76683340265E+02  0.00000000000E+00 0. -1.
         23    2    1    2    0    0 -0.84416432506E+02  0.15707874230E+03  0.13904184134E+03  0.24424276599E+03  0.92314840267E+02 0.  0.
          5    1    1    2  502    0  0.95462059699E+02 -0.84687556552E+02  0.19183174593E+03  0.23043844779E+03  0.41800000000E+01 0.  1.
         -5    1    1    2    0  502 -0.11045627193E+02 -0.72391185751E+02  0.27662708736E+03  0.28618614137E+03  0.41800000000E+01 0.  1.
        -11    1    3    3    0    0 -0.58615569276E+02  0.68700025287E+02  0.17865229487E+02  0.92057834325E+02  0.00000000000E+00 0. -1.
         11    1    3    3    0    0 -0.25800863230E+02  0.88378717016E+02  0.12117661186E+03  0.15218493166E+03  0.00000000000E+00 0.  1.
</event>
<event>
 7    1  0.5831876E-006  0.1351985E+03  0.7561462E-02  0.1219940E+00
          1   -1    0    0  501    0  0.00000000000E+00  0.00000000000E+00  0.34048196023E+03  0.34048196023E+03  0.00000000000E+00 0. -1.
         -1   -1    0    0    0  501 -0.00000000000E+00 -0.00000000000E+00 -0.62073723598E+02  0.62073723598E+02  0.00000000000E+00 0.  1.
         23    2    1    2    0    0  0.80575298814E+01 -0.95037940612E+02  0.10431862877E+03  0.16792518970E+03  0.90660681011E+02 0.  0.
          5    1    1    2  502    0 -0.59403942268E+02  0.65579035979E+02  0.63058072994E+02  0.10873468300E+03  0.41800000000E+01 0. -1.
         -5    1    1    2    0  502  0.51346412386E+02  0.29458904633E+02  0.11103153486E+03  0.12589581114E+03  0.41800000000E+01 0. -1.
        -11    1    3    3    0    0  0.94912719571E+01 -0.10850873893E+03  0.66179922965E+02  0.12745200222E+03  0.00000000000E+00 0.  1.
         11    1    3    3    0    0 -0.14337420758E+01  0.13470798313E+02  0.38138705810E+02  0.40473187475E+02  0.00000000000E+00 0. -1.
</event>
<event>
 7    1  0.5831876E-006  0.1535461E+03  0.7561462E-02  0.1196182E+00
         -2   -1    0    0    0  501 -0.00000000000E+00  0.00000000000E+00  0.30164053648E+03  0.30164053648E+03  0.00000000000E+00 0.  1.
          2   -1    0    0  501    0  0.00000000000E+00 -0.00000000000E+00 -0.13932227715E+03  0.13932227715E+03  0.00000000000E+00 0. -1.
         23    2    1    2    0    0 -0.14623491695E+03 -0.93192020013E+01  0.18254357128E+03  0.24723970182E+03  0.79585276771E+02 0.  0.
          5    1    1    2  502    0  0.15167572826E+02 -0.20324340283E+02 -0.49822086909E+02  0.56061098967E+02  0.41800000000E+01 0. -1.
         -5    1    1    2    0  502  0.13106734412E+03  0.29643542284E+02  0.29596774956E+02  0.13766201285E+03  0.41800000000E+01 0. -1.
        -11    1    3    3    0    0 -0.11421056955E+03 -0.11845696785E+02  0.18190019699E+03  0.21510940564E+03  0.00000000000E+00 0.  1.
         11    1    3    3    0    0 -0.32024347400E+02  0.25264947838E+01  0.64337429275E+00  0.32130296182E+02  0.00000000000E+00 0. -1.
</event>
<event>
 7    1  0.5831876E-006  0.1106568E+03  0.7561462E-02  0.1259358E+00
         -2   -1    0    0    0  501 -0.00000000000E+00  0.00000000000E+00  0.13181228938E+02  0.13181228938E+02  0.00000000000E+00 0.  1.
          2   -1    0    0  501    0  0.00000000000E+00 -0.00000000000E+00 -0.95315826963E+03  0.95315826963E+03  0.00000000000E+00 0. -1.
         23    2    1    2    0    0  0.15318827821E+02 -0.23694111279E+02 -0.40233482840E+03  0.41361606164E+03  0.91699808619E+02 0.  0.
          5    1    1    2  502    0  0.54954145045E+02  0.15984174708E+02 -0.24682705350E+03  0.25340978402E+03  0.41800000000E+01 0. -1.
         -5    1    1    2    0  502 -0.70272972866E+02  0.77099365714E+01 -0.29081515879E+03  0.29931365291E+03  0.41800000000E+01 0. -1.
        -11    1    3    3    0    0 -0.16329808977E+02 -0.49595740541E+02 -0.27371689445E+03  0.27865272015E+03  0.00000000000E+00 0.  1.
         11    1    3    3    0    0  0.31648636798E+02  0.25901629262E+02 -0.12861793396E+03  0.13496334149E+03  0.00000000000E+00 0. -1.
</event>
<event>
 7    1  0.5831876E-006  0.1021527E+03  0.7561462E-02  0.1275833E+00
          2   -1    0    0  501    0  0.00000000000E+00  0.00000000000E+00  0.24825073838E+03  0.24825073838E+03  0.00000000000E+00 0. -1.
         -2   -1    0    0    0  501 -0.00000000000E+00 -0.00000000000E+00 -0.94674045612E+02  0.94674045612E+02  0.00000000000E+00 0.  1.
         23    2    1    2    0    0 -0.28547492225E+02 -0.79191458782E+02 -0.42361191995E+01  0.12466300196E+03  0.91851363060E+02 0.  0.
          5    1    1    2  502    0 -0.11491543461E+02  0.23470514246E+02  0.14616337563E+03  0.14853997908E+03  0.41800000000E+01 0. -1.
         -5    1    1    2    0  502  0.40039035686E+02  0.55720944536E+02  0.11649436333E+02  0.69721802942E+02  0.41800000000E+01 0. -1.
        -11    1    3    3    0    0 -0.49705982190E+02 -0.37223463870E+02 -0.32223086915E+02  0.69961405491E+02  0.00000000000E+00 0.  1.
         11    1    3    3    0    0  0.21158489965E+02 -0.41967994912E+02  0.27986967716E+02  0.54701596471E+02  0.00000000000E+00 0. -1.
</event>
<event>
 7    1  0.5831876E-006  0.1846259E+03  0.7561462E-02  0.1163400E+00
         -2   -1    0    0    0  501 -0.00000000000E+00  0.00000000000E+00  0.93530766399E+02  0.93530766399E+02  0.00000000000E+00 0.  1.
          2   -1    0    0  501    0  0.00000000000E+00 -0.00000000000E+00 -0.52825639608E+03  0.52825639608E+03  0.00000000000E+00 0. -1.
         23    2    1    2    0    0  0.31352225033E+02  0.15102888522E+03 -0.44966585611E+02  0.18434893268E+03  0.90387216860E+02 0.  0.
          5    1    1    2  502    0 -0.50169600990E+02 -0.45636557001E+01 -0.88895052040E+02  0.10226249798E+03  0.41800000000E+01 0. -1.
         -5    1    1    2    0  502  0.18817375957E+02 -0.14646522952E+03 -0.30086399203E+03  0.33517573182E+03  0.41800000000E+01 0. -1.
        -11    1    3    3    0    0  0.20260142937E+02  0.73745590993E+00  0.11628857921E+02  0.23371939791E+02  0.00000000000E+00 0.  1.
         11    1    3    3    0    0  0.11092082096E+02  0.15029142931E+03 -0.56595443532E+02  0.16097699289E+03  0.00000000000E+00 0. -1.
</event>
<event>
 7    1  0.5831876E-006  0.1205320E+03  0.7561462E-02  0.1242222E+00
          1   -1    0    0  501    0  0.00000000000E+00  0.00000000000E+00  0.60593010653E+03  0.60593010653E+03  0.00000000000E+00 0. -1.
         -1   -1    0    0    0  501 -0.00000000000E+00 -0.00000000000E+00 -0.30162378501E+02  0.30162378501E+02  0.00000000000E+00 0.  1.
         23    2    1    2    0    0 -0.24465946321E+02  0.67898093269E+02  0.18459568940E+03  0.21911252550E+03  0.93413043442E+02 0.  0.
          5    1    1    2  502    0 -0.44442507800E+02 -0.37213975133E+02  0.25211163559E+03  0.25872333804E+03  0.41800000000E+01 0.  1.
         -5    1    1    2    0  502  0.68908454121E+02 -0.30684118136E+02  0.13906040303E+03  0.15825662149E+03  0.41800000000E+01 0.  1.
        -11    1    3    3    0    0  0.23632271127E+02 -0.67392692952E+00  0.10404602492E+02  0.25830101996E+02  0.00000000000E+00 0.  1.
         11    1    3    3    0    0 -0.48098217448E+02  0.68572020198E+02  0.17419108691E+03  0.19328242350E+03  0.00000000000E+00 0. -1.
</event>
<event>
 6    1  0.5831876E-006  0.8225115E+02  0.7561462E-02  0.1322782E+00
         -2   -1    0    0    0  501 -0.00000000000E+00  0.00000000000E+00  0.20581536730E+02  0.20581536730E+02  0.00000000000E+00 0.  1.
          2   -1    0    0  501    0  0.00000000000E+00 -0.00000000000E+00 -0.45692394955E+03  0.45692394955E+03  0.00000000000E+00 0. -1.
          5    1    1    2  502    0 -0.32807225138E+02 -0.69426798363E+02 -0.24537891393E+03  0.25714719161E+03  0.41800000000E+01 0.  1.
         -5    1    1    2    0  502  0.20842634575E+01  0.49360075758E+02 -0.91403272153E+02  0.10398457478E+03  0.41800000000E+01 0.  1.
        -11    1    1    2    0    0  0.17221469501E+02  0.53161954718E+01 -0.93867963760E+02  0.95582611214E+02  0.00000000000E+00 0. -1.
         11    1    1    2    0    0  0.13501492179E+02  0.14750527133E+02 -0.56922629736E+01  0.20791108665E+02  0.00000000000E+00 0.  1.
</event>
<event>
 7    1  0.5831876E-006  0.1391958E+03  0.7561462E-02  0.1214415E+00
          2   -1    0    0  501    0  0.00000000000E+00  0.00000000000E+00  0.78744491998E+03  0.78744491998E+03  0.00000000000E+00 0.  1.
         -2   -1    0    0    0  501 -0.00000000000E+00 -0.00000000000E+00 -0.32961283755E+02  0.32961283755E+02  0.00000000000E+00 0. -1.
         23    2    1    2    0    0 -0.11018592444E+03  0.43333723292E+01  0.24370550369E+03  0.28309723555E+03  0.92692805492E+02 0.  0.
          5    1    1    2  502    0  0.12142572163E+03  0.27709306032E+02  0.45602502632E+03  0.47274550082E+03  0.41800000000E+01 0.  1.
         -5    1    1    2    0  502 -0.11239797189E+02 -0.32042678362E+02  0.54753106215E+02  0.64563467361E+02  0.41800000000E+01 0.  1.
        -11    1    3    3    0    0 -0.18297986663E+02  0.19149726554E+02  0.14511870783E+03  0.14751599135E+03  0.00000000000E+00 0.  1.
         11    1    3    3    0    0 -0.91887937776E+02 -0.14816354225E+02  0.98586795861E+02  0.13558124420E+03  0.00000000000E+00 0. -1.
</event>
<event>
 7    1  0.5831876E-006  0.2372461E+03  0.7561462E-02  0.1121641E+00
          1   -1    0    0  501    0  0.00000000000E+00  0.00000000000E+00  0.96136083003E+03  0.96136083003E+03  0.00000000000E+00 0. -1.
         -1   -1    0    0    0  501 -0.00000000000E+00 -0.00000000000E+00 -0.68775835347E+02  0.68775835347E+02  0.00000000000E+00 0.  1.
         23    2    1    2    0    0  0.54490460282E+02 -0.22406484236E+03  0.49818219160E+03  0.55645579499E+03  0.91012592025E+02 0.  0.
          5    1    1    2  502    0 -0.60704483081E+01  0.13992482023E+02  0.13695826579E+03  0.13786833888E+03  0.41800000000E+01 0. -1.
         -5    1    1    2    0  502 -0.48420011974E+02  0.21007236034E+03  0.25744453729E+03  0.33581253151E+03  0.41800000000E+01 0. -1.
        -11    1    3    3    0    0  0.61643459634E+02 -0.91670162908E+02  0.28184760292E+03  0.30272331617E+03  0.00000000000E+00 0. -1.
         11    1    3    3    0    0 -0.71529993516E+01 -0.13239467945E+03  0.21633458868E+03  0.25373247881E+03  0.00000000000E+00 0.  1.
</event>
<event>
 7    1  0.5831876E-006  0.1698091E+03  0.7561462E-02  0.1178047E+00
         -3   -1    0    0    0  501 -0.00000000000E+00  0.00000000000E+00  0.27669041782E+02  0.27669041782E+02  0.00000000000E+00 0.  1.
          3   -1    0    0  501    0  0.00000000000E+00 -0.00000000000E+00 -0.11683771889E+04  0.11683771889E+04  0.00000000000E+00 0. -1.
         23    2    1    2    0    0  0.57562111459E+00 -0.14262435239E+03 -0.56430060831E+03  0.58922211390E+03  0.91681436152E+02 0.  0.
          5    1    1    2  502    0 -0.38465321699E+02  0.23859890200E+02 -0.30195200512E+03  0.30535448437E+03  0.41800000000E+01 0.  1.
         -5    1    1    2    0  502  0.37889700585E+02  0.11876446219E+03 -0.27445553369E+03  0.30146963240E+03  0.41800000000E+01 0.  1.
        -11    1    3    3    0    0  0.39916615742E+02 -0.11397242992E+03 -0.39192228334E+03  0.41010501969E+03  0.00000000000E+00 0.  1.
         11    1    3    3    0    0 -0.39340994628E+02 -0.28651922467E+02 -0.17237832496E+03  0.17911709421E+03  0.00000000000E+00 0. -1.
</event>
<event>
 7    1  0.5831876E-006  0.2494524E+03  0.7561462E-02  0.1113651E+00
          2   -1    0    0  501    0  0.00000000000E+00  0.00000000000E+00  0.13046727250E+04  0.13046727250E+04  0.00000000000E+00 0. -1.
         -2   -1    0    0    0  501 -0.00000000000E+00 -0.00000000000E+00 -0.66819575470E+02  0.66819575470E+02  0.00000000000E+00 0.  1.
         23    2    1    2    0    0  0.16353079502E+03 -0.16076717798E+03  0.25521063834E+03  0.35472403365E+03  0.90045897690E+02 0.  0.
          5    1    1    2  502    0  0.17745525977E+02  0.24674909597E+02  0.70751839998E+02  0.77117119493E+02  0.41800000000E+01 0. -1.
         -5    1    1    2    0  502 -0.18127632099E+03  0.13609226839E+03  0.91189067116E+03  0.93965114730E+03  0.41800000000E+01 0. -1.
        -11    1    3    3    0    0  0.31410290721E+02  0.24675227534E+01  0.12822423643E+02  0.34016313436E+02  0.00000000000E+00 0.  1.
         11    1    3    3    0    0  0.13212050429E+03 -0.16323470074E+03  0.24238821469E+03  0.32070772021E+03  0.00000000000E+00 0. -1.
</event>
<event>
 7    1  0.5831876E-006  0.1265530E+03  0.7561462E-02  0.1232662E+00
         -1   -1    0    0    0  501 -0.00000000000E+00  0.00000000000E+00  0.66512040526E+02  0.66512040526E+02  0.00000000000E+00 0.  1.
          1   -1    0    0  501    0  0.00000000000E+00 -0.00000000000E+00 -0.25881387850E+03  0.25881387850E+03  0.00000000000E+00 0. -1.
         23    2    1    2    0    0 -0.40538446301E+02 -0.56452935406E+02 -0.57998016460E+02  0.12919441787E+03  0.92179868472E+02 0.  0.
          5    1    1    2  502    0  0.38243133202E+02  0.95486296701E+02 -0.88439915184E+02  0.13571757842E+03  0.41800000000E+01 0. -1.
         -5    1    1    2    0  502  0.22953130993E+01 -0.39033361295E+02 -0.45863906330E+02  0.60413922734E+02  0.41800000000E+01 0. -1.
        -11    1    3    3    0    0  0.97650446071E+01 -0.59639161108E+02 -0.49415676633E+02  0.78064682994E+02  0.00000000000E+00 0. -1.
         11    1    3    3    0    0 -0.50303490908E+02  0.31862257022E+01 -0.85823398265E+01  0.51129734878E+02  0.00000000000E+00 0.  1.
</event>
<event>
 7    1  0.5831876E-006  0.2483500E+03  0.7561462E-02  0.1114352E+00
         -1   -1    0    0    0  501 -0.00000000000E+00  0.00000000000E+00  0.18336146552E+03  0.18336146552E+03  0.00000000000E+00 0.  1.
          1   -1    0    0  501    0  0.00000000000E+00 -0.00000000000E+00 -0.44784631239E+03  0.44784631239E+03  0.00000000000E+00 0. -1.
         23    2    1    2    0    0 -0.68469519944E+02 -0.22287771340E+03  0.88060765575E+01  0.25081650415E+03  0.92026199948E+02 0.  0.
          5    1    1    2  502    0  0.69434147635E+02  0.23793049817E+03 -0.24798980496E+03  0.35064004133E+03  0.41800000000E+01 0.  1.
         -5    1    1    2    0  502 -0.96462769055E+00 -0.15052784767E+02 -0.25301118463E+02  0.29751232433E+02  0.41800000000E+01 0.  1.
        -11    1    3    3    0    0 -0.29854851056E+02 -0.97425847103E+02  0.49647727939E+02  0.11334903928E+03  0.00000000000E+00 0. -1.
         11    1    3    3    0    0 -0.38614668889E+02 -0.12545186630E+03 -0.40841651381E+02  0.13746746487E+03  0.00000000000E+00 0.  1.
</event>
<event>
 7    1  0.5831876E-006  0.1069139E+03  0.7561462E-02  0.1266394E+00
          2   -1    0    0  501    0  0.00000000000E+00  0.00000000000E+00  0.39032895216E+03  0.39032895216E+03  0.00000000000E+00 0. -1.
         -2   -1    0    0    0  501 -0.00000000000E+00 -0.00000000000E+00 -0.50796711540E+02  0.50796711540E+02  0.00000000000E+00 0.  1.
         23    2    1    2    0    0 -0.26646563544E+02 -0.24484101253E+02  0.26175195948E+02  0.10178955635E+03  0.91468367948E+02 0.  0.
          5    1    1    2  502    0 -0.35872760997E+02 -0.30177292464E+02  0.11228544515E+03  0.12174981542E+03  0.41800000000E+01 0. -1.
         -5    1    1    2    0  502  0.62519324541E+02  0.54661393718E+02  0.20107159952E+03  0.21758629194E+03  0.41800000000E+01 0. -1.
        -11    1    3    3    0    0 -0.47294597742E+02  0.50649803936E+01  0.41014567512E+02  0.62806271583E+02  0.00000000000E+00 0. -1.
         11    1    3    3    0    0  0.20648034198E+02 -0.29549081647E+02 -0.14839371564E+02  0.38983284762E+02  0.00000000000E+00 0.  1.
</event>
<event>
 7    1  0.5831876E-006  0.2477037E+03  0.7561462E-02  0.1114765E+00
         -2   -1    0    0    0  501 -0.00000000000E+00  0.00000000000E+00  0.39387423213E+02  0.39387423213E+02  0.00000000000E+00 0.  1.
          2   -1    0    0  501    0  0.00000000000E+00 -0.00000000000E+00 -0.16313922300E+04  0.16313922300E+04  0.00000000000E+00 0. -1.
         23    2    1    2    0    0 -0.15723770443E+03 -0.16434520658E+03 -0.85382573497E+03  0.88828978314E+03  0.91144448645E+02 0.  0.
          5    1    1    2  502    0  0.74487059529E+02  0.48253628773E+01 -0.15237037940E+03  0.16972274769E+03  0.41800000000E+01 0.  1.
         -5    1    1    2    0  502  0.82750644896E+02  0.15951984370E+03 -0.58580869245E+03  0.61276712242E+03  0.41800000000E+01 0.  1.
        -11    1    3    3    0    0 -0.12386623388E+03 -0.73312672518E+02 -0.42760323589E+03  0.45117858902E+03  0.00000000000E+00 0.  1.
         11    1    3    3    0    0 -0.33371470546E+02 -0.91032534061E+02 -0.42622249908E+03  0.43711119412E+03  0.00000000000E+00 0. -1.
</event>
<event>
 7    1  0.5831876E-006  0.1117171E+03  0.7561462E-02  0.1257423E+00
         -2   -1    0    0    0  501 -0.00000000000E+00  0.00000000000E+00  0.33638524535E+03  0.33638524535E+03  0.00000000000E+00 0.  1.
          2   -1    0    0  501    0  0.00000000000E+00 -0.00000000000E+00 -0.48484704415E+02  0.48484704415E+02  0.00000000000E+00 0. -1.
         23    2    1    2    0    0  0.57523158460E+02  0.28001558647E+02  0.15294237124E+03  0.19005570940E+03  0.92934400030E+02 0.  0.
          5    1    1    2  502    0 -0.80817541383E+02  0.46448745658E+01  0.37438237992E+02  0.89286863082E+02  0.41800000000E+01 0.  1.
         -5    1    1    2    0  502  0.23294382924E+02 -0.32646433213E+02  0.97519931696E+02  0.10552737728E+03  0.41800000000E+01 0.  1.
        -11    1    3    3    0    0  0.88314129886E+01 -0.27110403606E+02  0.86023222900E+02  0.90625397749E+02  0.00000000000E+00 0.  1.
         11    1    3    3    0    0  0.48691745471E+02  0.55111962253E+02  0.66919148342E+02  0.99430311652E+02  0.00000000000E+00 0. -1.
</event>
<event>
 7    1  0.5831876E-006  0.1268458E+03  0.7561462E-02  0.1232212E+00
         -2   -1    0    0    0  501 -0.00000000000E+00  0.00000000000E+00  0.40291144908E+02  0.40291144908E+02  0.00000000000E+00 0.  1.
          2   -1    0    0  501    0  0.00000000000E+00 -0.00000000000E+00 -0.69773802650E+03  0.69773802650E+03  0.00000000000E+00 0. -1.
         23    2    1    2    0    0 -0.31468893796E+02  0.45853029845E+02 -0.81456512714E+02  0.13705876058E+03  0.95169053605E+02 0.  0.
          5    1    1    2  502    0  0.67791293591E+02  0.29583292559E+02 -0.38981681985E+03  0.39679397188E+03  0.41800000000E+01 0. -1.
         -5    1    1    2    0  502 -0.36322399795E+02 -0.75436322403E+02 -0.18617354903E+03  0.20417643895E+03  0.41800000000E+01 0.  1.
        -11    1    3    3    0    0 -0.48223283536E+02  0.13673322919E+01 -0.74872544946E+02  0.89068808566E+02  0.00000000000E+00 0.  1.
         11    1    3    3    0    0  0.16754389740E+02  0.44485697553E+02 -0.65839677685E+01  0.47989952010E+02  0.00000000000E+00 0. -1.
</event>
<event>
 7    1  0.5831876E-006  0.8988634E+02  0.7561462E-02  0.1303127E+00
          2   -1    0    0  501    0  0.00000000000E+00  0.00000000000E+00  0.21867843299E+03  0.21867843299E+03  0.00000000000E+00 0. -1.
         -2   -1    0    0    0  501 -0.00000000000E+00 -0.00000000000E+00 -0.62874721723E+02  0.62874721723E+02  0.00000000000E+00 0.  1.
         23    2    1    2    0    0  0.19228753951E+02  0.29684233902E+02  0.96641487251E+02  0.13872840408E+03  0.93032759392E+02 0.  0.
          5    1    1    2  502    0 -0.32267822639E+02  0.41798887259E+02  0.73363524860E+01  0.53475731147E+02  0.41800000000E+01 0. -1.
         -5    1    1    2    0  502  0.13039068689E+02 -0.71483121161E+02  0.51825871534E+02  0.89349019488E+02  0.41800000000E+01 0. -1.
        -11    1    3    3    0    0  0.28304421991E+02  0.63853684413E+01 -0.88331749222E+01  0.30330483240E+02  0.00000000000E+00 0.  1.
         11    1    3    3    0    0 -0.90756680406E+01  0.23298865461E+02  0.10547466217E+03  0.10839792084E+03  0.00000000000E+00 0. -1.
</event>
<event>
 7    1  0.5831876E-006  0.1382223E+03  0.7561462E-02  0.1215741E+00
          1   -1    0    0  501    0  0.00000000000E+00  0.00000000000E+00  0.93347965768E+02  0.93347965768E+02  0.00000000000E+00 0. -1.
         -1   -1    0    0    0  501 -0.00000000000E+00 -0.00000000000E+00 -0.26498839666E+03  0.26498839666E+03  0.00000000000E+00 0.  1.
         23    2    1    2    0    0  0.10240680109E+03 -0.25500407054E+02 -0.12891113841E+03  0.18920919149E+03  0.89691765891E+02 0.  0.
          5    1    1    2  502    0 -0.54877641653E+02 -0.47515884592E+02 -0.16857290451E+01  0.72729835174E+02  0.41800000000E+01 0. -1.
         -5    1    1    2    0  502 -0.47529159440E+02  0.73016291646E+02 -0.41043563439E+02  0.96397335765E+02  0.41800000000E+01 0. -1.
        -11    1    3    3    0    0  0.21355718660E+02 -0.28249663440E+02 -0.94856511553E+02  0.10125150857E+03  0.00000000000E+00 0.  1.
         11    1    3    3    0    0  0.81051082434E+02  0.27492563858E+01 -0.34054626856E+02  0.87957682920E+02  0.00000000000E+00 0. -1.
</event>
<event>
 7    1  0.5831876E-006  0.9896912E+02  0.7561462E-02  0.1282479E+00
         -1   -1    0    0    0  501 -0.00000000000E+00  0.00000000000E+00  0.13414811792E+02  0.13414811792E+02  0.00000000000E+00 0.  1.
          1   -1    0    0  501    0  0.00000000000E+00 -0.00000000000E+00 -0.11527753350E+04  0.11527753350E+04  0.00000000000E+00 0. -1.
         23    2    1    2    0    0 -0.40115134456E+02  0.39768661669E+02 -0.47664446775E+03  0.48887902715E+03  0.92854639576E+02 0.  0.
          5    1    1    2  502    0 -0.15358823554E+02 -0.29069718156E+02 -0.55152865791E+03  0.55252355142E+03  0.41800000000E+01 0. -1.
         -5    1    1    2    0  502  0.55473958010E+02 -0.10698943514E+02 -0.11118739757E+03  0.12478756825E+03  0.41800000000E+01 0.  1.
        -11    1    3    3    0    0  0.20935388040E+02 -0.15297916015E+02 -0.94670291800E+02  0.98156919554E+02  0.00000000000E+00 0. -1.
         11    1    3    3    0    0 -0.61050522496E+02  0.55066577684E+02 -0.38197417595E+03  0.39072210760E+03  0.00000000000E+00 0.  1.
</event>
<event>
 7    1  0.5831876E-006  0.1324735E+03  0.7561462E-02  0.1223831E+00
         -4   -1    0    0    0  501 -0.00000000000E+00  0.00000000000E+00  0.95584693061E+02  0.95584693061E+02  0.00000000000E+00 0.  1.
          4   -1    0    0  501    0  0.00000000000E+00 -0.00000000000E+00 -0.29433144653E+03  0.29433144653E+03  0.00000000000E+00 0. -1.
         23    2    1    2    0    0 -0.92191404703E+01  0.11686524713E+03 -0.15070663687E+03  0.21193458661E+03  0.91985325270E+02 0.  0.
          5    1    1    2  502    0 -0.34514203003E+02 -0.66908548676E+02  0.24759890726E+02  0.79363144366E+02  0.41800000000E+01 0. -1.
         -5    1    1    2    0  502  0.43733343474E+02 -0.49956698457E+02 -0.72800007323E+02  0.98618408618E+02  0.41800000000E+01 0. -1.
        -11    1    3    3    0    0  0.13818027503E+02  0.61850645835E+02 -0.13668894940E+03  0.15066621772E+03  0.00000000000E+00 0. -1.
         11    1    3    3    0    0 -0.23037167973E+02  0.55014601297E+02 -0.14017687474E+02  0.61268368888E+02  0.00000000000E+00 0.  1.
</event>
<event>
 7    1  0.5831876E-006  0.1649912E+03  0.7561462E-02  0.1183174E+00
          3   -1    0    0  501    0  0.00000000000E+00  0.00000000000E+00  0.11763956774E+04  0.11763956774E+04  0.00000000000E+00 0. -1.
         -3   -1    0    0    0  501 -0.00000000000E+00 -0.00000000000E+00 -0.23757330794E+02  0.23757330794E+02  0.00000000000E+00 0.  1.
         23    2    1    2    0    0 -0.93926550021E+02 -0.84958488657E+02  0.51853954896E+03  0.54154174639E+03  0.91345813542E+02 0.  0.
          5    1    1    2  502    0  0.16885452231E+02 -0.32723779858E+02  0.14628711897E+03  0.15090844191E+03  0.41800000000E+01 0.  1.
         -5    1    1    2    0  502  0.77041097789E+02  0.11768226852E+03  0.48781167871E+03  0.50770281992E+03  0.41800000000E+01 0.  1.
        -11    1    3    3    0    0 -0.75652820651E+01 -0.62518029011E+02  0.27644402704E+03  0.28352607910E+03  0.00000000000E+00 0. -1.
         11    1    3    3    0    0 -0.86361267956E+02 -0.22440459646E+02  0.24209552192E+03  0.25801566729E+03  0.00000000000E+00 0.  1.
</event>
<event>
 7    1  0.5831876E-006  0.1659899E+03  0.7561462E-02  0.1182095E+00
          2   -1    0    0  501    0  0.00000000000E+00  0.00000000000E+00  0.11603723387E+04  0.11603723387E+04  0.00000000000E+00 0. -1.
         -2   -1    0    0    0  501 -0.00000000000E+00 -0.00000000000E+00 -0.31132911612E+02  0.31132911612E+02  0.00000000000E+00 0.  1.
         23    2    1    2    0    0 -0.13170127968E+03  0.16202843818E+02  0.28097767291E+03  0.32386308639E+03  0.91274787517E+02 0.  0.
          5    1    1    2  502    0  0.12852549069E+03 -0.56249859164E+02  0.60644746190E+03  0.62247798745E+03  0.41800000000E+01 0.  1.
         -5    1    1    2    0  502  0.31757889912E+01  0.40047015347E+02  0.24181429231E+03  0.24516417650E+03  0.41800000000E+01 0.  1.
        -11    1    3    3    0    0 -0.10090285033E+03 -0.20866931034E+02  0.13305194437E+03  0.16828438405E+03  0.00000000000E+00 0. -1.
         11    1    3    3    0    0 -0.30798429359E+02  0.37069774851E+02  0.14792572855E+03  0.15557870235E+03  0.00000000000E+00 0.  1.
</event>
<event>
 7    1  0.5831876E-006  0.8698299E+02  0.7561462E-02  0.1310327E+00
         -1   -1    0    0    0  501 -0.00000000000E+00  0.00000000000E+00  0.45136040527E+03  0.45136040527E+03  0.00000000000E+00 0.  1.
          1   -1    0    0  501    0  0.00000000000E+00 -0.00000000000E+00 -0.44636036336E+02  0.44636036336E+02  0.00000000000E+00 0. -1.
         23    2    1    2    0    0  0.33036095033E+02  0.55034150505E+02  0.29736702395E+03  0.31787779361E+03  0.92190039815E+02 0.  0.
          5    1    1    2  502    0  0.13648123619E+02 -0.59326454192E+02  0.21760513882E+01  0.61058226677E+02  0.41800000000E+01 0.  1.
         -5    1    1    2    0  502 -0.46684218652E+02  0.42923036866E+01  0.10718129359E+03  0.11706042132E+03  0.41800000000E+01 0.  1.
        -11    1    3    3    0    0  0.21275514270E+02  0.47129690827E+02  0.29915879390E+03  0.30359486036E+03  0.00000000000E+00 0.  1.
         11    1    3    3    0    0  0.11760580763E+02  0.79044596786E+01 -0.17917699564E+01  0.14282933252E+02  0.00000000000E+00 0. -1.
</event>
<event>
 7    1  0.5831876E-006  0.1014604E+03  0.7561462E-02  0.1277255E+00
         -1   -1    0    0    0  501 -0.00000000000E+00  0.00000000000E+00  0.19232071956E+03  0.19232071956E+03  0.00000000000E+00 0.  1.
          1   -1    0    0  501    0  0.00000000000E+00 -0.00000000000E+00 -0.67772924625E+02  0.67772924625E+02  0.00000000000E+00 0. -1.
         23    2    1    2    0    0  0.85764885955E+01 -0.28178961791E+02  0.76897510442E+02  0.12304547380E+03  0.91429489040E+02 0.  0.
          5    1    1    2  502    0  0.52623458777E+02  0.39117721279E+02  0.18509825303E+02  0.68260607706E+02  0.41800000000E+01 0.  1.
         -5    1    1    2    0  502 -0.61199947373E+02 -0.10938759488E+02  0.29140459191E+02  0.68787562680E+02  0.41800000000E+01 0.  1.
        -11    1    3    3    0    0  0.38806041578E+02 -0.11990868640E+02  0.19934458847E+01  0.40665263066E+02  0.00000000000E+00 0. -1.
         11    1    3    3    0    0 -0.30229552983E+02 -0.16188093151E+02  0.74904064557E+02  0.82380210734E+02  0.00000000000E+00 0.  1.
</event>
<event>
 7    1  0.5831876E-006  0.1163451E+03  0.7561462E-02  0.1249251E+00
          3   -1    0    0  501    0  0.00000000000E+00  0.00000000000E+00  0.20133748899E+03  0.20133748899E+03  0.00000000000E+00 0. -1.
         -3   -1    0    0    0  501 -0.00000000000E+00 -0.00000000000E+00 -0.89284595629E+02  0.89284595629E+02  0.00000000000E+00 0.  1.
         23    2    1    2    0    0 -0.64106469393E+02 -0.29291290178E+02  0.14092895383E+02  0.11680765684E+03  0.92074968905E+02 0.  0.
          5    1    1    2  502    0  0.58250504997E+02  0.62864783663E+02  0.19245756238E+02  0.87937329335E+02  0.41800000000E+01 0. -1.
         -5    1    1    2    0  502  0.58559643960E+01 -0.33573493485E+02  0.78714241744E+02  0.85877098444E+02  0.41800000000E+01 0. -1.
        -11    1    3    3    0    0 -0.81474430027E+02 -0.41387522664E+02  0.22369238515E+02  0.94081839971E+02  0.00000000000E+00 0. -1.
         11    1    3    3    0    0  0.17367960634E+02  0.12096232486E+02 -0.82763431322E+01  0.22725816874E+02  0.00000000000E+00 0.  1.
</event>
<event>
 7    1  0.5831876E-006  0.1493517E+03  0.7561462E-02  0.1201272E+00
          2   -1    0    0  501    0  0.00000000000E+00  0.00000000000E+00  0.18280556542E+03  0.18280556542E+03  0.00000000000E+00 0. -1.
         -2   -1    0    0    0  501 -0.00000000000E+00 -0.00000000000E+00 -0.21410688132E+03  0.21410688132E+03  0.00000000000E+00 0.  1.
         23    2    1    2    0    0  0.48163459066E+01  0.12861938365E+03 -0.12106750642E+03  0.19623490062E+03  0.85350173258E+02 0.  0.
          5    1    1    2  502    0 -0.43695106767E+02 -0.90954200476E+02  0.64050321593E+01  0.10119498889E+03  0.41800000000E+01 0. -1.
         -5    1    1    2    0  502  0.38878760860E+02 -0.37665183170E+02  0.83361158363E+02  0.99482557229E+02  0.41800000000E+01 0. -1.
        -11    1    3    3    0    0 -0.28350714059E+02  0.77090800657E+02 -0.10418889956E+03  0.13267283567E+03  0.00000000000E+00 0.  1.
         11    1    3    3    0    0  0.33167059965E+02  0.51528582988E+02 -0.16878606859E+02  0.63562064953E+02  0.00000000000E+00 0. -1.
</event>
<event>
 7    1  0.5831876E-006  0.1531697E+03  0.7561462E-02  0.1196631E+00
         -2   -1    0    0    0  501 -0.00000000000E+00  0.00000000000E+00  0.77413567226E+02  0.77413567226E+02  0.00000000000E+00 0.  1.
          2   -1    0    0  501    0  0.00000000000E+00 -0.00000000000E+00 -0.41057308030E+03  0.41057308030E+03  0.00000000000E+00 0. -1.
         23    2    1    2    0    0  0.20017525749E+02 -0.13109246530E+03 -0.92927952570E+02  0.18641576987E+03  0.92354204506E+02 0.  0.
          5    1    1    2  502    0  0.98145175898E+01  0.13226665204E+03 -0.23651457087E+03  0.27119625113E+03  0.41800000000E+01 0. -1.
         -5    1    1    2    0  502 -0.29832043339E+02 -0.11741867342E+01 -0.37169896339E+01  0.30374626519E+02  0.41800000000E+01 0. -1.
        -11    1    3    3    0    0  0.21035001239E+01 -0.12433193431E+03 -0.40783289556E+02  0.13086684572E+03  0.00000000000E+00 0.  1.
         11    1    3    3    0    0  0.17914025625E+02 -0.67605309989E+01 -0.52144663014E+02  0.55548924151E+02  0.00000000000E+00 0. -1.
</event>
<event>
 7    1  0.5831876E-006  0.8666636E+02  0.7561462E-02  0.1311131E+00
         -2   -1    0    0    0  501 -0.00000000000E+00  0.00000000000E+00  0.62467436933E+02  0.62467436933E+02  0.00000000000E+00 0.  1.
          2   -1    0    0  501    0  0.00000000000E+00 -0.00000000000E+00 -0.25017780301E+03  0.25017780301E+03  0.00000000000E+00 0. -1.
         23    2    1    2    0    0 -0.48113725014E+02  0.37864582182E+02 -0.66119489997E+02  0.12777113666E+03  0.90581561522E+02 0.  0.
          5    1    1    2  502    0  0.53627177338E+02 -0.10607901928E+02 -0.14061307900E+03  0.15092353070E+03  0.41800000000E+01 0. -1.
         -5    1    1    2    0  502 -0.55134523240E+01 -0.27256680254E+02  0.19022202918E+02  0.33950572585E+02  0.41800000000E+01 0. -1.
        -11    1    3    3    0    0  0.15369331839E+02 -0.18857141636E+01  0.11966379604E+02  0.19569530396E+02  0.00000000000E+00 0.  1.
         11    1    3    3    0    0 -0.63483056854E+02  0.39750296345E+02 -0.78085869601E+02  0.10820160627E+03  0.00000000000E+00 0. -1.
</event>
<event>
 7    1  0.1403325E-005  0.1430948E+03  0.7561462E-02  0.1209224E+00
         -2   -1    0    0    0  501 -0.00000000000E+00  0.00000000000E+00  0.97988525923E+02  0.97988525923E+02  0.00000000000E+00 0.  1.
          2   -1    0    0  501    0  0.00000000000E+00 -0.00000000000E+00 -0.26396569694E+03  0.26396569694E+03  0.00000000000E+00 0. -1.
         23    2    1    2    0    0 -0.11614133399E+03 -0.28834125251E+02 -0.50328845393E+02  0.15376433803E+03  0.82403050498E+02 0.  0.
          5    1    1    2  502    0  0.13011785547E+03  0.50840629366E+02 -0.72097520128E+02  0.15726077297E+03  0.41800000000E+01 0. -1.
         -5    1    1    2    0  502 -0.13976521473E+02 -0.22006504116E+02 -0.43550805494E+02  0.50929111862E+02  0.41800000000E+01 0. -1.
        -11    1    3    3    0    0 -0.32673027539E+02 -0.12455642005E+02  0.22671985710E+02  0.41673596945E+02  0.00000000000E+00 0.  1.
         11    1    3    3    0    0 -0.83468306455E+02 -0.16378483246E+02 -0.73000831104E+02  0.11209074109E+03  0.00000000000E+00 0. -1.
</event>
<event>
 7    1  0.5831876E-006  0.1215185E+03  0.7561462E-02  0.1240613E+00
         -1   -1    0    0    0  501 -0.00000000000E+00  0.00000000000E+00  0.94715709041E+02  0.94715709041E+02  0.00000000000E+00 0.  1.
          1   -1    0    0  501    0  0.00000000000E+00 -0.00000000000E+00 -0.18940486070E+03  0.18940486070E+03  0.00000000000E+00 0. -1.
         23    2    1    2    0    0 -0.55501719101E+02  0.73868572890E+02 -0.23729542111E+02  0.12122856997E+03  0.74808208930E+02 0.  0.
          5    1    1    2  502    0  0.85806965586E+02 -0.53275264872E+02 -0.25309291163E+02  0.10420711017E+03  0.41800000000E+01 0. -1.
         -5    1    1    2    0  502 -0.30305246484E+02 -0.20593308019E+02 -0.45650318390E+02  0.58684889612E+02  0.41800000000E+01 0.  1.
        -11    1    3    3    0    0  0.87953667457E+01  0.17409605710E+02 -0.29612821953E+02  0.35459442623E+02  0.00000000000E+00 0. -1.
         11    1    3    3    0    0 -0.64297085847E+02  0.56458967181E+02  0.58832798414E+01  0.85769127343E+02  0.00000000000E+00 0.  1.
</event>
<event>
 7    1  0.5831876E-006  0.1092841E+03  0.7561462E-02  0.1261901E+00
          2   -1    0    0  501    0  0.00000000000E+00  0.00000000000E+00  0.57985419717E+03  0.57985419717E+03  0.00000000000E+00 0. -1.
         -2   -1    0    0    0  501 -0.00000000000E+00 -0.00000000000E+00 -0.10174343694E+03  0.10174343694E+03  0.00000000000E+00 0.  1.
         23    2    1    2    0    0 -0.49813800346E+02 -0.61209400735E+02 -0.51650692060E+02  0.13157704085E+03  0.91742674063E+02 0.  0.
          5    1    1    2  502    0  0.80939408425E+02  0.48063808736E+02  0.23329234055E+03  0.25160307252E+03  0.41800000000E+01 0.  1.
         -5    1    1    2    0  502 -0.31125608079E+02  0.13145591999E+02  0.29646911174E+03  0.29841752074E+03  0.41800000000E+01 0.  1.
        -11    1    3    3    0    0 -0.27236194144E+01 -0.37453668892E+02 -0.66860707423E+02  0.76684741724E+02  0.00000000000E+00 0.  1.
         11    1    3    3    0    0 -0.47090180932E+02 -0.23755731843E+02  0.15210015363E+02  0.54892299123E+02  0.00000000000E+00 0. -1.
</event>
<event>
 7    1  0.5831876E-006  0.1152049E+03  0.7561462E-02  0.1251224E+00
          4   -1    0    0  501    0  0.00000000000E+00  0.00000000000E+00  0.27376415827E+03  0.27376415827E+03  0.00000000000E+00 0. -1.
         -4   -1    0    0    0  501 -0.00000000000E+00 -0.00000000000E+00 -0.77511617935E+02  0.77511617935E+02  0.00000000000E+00 0.  1.
         23    2    1    2    0    0  0.73235900749E+02  0.49289187269E+02  0.40577656326E+02  0.13292951360E+03  0.90723691798E+02 0.  0.
          5    1    1    2  502    0 -0.43085351408E+01  0.14408147679E+02 -0.16184882164E+02  0.22485128536E+02  0.41800000000E+01 0.  1.
         -5    1    1    2    0  502 -0.68927365608E+02 -0.63697334949E+02  0.17185976617E+03  0.19586113407E+03  0.41800000000E+01 0.  1.
        -11    1    3    3    0    0  0.30271831025E+02 -0.22137375389E+02  0.31700105053E+02  0.49105435576E+02  0.00000000000E+00 0.  1.
         11    1    3    3    0    0  0.42964069724E+02  0.71426562658E+02  0.88775512730E+01  0.83824078026E+02  0.00000000000E+00 0. -1.
</event>
<event>
 7    1  0.5831876E-006  0.1599008E+03  0.7561462E-02  0.1188809E+00
         -2   -1    0    0    0  501 -0.00000000000E+00  0.00000000000E+00  0.13306239423E+03  0.13306239423E+03  0.00000000000E+00 0.  1.
          2   -1    0    0  501    0  0.00000000000E+00 -0.00000000000E+00 -0.24146889343E+03  0.24146889343E+03  0.00000000000E+00 0. -1.
         23    2    1    2    0    0  0.13194462871E+03 -0.33763951904E+02 -0.13942335207E+02  0.16685665512E+03  0.95380108807E+02 0.  0.
          5    1    1    2  502    0 -0.94680715571E+02  0.79079594539E+02 -0.46939690007E+02  0.13205615121E+03  0.41800000000E+01 0.  1.
         -5    1    1    2    0  502 -0.37263913134E+02 -0.45315642635E+02 -0.47524473986E+02  0.75618481320E+02  0.41800000000E+01 0.  1.
        -11    1    3    3    0    0  0.79214427442E+02 -0.10463442920E+02 -0.54192796999E+02  0.96546716150E+02  0.00000000000E+00 0. -1.
         11    1    3    3    0    0  0.52730201264E+02 -0.23300508983E+02  0.40250461792E+02  0.70309938975E+02  0.00000000000E+00 0.  1.
</event>
<event>
 7    1  0.5831876E-006  0.2089630E+03  0.7561462E-02  0.1142390E+00
         -3   -1    0    0    0  501 -0.00000000000E+00  0.00000000000E+00  0.27705838198E+03  0.27705838198E+03  0.00000000000E+00 0.  1.
          3   -1    0    0  501    0  0.00000000000E+00 -0.00000000000E+00 -0.19534673603E+03  0.19534673603E+03  0.00000000000E+00 0. -1.
         23    2    1    2    0    0  0.14453262369E+02  0.20436372988E+03  0.43546245889E+02  0.22934624110E+03  0.93434425619E+02 0.  0.
          5    1    1    2  502    0  0.46203500576E+01 -0.40296859393E+02 -0.42755650412E+02  0.59082167816E+02  0.41800000000E+01 0. -1.
         -5    1    1    2    0  502 -0.19073612427E+02 -0.16406687049E+03  0.80921050476E+02  0.18397670910E+03  0.41800000000E+01 0. -1.
        -11    1    3    3    0    0  0.24308407236E+02  0.36993260305E+02 -0.21873688365E+02  0.49374671776E+02  0.00000000000E+00 0. -1.
         11    1    3    3    0    0 -0.98551448668E+01  0.16737046957E+03  0.65419934254E+02  0.17997156932E+03  0.00000000000E+00 0.  1.
</event>
<event>
 7    1  0.5831876E-006  0.1456276E+03  0.7561462E-02  0.1205951E+00
         -2   -1    0    0    0  501 -0.00000000000E+00  0.00000000000E+00  0.97330240011E+02  0.97330240011E+02  0.00000000000E+00 0.  1.
          2   -1    0    0  501    0  0.00000000000E+00 -0.00000000000E+00 -0.27839349776E+03  0.27839349776E+03  0.00000000000E+00 0. -1.
         23    2    1    2    0    0 -0.14684545446E+02  0.12111810239E+03 -0.70954892725E+02  0.16919069875E+03  0.93304153930E+02 0.  0.
          5    1    1    2  502    0  0.48040650472E+02 -0.11824599681E+03 -0.49096462740E+02  0.13681357723E+03  0.41800000000E+01 0. -1.
         -5    1    1    2    0  502 -0.33356105026E+02 -0.28721055740E+01 -0.61011902280E+02  0.69719461793E+02  0.41800000000E+01 0. -1.
        -11    1    3    3    0    0  0.14801837044E+02  0.22909521305E+02 -0.60197414467E+02  0.66088344319E+02  0.00000000000E+00 0. -1.
         11    1    3    3    0    0 -0.29486382491E+02  0.98208581081E+02 -0.10757478258E+02  0.10310235443E+03  0.00000000000E+00 0.  1.
</event>
<event>
 7    1  0.5831876E-006  0.1091677E+03  0.7561462E-02  0.1262119E+00
         -1   -1    0    0    0  501 -0.00000000000E+00  0.00000000000E+00  0.24310835378E+03  0.24310835378E+03  0.00000000000E+00 0.  1.
          1   -1    0    0  501    0  0.00000000000E+00 -0.00000000000E+00 -0.59426877735E+02  0.59426877735E+02  0.00000000000E+00 0. -1.
         23    2    1    2    0    0 -0.34226401244E+02  0.36621860224E+02  0.10591133984E+03  0.14694259292E+03  0.88669648229E+02 0.  0.
          5    1    1    2  502    0  0.81315215980E+02 -0.30709395727E+02  0.47391870870E+02  0.99089319103E+02  0.41800000000E+01 0. -1.
         -5    1    1    2    0  502 -0.47088814736E+02 -0.59124644975E+01  0.30378265335E+02  0.56503319499E+02  0.41800000000E+01 0. -1.
        -11    1    3    3    0    0  0.19552436290E+02  0.18511901303E+02  0.15770001755E+00  0.26926067741E+02  0.00000000000E+00 0. -1.
         11    1    3    3    0    0 -0.53778837534E+02  0.18109958922E+02  0.10575363983E+03  0.12001652518E+03  0.00000000000E+00 0.  1.
</event>
<event>
 7    1  0.5831876E-006  0.1090400E+03  0.7561462E-02  0.1262358E+00
         -2   -1    0    0    0  501 -0.00000000000E+00  0.00000000000E+00  0.47961142128E+02  0.47961142128E+02  0.00000000000E+00 0.  1.
          2   -1    0    0  501    0  0.00000000000E+00 -0.00000000000E+00 -0.41779199532E+03  0.41779199532E+03  0.00000000000E+00 0. -1.
         23    2    1    2    0    0  0.66401631346E+02 -0.55771877452E+02 -0.12218282056E+03  0.17506962216E+03  0.90559659910E+02 0.  0.
          5    1    1    2  502    0 -0.80133868533E+02  0.66810337921E+02 -0.10931283047E+03  0.15116820249E+03  0.41800000000E+01 0.  1.
         -5    1    1    2    0  502  0.13732237187E+02 -0.11038460470E+02 -0.13833520217E+03  0.13951531280E+03  0.41800000000E+01 0.  1.
        -11    1    3    3    0    0  0.16741274180E+02 -0.40145207395E+02 -0.13706729628E+01  0.43517659430E+02  0.00000000000E+00 0.  1.
         11    1    3    3    0    0  0.49660357166E+02 -0.15626670057E+02 -0.12081214759E+03  0.13155196273E+03  0.00000000000E+00 0. -1.
</event>
<event>
 7    1  0.5831876E-006  0.1197386E+03  0.7561462E-02  0.1243529E+00
         -1   -1    0    0    0  501 -0.00000000000E+00  0.00000000000E+00  0.62960251850E+02  0.62960251850E+02  0.00000000000E+00 0.  1.
          1   -1    0    0  501    0  0.00000000000E+00 -0.00000000000E+00 -0.25461981967E+03  0.25461981967E+03  0.00000000000E+00 0. -1.
         23    2    1    2    0    0 -0.80633000713E+01 -0.62073515521E+02 -0.60105537421E+02  0.12555646401E+03  0.90739252200E+02 0.  0.
          5    1    1    2  502    0 -0.13590940728E+02 -0.30958609924E+02 -0.71272374853E+02  0.78996031644E+02  0.41800000000E+01 0.  1.
         -5    1    1    2    0  502  0.21654240799E+02  0.93032125446E+02 -0.60281655543E+02  0.11302757586E+03  0.41800000000E+01 0.  1.
        -11    1    3    3    0    0 -0.48476208812E+02 -0.23266912080E+02 -0.35017053200E+02  0.64167640079E+02  0.00000000000E+00 0.  1.
         11    1    3    3    0    0  0.40412908741E+02 -0.38806603441E+02 -0.25088484221E+02  0.61388823935E+02  0.00000000000E+00 0. -1.
</event>
<event>
 7    1  0.5831876E-006  0.1281849E+03  0.7561462E-02  0.1230174E+00
          1   -1    0    0  501    0  0.00000000000E+00  0.00000000000E+00  0.21924225825E+03  0.21924225825E+03  0.00000000000E+00 0. -1.
         -1   -1    0    0    0  501 -0.00000000000E+00 -0.00000000000E+00 -0.84592879592E+02  0.84592879592E+02  0.00000000000E+00 0.  1.
         23    2    1    2    0    0 -0.80191298563E+02 -0.53726033829E+01  0.38308940506E+02  0.12666656066E+03  0.90096245403E+02 0.  0.
          5    1    1    2  502    0  0.63594960865E+02  0.54368899311E+02  0.22192464243E+02  0.86661837789E+02  0.41800000000E+01 0. -1.
         -5    1    1    2    0  502  0.16596337698E+02 -0.48996295928E+02  0.74147973908E+02  0.90506739386E+02  0.41800000000E+01 0. -1.
        -11    1    3    3    0    0 -0.66361613354E+02  0.37101917845E+02  0.25627034267E+02  0.80231919583E+02  0.00000000000E+00 0.  1.
         11    1    3    3    0    0 -0.13829685209E+02 -0.42474521228E+02  0.12681906238E+02  0.46434641082E+02  0.00000000000E+00 0. -1.
</event>
<event>
 7    1  0.5831876E-006  0.1464850E+03  0.7561462E-02  0.1204860E+00
          2   -1    0    0  501    0  0.00000000000E+00  0.00000000000E+00  0.32408237623E+03  0.32408237623E+03  0.00000000000E+00 0. -1.
         -2   -1    0    0    0  501 -0.00000000000E+00 -0.00000000000E+00 -0.21364886279E+03  0.21364886279E+03  0.00000000000E+00 0.  1.
         23    2    1    2    0    0 -0.48326904223E+02 -0.13637118797E+02 -0.16863510268E+03  0.19917288119E+03  0.93330477685E+02 0.  0.
          5    1    1    2  502    0  0.80720144329E+02  0.81735067507E+02  0.18660818867E+03  0.21917219587E+03  0.41800000000E+01 0. -1.
         -5    1    1    2    0  502 -0.32393240106E+02 -0.68097948709E+02  0.92460427449E+02  0.11938616196E+03  0.41800000000E+01 0.  1.
        -11    1    3    3    0    0 -0.69257157000E+02 -0.30440796400E+02 -0.14436567829E+03  0.16298664040E+03  0.00000000000E+00 0.  1.
         11    1    3    3    0    0  0.20930252777E+02  0.16803677603E+02 -0.24269424396E+02  0.36186240794E+02  0.00000000000E+00 0. -1.
</event>
<event>
 7    1  0.5831876E-006  0.1231218E+03  0.7561462E-02  0.1238034E+00
         -2   -1    0    0    0  501 -0.00000000000E+00  0.00000000000E+00  0.29017164173E+02  0.29017164173E+02  0.00000000000E+00 0.  1.
          2   -1    0    0  501    0  0.00000000000E+00 -0.00000000000E+00 -0.56892670254E+03  0.56892670254E+03  0.00000000000E+00 0. -1.
         23    2    1    2    0    0 -0.33716426951E+02  0.59895073677E+02 -0.21011831227E+03  0.23859168623E+03  0.89733328756E+02 0.  0.
          5    1    1    2  502    0  0.78897712551E+02 -0.37552034605E+02 -0.25018645769E+03  0.26503912987E+03  0.41800000000E+01 0.  1.
         -5    1    1    2    0  502 -0.45181285600E+02 -0.22343039072E+02 -0.79604768410E+02  0.94313050619E+02  0.41800000000E+01 0.  1.
        -11    1    3    3    0    0  0.18763528252E+02  0.51792372315E+02 -0.72281011195E+02  0.90879394815E+02  0.00000000000E+00 0.  1.
         11    1    3    3    0    0 -0.52479955203E+02  0.81027013624E+01 -0.13783730108E+03  0.14771229142E+03  0.00000000000E+00 0. -1.
</event>
<event>
 7    1  0.5831876E-006  0.9772317E+02  0.7561462E-02  0.1285158E+00
         -1   -1    0    0    0  501 -0.00000000000E+00  0.00000000000E+00  0.30050142875E+02  0.30050142875E+02  0.00000000000E+00 0.  1.
          1   -1    0    0  501    0  0.00000000000E+00 -0.00000000000E+00 -0.40612802963E+03  0.40612802963E+03  0.00000000000E+00 0. -1.
         23    2    1    2    0    0 -0.59003302705E+01 -0.27518909335E+02 -0.15439059008E+03  0.18008181199E+03  0.88322706239E+02 0.  0.
          5    1    1    2  502    0  0.25294458705E+02  0.63311535774E+02 -0.19652311719E+03  0.20805520468E+03  0.41800000000E+01 0.  1.
         -5    1    1    2    0  502 -0.19394128434E+02 -0.35792626439E+02 -0.25164179493E+02  0.48041155842E+02  0.41800000000E+01 0.  1.
        -11    1    3    3    0    0  0.15469732883E+02  0.25066507775E+02 -0.24437679083E+02  0.38273262292E+02  0.00000000000E+00 0.  1.
         11    1    3    3    0    0 -0.21370063154E+02 -0.52585417110E+02 -0.12995291099E+03  0.14180854970E+03  0.00000000000E+00 0. -1.
</event>
<event>
 7    1  0.5831876E-006  0.1336063E+03  0.7561462E-02  0.1222201E+00
          2   -1    0    0  501    0  0.00000000000E+00  0.00000000000E+00  0.25089645484E+04  0.25089645484E+04  0.00000000000E+00 0. -1.
         -2   -1    0    0    0  501 -0.00000000000E+00 -0.00000000000E+00 -0.23796830300E+02  0.23796830300E+02  0.00000000000E+00 0.  1.
         23    2    1    2    0    0  0.89186489967E+02  0.61759113434E+01  0.17285975625E+03  0.21573390629E+03  0.93103443118E+02 0.  0.
          5    1    1    2  502    0 -0.74190239247E+01  0.43356403010E+02  0.11259192108E+04  0.11267858542E+04  0.41800000000E+01 0. -1.
         -5    1    1    2    0  502 -0.81767466043E+02 -0.49532314353E+02  0.11863887511E+04  0.11902416182E+04  0.41800000000E+01 0.  1.
        -11    1    3    3    0    0  0.10096834331E+03  0.26011971077E+02  0.12634446802E+03  0.16381133536E+03  0.00000000000E+00 0.  1.
         11    1    3    3    0    0 -0.11781853347E+02 -0.19836059733E+02  0.46515288220E+02  0.51922570933E+02  0.00000000000E+00 0. -1.
</event>
<event>
 7    1  0.5831876E-006  0.1059597E+03  0.7561462E-02  0.1268240E+00
          2   -1    0    0  501    0  0.00000000000E+00  0.00000000000E+00  0.57545344510E+03  0.57545344510E+03  0.00000000000E+00 0. -1.
         -2   -1    0    0    0  501 -0.00000000000E+00 -0.00000000000E+00 -0.25627296098E+02  0.25627296098E+02  0.00000000000E+00 0.  1.
         23    2    1    2    0    0 -0.49146793916E+02  0.13819466150E+02  0.27074740094E+03  0.29101825055E+03  0.93707427866E+02 0.  0.
          5    1    1    2  502    0 -0.28471420480E+02 -0.12693948590E+02  0.15126389006E+02  0.34900403426E+02  0.41800000000E+01 0.  1.
         -5    1    1    2    0  502  0.77618214396E+02 -0.11255175603E+01  0.26395235905E+03  0.27516208722E+03  0.41800000000E+01 0.  1.
        -11    1    3    3    0    0 -0.74607384484E+02  0.19389932665E+01  0.15676252640E+03  0.17362174748E+03  0.00000000000E+00 0.  1.
         11    1    3    3    0    0  0.25460590567E+02  0.11880472884E+02  0.11398487455E+03  0.11739650307E+03  0.00000000000E+00 0. -1.
</event>
<event>
 7    1  0.5831876E-006  0.1656027E+03  0.7561462E-02  0.1182513E+00
         -3   -1    0    0    0  501 -0.00000000000E+00  0.00000000000E+00  0.41059788246E+03  0.41059788246E+03  0.00000000000E+00 0.  1.
          3   -1    0    0  501    0  0.00000000000E+00 -0.00000000000E+00 -0.90341620692E+02  0.90341620692E+02  0.00000000000E+00 0. -1.
         23    2    1    2    0    0 -0.18678606307E+02 -0.13167030341E+03  0.20645883427E+03  0.26231059473E+03  0.92171789217E+02 0.  0.
          5    1    1    2  502    0 -0.89774968915E+01  0.15805102153E+03  0.53572039683E+02  0.16717702202E+03  0.41800000000E+01 0. -1.
         -5    1    1    2    0  502  0.27656103198E+02 -0.26380718117E+02  0.60225387807E+02  0.71451886392E+02  0.41800000000E+01 0.  1.
        -11    1    3    3    0    0 -0.20714694662E+02 -0.78506441571E+02  0.18999802753E+03  0.20661948216E+03  0.00000000000E+00 0.  1.
         11    1    3    3    0    0  0.20360883556E+01 -0.53163861838E+02  0.16460806746E+02  0.55691112577E+02  0.00000000000E+00 0. -1.
</event>
<event>
 7    1  0.5831876E-006  0.1363326E+03  0.7561462E-02  0.1218351E+00
         -1   -1    0    0    0  501 -0.00000000000E+00  0.00000000000E+00  0.24422386850E+02  0.24422386850E+02  0.00000000000E+00 0.  1.
          1   -1    0    0  501    0  0.00000000000E+00 -0.00000000000E+00 -0.92628849225E+03  0.92628849225E+03  0.00000000000E+00 0. -1.
         23    2    1    2    0    0 -0.24910999778E+02 -0.95163961086E+02 -0.31429220668E+03  0.34196894764E+03  0.92121835454E+02 0.  0.
          5    1    1    2  502    0  0.35309221423E+02  0.12084560163E+03 -0.40825562991E+03  0.42724762411E+03  0.41800000000E+01 0. -1.
         -5    1    1    2    0  502 -0.10398221645E+02 -0.25681640545E+02 -0.17931826880E+03  0.18149430735E+03  0.41800000000E+01 0. -1.
        -11    1    3    3    0    0 -0.40911158013E+02 -0.27857595925E+02 -0.21709028011E+03  0.22266108376E+03  0.00000000000E+00 0. -1.
         11    1    3    3    0    0  0.16000158235E+02 -0.67306365161E+02 -0.97201926570E+02  0.11930786388E+03  0.00000000000E+00 0.  1.
</event>
<event>
 7    1  0.5831876E-006  0.1630707E+03  0.7561462E-02  0.1185273E+00
          2   -1    0    0  501    0  0.00000000000E+00  0.00000000000E+00  0.25567567492E+03  0.25567567492E+03  0.00000000000E+00 0. -1.
         -2   -1    0    0    0  501 -0.00000000000E+00 -0.00000000000E+00 -0.13433329894E+03  0.13433329894E+03  0.00000000000E+00 0.  1.
         23    2    1    2    0    0 -0.14292496215E+03  0.34917241059E+02  0.36330785157E+02  0.17900890663E+03  0.95275937024E+02 0.  0.
          5    1    1    2  502    0  0.11822346946E+03 -0.11813913824E+02  0.11514740869E+03  0.16550756907E+03  0.41800000000E+01 0.  1.
         -5    1    1    2    0  502  0.24701492690E+02 -0.23103327235E+02 -0.30135817874E+02  0.45492498166E+02  0.41800000000E+01 0.  1.
        -11    1    3    3    0    0 -0.34865806253E+02  0.53174357406E+02  0.10369815886E+00  0.63585749068E+02  0.00000000000E+00 0.  1.
         11    1    3    3    0    0 -0.10805915589E+03 -0.18257116348E+02  0.36227086998E+02  0.11542315756E+03  0.00000000000E+00 0. -1.
</event>
<event>
 7    1  0.5831876E-006  0.9920530E+02  0.7561462E-02  0.1281976E+00
          2   -1    0    0  501    0  0.00000000000E+00  0.00000000000E+00  0.13391722733E+04  0.13391722733E+04  0.00000000000E+00 0.  1.
         -2   -1    0    0    0  501 -0.00000000000E+00 -0.00000000000E+00 -0.12395196864E+02  0.12395196864E+02  0.00000000000E+00 0. -1.
         23    2    1    2    0    0 -0.14509496252E+02 -0.37431398259E+02  0.27218971849E+03  0.28882891386E+03  0.87882100400E+02 0.  0.
          5    1    1    2  502    0  0.24897366172E+01 -0.41273367869E+02  0.19048093221E+03  0.19496191325E+03  0.41800000000E+01 0. -1.
         -5    1    1    2    0  502  0.12019759635E+02  0.78704766129E+02  0.86410642572E+03  0.86777664304E+03  0.41800000000E+01 0. -1.
        -11    1    3    3    0    0  0.24399986494E+02 -0.19691908350E+01  0.21218020152E+02  0.32395083464E+02  0.00000000000E+00 0. -1.
         11    1    3    3    0    0 -0.38909482747E+02 -0.35462207424E+02  0.25097169834E+03  0.25643383040E+03  0.00000000000E+00 0.  1.
</event>
<event>
 7    1  0.5831876E-006  0.1299279E+03  0.7561462E-02  0.1227563E+00
         -2   -1    0    0    0  501 -0.00000000000E+00  0.00000000000E+00  0.74705683363E+02  0.74705683363E+02  0.00000000000E+00 0.  1.
          2   -1    0    0  501    0  0.00000000000E+00 -0.00000000000E+00 -0.28459912021E+03  0.28459912021E+03  0.00000000000E+00 0. -1.
         23    2    1    2    0    0  0.58264288020E+02 -0.62756347705E+02 -0.37144185757E+02  0.12949275470E+03  0.89752975148E+02 0.  0.
          5    1    1    2  502    0 -0.35630136562E+02  0.99817128111E+02 -0.13790915260E+03  0.17398095432E+03  0.41800000000E+01 0. -1.
         -5    1    1    2    0  502 -0.22634151458E+02 -0.37060780406E+02 -0.34840098493E+02  0.55831094558E+02  0.41800000000E+01 0. -1.
        -11    1    3    3    0    0  0.33870362377E+02 -0.75419760354E+02  0.75108738926E+00  0.82679536959E+02  0.00000000000E+00 0.  1.
         11    1    3    3    0    0  0.24393925642E+02  0.12663412650E+02 -0.37895273147E+02  0.46813217739E+02  0.00000000000E+00 0. -1.
</event>
<event>
 7    1  0.5831876E-006  0.8922140E+02  0.7561462E-02  0.1304748E+00
         -2   -1    0    0    0  501 -0.00000000000E+00  0.00000000000E+00  0.32945899916E+02  0.32945899916E+02  0.00000000000E+00 0.  1.
          2   -1    0    0  501    0  0.00000000000E+00 -0.00000000000E+00 -0.85651365246E+03  0.85651365246E+03  0.00000000000E+00 0. -1.
         23    2    1    2    0    0 -0.53502052720E+02  0.50962604250E+02 -0.13006950551E+03  0.18090588481E+03  0.10173104846E+03 0.  0.
          5    1    1    2  502    0  0.31756046785E+02 -0.40704358977E+02 -0.84804343558E+02  0.99370722215E+02  0.41800000000E+01 0.  1.
         -5    1    1    2    0  502  0.21746005935E+02 -0.10258245273E+02 -0.60869390348E+03  0.60918294535E+03  0.41800000000E+01 0.  1.
        -11    1    3    3    0    0 -0.36086555478E+02 -0.11122034401E+02 -0.23529418670E+01  0.37834844666E+02  0.00000000000E+00 0.  1.
         11    1    3    3    0    0 -0.17415497241E+02  0.62084638651E+02 -0.12771656364E+03  0.14307104014E+03  0.00000000000E+00 0. -1.
</event>
<event>
 7    1  0.5831876E-006  0.1371978E+03  0.7561462E-02  0.1217150E+00
         -2   -1    0    0    0  501 -0.00000000000E+00  0.00000000000E+00  0.19633792255E+02  0.19633792255E+02  0.00000000000E+00 0.  1.
          2   -1    0    0  501    0  0.00000000000E+00 -0.00000000000E+00 -0.14957282580E+04  0.14957282580E+04  0.00000000000E+00 0. -1.
         23    2    1    2    0    0  0.24302210719E+00 -0.10714305494E+03 -0.34815156517E+03  0.37545751833E+03  0.90989793176E+02 0.  0.
          5    1    1    2  502    0 -0.46355649248E+02  0.72539202044E+02 -0.37637652811E+03  0.38611856386E+03  0.41800000000E+01 0. -1.
         -5    1    1    2    0  502  0.46112627140E+02  0.34603852892E+02 -0.75156637250E+03  0.75378596809E+03  0.41800000000E+01 0. -1.
        -11    1    3    3    0    0 -0.31277233346E+02 -0.88313031528E+02 -0.17546288830E+03  0.19890872790E+03  0.00000000000E+00 0.  1.
         11    1    3    3    0    0  0.31520255453E+02 -0.18830023409E+02 -0.17268867687E+03  0.17654879044E+03  0.00000000000E+00 0. -1.
</event>
<event>
 7    1  0.5831876E-006  0.1325990E+03  0.7561462E-02  0.1223649E+00
          1   -1    0    0  501    0  0.00000000000E+00  0.00000000000E+00  0.67811115053E+03  0.67811115053E+03  0.00000000000E+00 0. -1.
         -1   -1    0    0    0  501 -0.00000000000E+00 -0.00000000000E+00 -0.38839918244E+02  0.38839918244E+02  0.00000000000E+00 0.  1.
         23    2    1    2    0    0 -0.68734166643E+02 -0.35142664647E+02  0.93088638035E+02  0.15133460193E+03  0.90979528835E+02 0.  0.
          5    1    1    2  502    0 -0.10048752059E+02 -0.37428297946E+02  0.17345372310E+03  0.17777941771E+03  0.41800000000E+01 0.  1.
         -5    1    1    2    0  502  0.78782918702E+02  0.72570962593E+02  0.37272887115E+03  0.38783704914E+03  0.41800000000E+01 0.  1.
        -11    1    3    3    0    0 -0.70033190957E+02 -0.61157113655E+02  0.76976398653E+02  0.12070710972E+03  0.00000000000E+00 0. -1.
         11    1    3    3    0    0  0.12990243143E+01  0.26014449008E+02  0.16112239382E+02  0.30627492213E+02  0.00000000000E+00 0.  1.
</event>
<event>
 7    1  0.5831876E-006  0.9786342E+02  0.7561462E-02  0.1284854E+00
         -2   -1    0    0    0  501 -0.00000000000E+00  0.00000000000E+00  0.97037197266E+02  0.97037197266E+02  0.00000000000E+00 0. -1.
          2   -1    0    0  501    0  0.00000000000E+00 -0.00000000000E+00 -0.21747690782E+03  0.21747690782E+03  0.00000000000E+00 0.  1.
         23    2    1    2    0    0 -0.39463610845E+02  0.51012608398E+02  0.24024901512E+02  0.11283477345E+03  0.89413798764E+02 0.  0.
          5    1    1    2  502    0  0.28139968439E+02 -0.87604974554E+02 -0.13242916312E+03  0.16131163949E+03  0.41800000000E+01 0. -1.
         -5    1    1    2    0  502  0.11323642406E+02  0.36592366157E+02 -0.12035448951E+02  0.40367692153E+02  0.41800000000E+01 0. -1.
        -11    1    3    3    0    0 -0.26925502455E+02  0.40954328170E+02  0.57587757245E+02  0.75621355865E+02  0.00000000000E+00 0. -1.
         11    1    3    3    0    0 -0.12538108391E+02  0.10058280228E+02 -0.33562855733E+02  0.37213417582E+02  0.00000000000E+00 0.  1.
</event>
<event>
 7    1  0.5831876E-006  0.1074101E+03  0.7561462E-02  0.1265442E+00
          1   -1    0    0  501    0  0.00000000000E+00  0.00000000000E+00  0.59014023478E+03  0.59014023478E+03  0.00000000000E+00 0. -1.
         -1   -1    0    0    0  501 -0.00000000000E+00 -0.00000000000E+00 -0.24420522118E+02  0.24420522118E+02  0.00000000000E+00 0.  1.
         23    2    1    2    0    0 -0.16061088095E+02 -0.26471154867E+02  0.14223963437E+03  0.17190396800E+03  0.91434020129E+02 0.  0.
          5    1    1    2  502    0 -0.43007891701E+02  0.44464461367E+02  0.27288693909E+03  0.27984195718E+03  0.41800000000E+01 0.  1.
         -5    1    1    2    0  502  0.59068979796E+02 -0.17993306500E+02  0.15059313920E+03  0.16281483171E+03  0.41800000000E+01 0.  1.
        -11    1    3    3    0    0  0.12546654260E+02 -0.51445301428E+02  0.52999359365E+02  0.74919754840E+02  0.00000000000E+00 0.  1.
         11    1    3    3    0    0 -0.28607742355E+02  0.24974146561E+02  0.89240275006E+02  0.96984213159E+02  0.00000000000E+00 0. -1.
</event>
<event>
 7    1  0.5831876E-006  0.8429841E+02  0.7561462E-02  0.1317278E+00
          1   -1    0    0  501    0  0.00000000000E+00  0.00000000000E+00  0.31454520243E+03  0.31454520243E+03  0.00000000000E+00 0.  1.
         -1   -1    0    0    0  501 -0.00000000000E+00 -0.00000000000E+00 -0.39188431465E+02  0.39188431465E+02  0.00000000000E+00 0. -1.
         23    2    1    2    0    0  0.15108456651E+02  0.91006653440E+01  0.91360521425E+02  0.13054414217E+03  0.91563860823E+02 0.  0.
          5    1    1    2  502    0 -0.36595033321E+02 -0.33202583962E+02  0.18406822497E+03  0.19063103600E+03  0.41800000000E+01 0. -1.
         -5    1    1    2    0  502  0.21486576671E+02  0.24101918618E+02 -0.71975428512E-01  0.32558455715E+02  0.41800000000E+01 0. -1.
        -11    1    3    3    0    0  0.41489815565E+02 -0.20935441459E+02  0.24224843447E+02  0.52407447417E+02  0.00000000000E+00 0. -1.
         11    1    3    3    0    0 -0.26381358914E+02  0.30036106803E+02  0.67135677977E+02  0.78136694757E+02  0.00000000000E+00 0.  1.
</event>
<event>
 7    1  0.5831876E-006  0.2033917E+03  0.7561462E-02  0.1146909E+00
         -2   -1    0    0    0  501 -0.00000000000E+00  0.00000000000E+00  0.21112436784E+03  0.21112436784E+03  0.00000000000E+00 0.  1.
          2   -1    0    0  501    0  0.00000000000E+00 -0.00000000000E+00 -0.22941269058E+03  0.22941269058E+03  0.00000000000E+00 0. -1.
         23    2    1    2    0    0  0.18273698922E+03 -0.61824442260E+02 -0.17031487127E+02  0.21063373055E+03  0.82833737097E+02 0.  0.
          5    1    1    2  502    0 -0.15572493015E+03  0.37122275139E+02 -0.50941053198E+02  0.16804993449E+03  0.41800000000E+01 0. -1.
         -5    1    1    2    0  502 -0.27012059074E+02  0.24702167120E+02  0.49684217587E+02  0.61853393384E+02  0.41800000000E+01 0. -1.
        -11    1    3    3    0    0  0.57867206866E+02 -0.62162678024E+02 -0.10745630300E+02  0.85605377986E+02  0.00000000000E+00 0.  1.
         11    1    3    3    0    0  0.12486978236E+03  0.33823576436E+00 -0.62858568275E+01  0.12502835256E+03  0.00000000000E+00 0. -1.
</event>
<event>
 7    1  0.5831876E-006  0.2109842E+03  0.7561462E-02  0.1140789E+00
         -1   -1    0    0    0  501 -0.00000000000E+00  0.00000000000E+00  0.83332407890E+02  0.83332407890E+02  0.00000000000E+00 0.  1.
          1   -1    0    0  501    0  0.00000000000E+00 -0.00000000000E+00 -0.58076391230E+03  0.58076391230E+03  0.00000000000E+00 0. -1.
         23    2    1    2    0    0  0.51061792838E+02 -0.18395468704E+03 -0.22069666241E+03  0.30537517020E+03  0.90001912241E+02 0.  0.
          5    1    1    2  502    0 -0.76983518704E+02  0.14046138112E+03 -0.13972215510E+03  0.21259260280E+03  0.41800000000E+01 0. -1.
         -5    1    1    2    0  502  0.25921725866E+02  0.43493305918E+02 -0.13701268690E+03  0.14612854719E+03  0.41800000000E+01 0. -1.
        -11    1    3    3    0    0  0.25018822444E+02 -0.18317998184E+03 -0.18985690310E+03  0.26500281296E+03  0.00000000000E+00 0. -1.
         11    1    3    3    0    0  0.26042970393E+02 -0.77470520075E+00 -0.30839759310E+02  0.40372357243E+02  0.00000000000E+00 0.  1.
</event>
<event>
 7    1  0.5831876E-006  0.1174940E+03  0.7561462E-02  0.1247289E+00
          1   -1    0    0  501    0  0.00000000000E+00  0.00000000000E+00  0.35016739978E+03  0.35016739978E+03  0.00000000000E+00 0. -1.
         -1   -1    0    0    0  501 -0.00000000000E+00 -0.00000000000E+00 -0.61862679977E+02  0.61862679977E+02  0.00000000000E+00 0.  1.
         23    2    1    2    0    0  0.73399941892E+01 -0.94983075381E+02  0.97617292516E+02  0.16487723190E+03  0.92626700680E+02 0.  0.
          5    1    1    2  502    0 -0.25741745377E+02  0.46884077373E+02  0.18790060004E+03  0.19540947280E+03  0.41800000000E+01 0.  1.
         -5    1    1    2    0  502  0.18401751188E+02  0.48098998007E+02  0.27868272547E+01  0.51743375056E+02  0.41800000000E+01 0.  1.
        -11    1    3    3    0    0 -0.40432238142E+02 -0.40941867073E+02  0.61461738613E+02  0.84193513254E+02  0.00000000000E+00 0.  1.
         11    1    3    3    0    0  0.47772232332E+02 -0.54041208307E+02  0.36155553902E+02  0.80683718650E+02  0.00000000000E+00 0. -1.
</event>
<event>
 7    1  0.5831876E-006  0.9184997E+02  0.7561462E-02  0.1298433E+00
          1   -1    0    0  501    0  0.00000000000E+00  0.00000000000E+00  0.89961597570E+03  0.89961597570E+03  0.00000000000E+00 0. -1.
         -1   -1    0    0    0  501 -0.00000000000E+00 -0.00000000000E+00 -0.17929700471E+02  0.17929700471E+02  0.00000000000E+00 0.  1.
         23    2    1    2    0    0 -0.49162077107E+02  0.16258051768E+02  0.24017394157E+03  0.26190325041E+03  0.90711390095E+02 0.  0.
          5    1    1    2  502    0 -0.48817355164E+00 -0.42686517580E+02  0.75554145969E+02  0.86880829126E+02  0.41800000000E+01 0.  1.
         -5    1    1    2    0  502  0.49650250658E+02  0.26428465812E+02  0.56595818769E+03  0.56876159664E+03  0.41800000000E+01 0.  1.
        -11    1    3    3    0    0 -0.42086288470E+02 -0.20611874596E+02  0.51915966197E+02  0.69938348548E+02  0.00000000000E+00 0.  1.
         11    1    3    3    0    0 -0.70757886370E+01  0.36869926364E+02  0.18825797537E+03  0.19196490186E+03  0.00000000000E+00 0. -1.
</event>
<event>
 7    1  0.5831876E-006  0.9685150E+02  0.7561462E-02  0.1287060E+00
         -2   -1    0    0    0  501 -0.00000000000E+00  0.00000000000E+00  0.33116960804E+02  0.33116960804E+02  0.00000000000E+00 0.  1.
          2   -1    0    0  501    0  0.00000000000E+00 -0.00000000000E+00 -0.41326136200E+03  0.41326136200E+03  0.00000000000E+00 0. -1.
         23    2    1    2    0    0 -0.11174066112E+02  0.19327985871E+02 -0.97345610045E+02  0.13633518524E+03  0.92804548094E+02 0.  0.
          5    1    1    2  502    0  0.57674322486E+02 -0.15060883051E+02 -0.23731703706E+03  0.24472434728E+03  0.41800000000E+01 0. -1.
         -5    1    1    2    0  502 -0.46500256374E+02 -0.42671028192E+01 -0.45481754088E+02  0.65318790285E+02  0.41800000000E+01 0. -1.
        -11    1    3    3    0    0  0.14342488714E+02  0.47168577233E+02 -0.26303000536E+02  0.55878703438E+02  0.00000000000E+00 0.  1.
         11    1    3    3    0    0 -0.25516554826E+02 -0.27840591362E+02 -0.71042609508E+02  0.80456481798E+02  0.00000000000E+00 0. -1.
</event>
<event>
 7    1  0.5831876E-006  0.2340281E+03  0.7561462E-02  0.1123836E+00
         -1   -1    0    0    0  501 -0.00000000000E+00  0.00000000000E+00  0.19046133240E+03  0.19046133240E+03  0.00000000000E+00 0.  1.
          1   -1    0    0  501    0  0.00000000000E+00 -0.00000000000E+00 -0.33100249757E+03  0.33100249757E+03  0.00000000000E+00 0. -1.
         23    2    1    2    0    0  0.22077831700E+03  0.38442775130E+02 -0.34429287258E+02  0.24374149814E+03  0.89463008422E+02 0.  0.
          5    1    1    2  502    0 -0.14357656368E+03 -0.62622596862E+01 -0.12653253170E+03  0.19152388758E+03  0.41800000000E+01 0.  1.
         -5    1    1    2    0  502 -0.77201753323E+02 -0.32180515444E+02  0.20420653787E+02  0.86198444252E+02  0.41800000000E+01 0.  1.
        -11    1    3    3    0    0  0.16789599431E+03 -0.10847584915E+02 -0.15171057551E+02  0.16892867131E+03  0.00000000000E+00 0.  1.
         11    1    3    3    0    0  0.52882322696E+02  0.49290360045E+02 -0.19258229706E+02  0.74812826831E+02  0.00000000000E+00 0. -1.
</event>
<event>
 7    1  0.5831876E-006  0.1240173E+03  0.7561462E-02  0.1236613E+00
          2   -1    0    0  501    0  0.00000000000E+00  0.00000000000E+00  0.41574165623E+02  0.41574165623E+02  0.00000000000E+00 0. -1.
         -2   -1    0    0    0  501 -0.00000000000E+00 -0.00000000000E+00 -0.43227350205E+03  0.43227350205E+03  0.00000000000E+00 0.  1.
         23    2    1    2    0    0 -0.45086984529E+02  0.63885888171E+02 -0.16915660793E+03  0.20759513579E+03  0.91474256038E+02 0.  0.
          5    1    1    2  502    0 -0.43480951691E+02 -0.23858045249E+02 -0.86863029998E+02  0.10011222634E+03  0.41800000000E+01 0.  1.
         -5    1    1    2    0  502  0.88567936220E+02 -0.40027842921E+02 -0.13467969850E+03  0.16614030553E+03  0.41800000000E+01 0.  1.
        -11    1    3    3    0    0 -0.29694541652E+02  0.75868596489E+02 -0.72722617991E+02  0.10920800751E+03  0.00000000000E+00 0. -1.
         11    1    3    3    0    0 -0.15392442877E+02 -0.11982708318E+02 -0.96433989936E+02  0.98387128281E+02  0.00000000000E+00 0.  1.
</event>
<event>
 7    1  0.5831876E-006  0.1128475E+03  0.7561462E-02  0.1255386E+00
         -2   -1    0    0    0  501 -0.00000000000E+00  0.00000000000E+00  0.23645864002E+02  0.23645864002E+02  0.00000000000E+00 0. -1.
          2   -1    0    0  501    0  0.00000000000E+00 -0.00000000000E+00 -0.57675786998E+03  0.57675786998E+03  0.00000000000E+00 0.  1.
         23    2    1    2    0    0  0.35216592548E+02 -0.21435126891E+02 -0.19067864273E+03  0.21477842794E+03  0.89842947746E+02 0.  0.
          5    1    1    2  502    0  0.83098126136E+01  0.64874584165E+02 -0.23657086251E+03  0.24548118063E+03  0.41800000000E+01 0.  1.
         -5    1    1    2    0  502 -0.43526405161E+02 -0.43439457274E+02 -0.12586250074E+03  0.14014412541E+03  0.41800000000E+01 0.  1.
        -11    1    3    3    0    0 -0.16370302252E+02 -0.40374564106E+02 -0.75688166712E+02  0.87331499488E+02  0.00000000000E+00 0.  1.
         11    1    3    3    0    0  0.51586894800E+02  0.18939437215E+02 -0.11499047602E+03  0.12744692846E+03  0.00000000000E+00 0. -1.
</event>
<event>
 7    1  0.5831876E-006  0.9058651E+02  0.7561462E-02  0.1301438E+00
         -1   -1    0    0    0  501 -0.00000000000E+00  0.00000000000E+00  0.31817216216E+02  0.31817216216E+02  0.00000000000E+00 0.  1.
          1   -1    0    0  501    0  0.00000000000E+00 -0.00000000000E+00 -0.59934882519E+03  0.59934882519E+03  0.00000000000E+00 0. -1.
         23    2    1    2    0    0 -0.26253128881E+02 -0.39321693798E+02 -0.86050018930E+02  0.13380007998E+03  0.90897927723E+02 0.  0.
          5    1    1    2  502    0  0.22408507227E+02 -0.12896387974E+02 -0.39715965753E+03  0.39802226570E+03  0.41800000000E+01 0. -1.
         -5    1    1    2    0  502  0.38446216545E+01  0.52218081772E+02 -0.84321932512E+02  0.99343695735E+02  0.41800000000E+01 0.  1.
        -11    1    3    3    0    0  0.93774224949E+00 -0.65029948996E+02 -0.55054675796E+02  0.85210274932E+02  0.00000000000E+00 0.  1.
         11    1    3    3    0    0 -0.27190871131E+02  0.25708255198E+02 -0.30995343134E+02  0.48589805043E+02  0.00000000000E+00 0. -1.
</event>
<event>
 7    1  0.5831876E-006  0.1178752E+03  0.7561462E-02  0.1246644E+00
         -2   -1    0    0    0  501 -0.00000000000E+00  0.00000000000E+00  0.61548229866E+02  0.61548229866E+02  0.00000000000E+00 0.  1.
          2   -1    0    0  501    0  0.00000000000E+00 -0.00000000000E+00 -0.28678163077E+03  0.28678163077E+03  0.00000000000E+00 0. -1.
         23    2    1    2    0    0  0.66833938931E+02 -0.27369697953E+01 -0.50395203183E+02  0.12318432308E+03  0.90335123583E+02 0.  0.
          5    1    1    2  502    0  0.13260552832E+01 -0.44785453819E+02 -0.19732690511E+02  0.49136002800E+02  0.41800000000E+01 0.  1.
         -5    1    1    2    0  502 -0.68159994215E+02  0.47522423614E+02 -0.15510550721E+03  0.17600953475E+03  0.41800000000E+01 0.  1.
        -11    1    3    3    0    0 -0.28135465958E+01  0.30326871799E+02  0.10900497704E+01  0.30476604241E+02  0.00000000000E+00 0.  1.
         11    1    3    3    0    0  0.69647485527E+02 -0.33063841594E+02 -0.51485252954E+02  0.92707718842E+02  0.00000000000E+00 0. -1.
</event>
<event>
 7    1  0.5831876E-006  0.9562934E+02  0.7561462E-02  0.1289765E+00
         -2   -1    0    0    0  501 -0.00000000000E+00  0.00000000000E+00  0.25784960900E+03  0.25784960900E+03  0.00000000000E+00 0. -1.
          2   -1    0    0  501    0  0.00000000000E+00 -0.00000000000E+00 -0.91557803442E+02  0.91557803442E+02  0.00000000000E+00 0.  1.
         23    2    1    2    0    0  0.51176695192E+02  0.10426508104E+02  0.18487331737E+03  0.21288181745E+03  0.91721090928E+02 0.  0.
          5    1    1    2  502    0 -0.68233366494E+02 -0.34971546154E+02  0.27395555416E+02  0.81527849230E+02  0.41800000000E+01 0. -1.
         -5    1    1    2    0  502  0.17056671303E+02  0.24545038050E+02 -0.45977067228E+02  0.54997745769E+02  0.41800000000E+01 0. -1.
        -11    1    3    3    0    0  0.68833100126E+01 -0.26029504613E+02  0.98049138965E+01  0.28653994549E+02  0.00000000000E+00 0.  1.
         11    1    3    3    0    0  0.44293385179E+02  0.36456012716E+02  0.17506840348E+03  0.18422782290E+03  0.00000000000E+00 0. -1.
</event>
<event>
 7    1  0.5831876E-006  0.1054205E+03  0.7561462E-02  0.1269293E+00
         -2   -1    0    0    0  501 -0.00000000000E+00  0.00000000000E+00  0.27163658461E+02  0.27163658461E+02  0.00000000000E+00 0.  1.
          2   -1    0    0  501    0  0.00000000000E+00 -0.00000000000E+00 -0.57195717714E+03  0.57195717714E+03  0.00000000000E+00 0. -1.
         23    2    1    2    0    0  0.11003223047E+02 -0.56947270141E+02 -0.20283103924E+03  0.23040128934E+03  0.92629699116E+02 0.  0.
          5    1    1    2  502    0  0.63964646717E+01  0.95278674722E+02 -0.23495442481E+03  0.25365329636E+03  0.41800000000E+01 0.  1.
         -5    1    1    2    0  502 -0.17399687719E+02 -0.38331404581E+02 -0.10700805463E+03  0.11506624990E+03  0.41800000000E+01 0.  1.
        -11    1    3    3    0    0 -0.15046323949E+02 -0.69428549593E+01  0.31284433685E+01  0.16863637131E+02  0.00000000000E+00 0.  1.
         11    1    3    3    0    0  0.26049546996E+02 -0.50004415181E+02 -0.20595948261E+03  0.21353765221E+03  0.00000000000E+00 0. -1.
</event>
<event>
 7    1  0.5831876E-006  0.9018487E+02  0.7561462E-02  0.1302405E+00
          2   -1    0    0  501    0  0.00000000000E+00  0.00000000000E+00  0.11679975366E+04  0.11679975366E+04  0.00000000000E+00 0. -1.
         -2   -1    0    0    0  501 -0.00000000000E+00 -0.00000000000E+00 -0.23266248089E+02  0.23266248089E+02  0.00000000000E+00 0.  1.
         23    2    1    2    0    0  0.57775762795E+02  0.32994317875E+02  0.14298386751E+03  0.17687664375E+03  0.80089306136E+02 0.  0.
          5    1    1    2  502    0 -0.50368858416E+02 -0.57123514634E+02  0.97267296340E+03  0.97565889734E+03  0.41800000000E+01 0. -1.
         -5    1    1    2    0  502 -0.74069043797E+01  0.24129196759E+02  0.29074457649E+02  0.38728243651E+02  0.41800000000E+01 0.  1.
        -11    1    3    3    0    0  0.14378555722E+02 -0.99289932284E+01 -0.38222728555E+01  0.17886797952E+02  0.00000000000E+00 0. -1.
         11    1    3    3    0    0  0.43397207073E+02  0.42923311103E+02  0.14680614036E+03  0.15898984580E+03  0.00000000000E+00 0.  1.
</event>
<event>
 7    1  0.5831876E-006  0.1920182E+03  0.7561462E-02  0.1156654E+00
         -1   -1    0    0    0  501 -0.00000000000E+00  0.00000000000E+00  0.96056610542E+03  0.96056610542E+03  0.00000000000E+00 0.  1.
          1   -1    0    0  501    0  0.00000000000E+00 -0.00000000000E+00 -0.40305363307E+02  0.40305363307E+02  0.00000000000E+00 0. -1.
         23    2    1    2    0    0  0.29306889749E+02 -0.15798109008E+03  0.51874291635E+03  0.55067061492E+03  0.91252365829E+02 0.  0.
          5    1    1    2  502    0 -0.57786879376E+02  0.21736447170E+02  0.92921221529E+02  0.11164059465E+03  0.41800000000E+01 0. -1.
         -5    1    1    2    0  502  0.28479989628E+02  0.13624464291E+03  0.30859660424E+03  0.33856025915E+03  0.41800000000E+01 0. -1.
        -11    1    3    3    0    0 -0.68675463450E+01 -0.14393301031E+03  0.43783568508E+03  0.46093813227E+03  0.00000000000E+00 0. -1.
         11    1    3    3    0    0  0.36174436094E+02 -0.14048079769E+02  0.80907231266E+02  0.89732482653E+02  0.00000000000E+00 0.  1.
</event>
<event>
 7    1  0.5831876E-006  0.1050616E+03  0.7561462E-02  0.1269998E+00
         -1   -1    0    0    0  501 -0.00000000000E+00  0.00000000000E+00  0.28644782346E+03  0.28644782346E+03  0.00000000000E+00 0.  1.
          1   -1    0    0  501    0  0.00000000000E+00 -0.00000000000E+00 -0.53380973472E+02  0.53380973472E+02  0.00000000000E+00 0. -1.
         23    2    1    2    0    0  0.88095648827E+01 -0.16276471380E+02  0.99509353935E+02  0.13494527234E+03  0.89250115136E+02 0.  0.
          5    1    1    2  502    0  0.58139844505E+02  0.41329970567E+02  0.26758714181E+02  0.76301436230E+02  0.41800000000E+01 0. -1.
         -5    1    1    2    0  502 -0.66949409388E+02 -0.25053499186E+02  0.10679878187E+03  0.12858208837E+03  0.41800000000E+01 0.  1.
        -11    1    3    3    0    0  0.28286473169E+02  0.13609030482E+02  0.23887135807E+01  0.31480727876E+02  0.00000000000E+00 0. -1.
         11    1    3    3    0    0 -0.19476908287E+02 -0.29885501862E+02  0.97120640355E+02  0.10346454446E+03  0.00000000000E+00 0.  1.
</event>
<event>
 7    1  0.5831876E-006  0.8543603E+02  0.7561462E-02  0.1314296E+00
         -2   -1    0    0    0  501 -0.00000000000E+00  0.00000000000E+00  0.48728454154E+02  0.48728454154E+02  0.00000000000E+00 0.  1.
          2   -1    0    0  501    0  0.00000000000E+00 -0.00000000000E+00 -0.35119235991E+03  0.35119235991E+03  0.00000000000E+00 0. -1.
         23    2    1    2    0    0 -0.61510299356E+01 -0.48928288955E+02 -0.51223921210E+02  0.11495934580E+03  0.90332433009E+02 0.  0.
          5    1    1    2  502    0 -0.17206418515E+02 -0.24292115828E+02 -0.17157293496E+03  0.17418642927E+03  0.41800000000E+01 0. -1.
         -5    1    1    2    0  502  0.23357448451E+02  0.73220404784E+02 -0.79667049577E+02  0.11077503899E+03  0.41800000000E+01 0. -1.
        -11    1    3    3    0    0  0.16032933347E+02 -0.95962782719E+01  0.22041373469E+02  0.28895772230E+02  0.00000000000E+00 0.  1.
         11    1    3    3    0    0 -0.22183963283E+02 -0.39332010683E+02 -0.73265294679E+02  0.86063573570E+02  0.00000000000E+00 0. -1.
</event>
<event>
 7    1  0.5831876E-006  0.7560087E+02  0.7561462E-02  0.1342020E+00
          2   -1    0    0  501    0  0.00000000000E+00  0.00000000000E+00  0.43708550254E+02  0.43708550254E+02  0.00000000000E+00 0. -1.
         -2   -1    0    0    0  501 -0.00000000000E+00 -0.00000000000E+00 -0.29629385064E+03  0.29629385064E+03  0.00000000000E+00 0.  1.
         23    2    1    2    0    0 -0.69567813440E+01  0.24700628041E+02 -0.12546573342E+03  0.15981105878E+03  0.95600242744E+02 0.  0.
          5    1    1    2  502    0  0.25542171091E+00 -0.50701903934E+02 -0.14084198777E+03  0.14974874364E+03  0.41800000000E+01 0. -1.
         -5    1    1    2    0  502  0.67013596331E+01  0.26001275893E+02  0.13722420807E+02  0.30442598473E+02  0.41800000000E+01 0. -1.
        -11    1    3    3    0    0 -0.36684535494E+02  0.39445039972E+01 -0.11686100579E+03  0.12254717023E+03  0.00000000000E+00 0.  1.
         11    1    3    3    0    0  0.29727754150E+02  0.20756124043E+02 -0.86047276247E+01  0.37263888547E+02  0.00000000000E+00 0. -1.
</event>
<event>
 7    1  0.5831876E-006  0.3852258E+03  0.7561462E-02  0.1049019E+00
         -2   -1    0    0    0  501 -0.00000000000E+00  0.00000000000E+00  0.40817978658E+03  0.40817978658E+03  0.00000000000E+00 0.  1.
          2   -1    0    0  501    0  0.00000000000E+00 -0.00000000000E+00 -0.55752258734E+03  0.55752258734E+03  0.00000000000E+00 0. -1.
         23    2    1    2    0    0  0.14405742194E+02  0.89726107466E+02  0.91930492494E+01  0.12765804395E+03  0.89183878929E+02 0.  0.
          5    1    1    2  502    0  0.64502967282E+02  0.26870267407E+03 -0.33208902550E+03  0.43204438788E+03  0.41800000000E+01 0. -1.
         -5    1    1    2    0  502 -0.78908709476E+02 -0.35842878153E+03  0.17355317549E+03  0.40599994210E+03  0.41800000000E+01 0.  1.
        -11    1    3    3    0    0  0.84827533422E+01 -0.17611050690E+02  0.44799131040E+01  0.20054322030E+02  0.00000000000E+00 0.  1.
         11    1    3    3    0    0  0.59229888514E+01  0.10733715816E+03  0.47131361454E+01  0.10760372192E+03  0.00000000000E+00 0. -1.
</event>
<event>
 7    1  0.5831876E-006  0.2289147E+03  0.7561462E-02  0.1127406E+00
          4   -1    0    0  501    0  0.00000000000E+00  0.00000000000E+00  0.69618390386E+03  0.69618390386E+03  0.00000000000E+00 0.  1.
         -4   -1    0    0    0  501 -0.00000000000E+00 -0.00000000000E+00 -0.84724206557E+02  0.84724206557E+02  0.00000000000E+00 0. -1.
         23    2    1    2    0    0  0.94627947317E+02  0.19175429543E+03  0.25826168245E+03  0.34948891690E+03  0.98586247426E+02 0.  0.
          5    1    1    2  502    0 -0.23508818067E+02 -0.12685486239E+03  0.10919189098E+03  0.16907147037E+03  0.41800000000E+01 0.  1.
         -5    1    1    2    0  502 -0.71119129250E+02 -0.64899433043E+02  0.24400612387E+03  0.26234772315E+03  0.41800000000E+01 0.  1.
        -11    1    3    3    0    0 -0.42250152916E+01  0.91447402284E+02  0.13004022432E+03  0.15903124876E+03  0.00000000000E+00 0.  1.
         11    1    3    3    0    0  0.98852962608E+02  0.10030689314E+03  0.12822145813E+03  0.19045766814E+03  0.00000000000E+00 0. -1.
</event>
<event>
 7    1  0.5831876E-006  0.8903805E+02  0.7561462E-02  0.1305198E+00
          1   -1    0    0  501    0  0.00000000000E+00  0.00000000000E+00  0.84104538610E+02  0.84104538610E+02  0.00000000000E+00 0. -1.
         -1   -1    0    0    0  501 -0.00000000000E+00 -0.00000000000E+00 -0.17198999711E+03  0.17198999711E+03  0.00000000000E+00 0.  1.
         23    2    1    2    0    0  0.14972548597E+02  0.49296206698E+02 -0.35637940738E+02  0.11107468354E+03  0.91723657243E+02 0.  0.
          5    1    1    2  502    0  0.12945233502E+02  0.33494601040E+02  0.10178640958E+02  0.37557216364E+02  0.41800000000E+01 0. -1.
         -5    1    1    2    0  502 -0.27917782099E+02 -0.82790807738E+02 -0.62426158719E+02  0.10746263581E+03  0.41800000000E+01 0. -1.
        -11    1    3    3    0    0  0.33856128055E+01  0.38396599970E+02 -0.66209256019E+02  0.76612184710E+02  0.00000000000E+00 0.  1.
         11    1    3    3    0    0  0.11586935791E+02  0.10899606727E+02  0.30571315281E+02  0.34462498834E+02  0.00000000000E+00 0. -1.
</event>
<event>
 7    1  0.5831876E-006  0.1012290E+03  0.7561462E-02  0.1277732E+00
         -1   -1    0    0    0  501 -0.00000000000E+00  0.00000000000E+00  0.27110006696E+02  0.27110006696E+02  0.00000000000E+00 0.  1.
          1   -1    0    0  501    0  0.00000000000E+00 -0.00000000000E+00 -0.70648159252E+03  0.70648159252E+03  0.00000000000E+00 0. -1.
         23    2    1    2    0    0 -0.38971239969E+02  0.67074727796E+02 -0.20383746283E+03  0.23579614335E+03  0.89623285538E+02 0.  0.
          5    1    1    2  502    0  0.16777212635E+02  0.39940942261E+01 -0.35903862398E+03  0.35947688877E+03  0.41800000000E+01 0. -1.
         -5    1    1    2    0  502  0.22194027334E+02 -0.71068822022E+02 -0.11649549902E+03  0.13831856710E+03  0.41800000000E+01 0. -1.
        -11    1    3    3    0    0 -0.45648785461E+02  0.81966881335E+02 -0.13087107032E+03  0.16102676267E+03  0.00000000000E+00 0.  1.
         11    1    3    3    0    0  0.66775454920E+01 -0.14892153538E+02 -0.72966392504E+02  0.74769380670E+02  0.00000000000E+00 0. -1.
</event>
<event>
 6    1  0.5831876E-006  0.1753626E+03  0.7561462E-02  0.1172368E+00
         -2   -1    0    0    0  501 -0.00000000000E+00  0.00000000000E+00  0.58937745274E+02  0.58937745274E+02  0.00000000000E+00 0.  1.
          2   -1    0    0  501    0  0.00000000000E+00 -0.00000000000E+00 -0.61409225992E+03  0.61409225992E+03  0.00000000000E+00 0. -1.
          5    1    1    2  502    0 -0.12474668873E+03 -0.56487020476E+02 -0.28392929189E+03  0.31525519032E+03  0.41800000000E+01 0.  1.
         -5    1    1    2    0  502  0.58720112202E+01  0.34683826480E+02 -0.10448027528E+03  0.11032247576E+03  0.41800000000E+01 0.  1.
        -11    1    1    2    0    0  0.12649322849E+03 -0.26631751383E+02 -0.14366911843E+03  0.19326303999E+03  0.00000000000E+00 0. -1.
         11    1    1    2    0    0 -0.76185509831E+01  0.48434945378E+02 -0.23075829038E+02  0.54189299116E+02  0.00000000000E+00 0.  1.
</event>
<event>
 7    1  0.5831876E-006  0.9078080E+02  0.7561462E-02  0.1300972E+00
          2   -1    0    0  501    0  0.00000000000E+00  0.00000000000E+00  0.44729309565E+03  0.44729309565E+03  0.00000000000E+00 0. -1.
         -2   -1    0    0    0  501 -0.00000000000E+00 -0.00000000000E+00 -0.37794795485E+02  0.37794795485E+02  0.00000000000E+00 0.  1.
         23    2    1    2    0    0 -0.11890722795E+02 -0.55212126161E+02  0.10038577042E+03  0.14687468054E+03  0.91132325321E+02 0.  0.
          5    1    1    2  502    0 -0.33534842065E+01  0.71983654257E+02  0.79240304971E+02  0.10718857527E+03  0.41800000000E+01 0. -1.
         -5    1    1    2    0  502  0.15244207001E+02 -0.16771528096E+02  0.22987222478E+03  0.23102463532E+03  0.41800000000E+01 0. -1.
        -11    1    3    3    0    0 -0.13316667780E+02 -0.70111405684E+02  0.10848724803E+03  0.12985540356E+03  0.00000000000E+00 0. -1.
         11    1    3    3    0    0  0.14259449854E+01  0.14899279523E+02 -0.81014776169E+01  0.17019276982E+02  0.00000000000E+00 0.  1.
</event>
<event>
 7    1  0.5831876E-006  0.1195347E+03  0.7561462E-02  0.1243867E+00
          1   -1    0    0  501    0  0.00000000000E+00  0.00000000000E+00  0.12541585055E+03  0.12541585055E+03  0.00000000000E+00 0. -1.
         -1   -1    0    0    0  501 -0.00000000000E+00 -0.00000000000E+00 -0.12612839405E+03  0.12612839405E+03  0.00000000000E+00 0.  1.
         23    2    1    2    0    0 -0.36934353113E+02  0.15101857956E+02 -0.35916978969E+02  0.10397365790E+03  0.89040887267E+02 0.  0.
          5    1    1    2  502    0  0.30541570981E+02  0.59629438357E+02  0.76710214304E+01  0.67563114541E+02  0.41800000000E+01 0. -1.
         -5    1    1    2    0  502  0.63927821315E+01 -0.74731296312E+02  0.27533414044E+02  0.80007472156E+02  0.41800000000E+01 0.  1.
        -11    1    3    3    0    0 -0.49111264753E+02 -0.24861285057E+02 -0.26757177025E+02  0.61204136647E+02  0.00000000000E+00 0.  1.
         11    1    3    3    0    0  0.12176911641E+02  0.39963143013E+02 -0.91598019443E+01  0.42769521253E+02  0.00000000000E+00 0. -1.
</event>
<event>
 7    1  0.5831876E-006  0.1224531E+03  0.7561462E-02  0.1239104E+00
         -1   -1    0    0    0  501 -0.00000000000E+00  0.00000000000E+00  0.26774880502E+03  0.26774880502E+03  0.00000000000E+00 0.  1.
          1   -1    0    0  501    0  0.00000000000E+00 -0.00000000000E+00 -0.57290985110E+02  0.57290985110E+02  0.00000000000E+00 0. -1.
         23    2    1    2    0    0 -0.49571701212E+02 -0.28039457000E+02  0.94492344111E+02  0.14521073925E+03  0.94412875120E+02 0.  0.
          5    1    1    2  502    0  0.35299035383E+02 -0.46881600625E+02  0.34713003951E+02  0.68310844083E+02  0.41800000000E+01 0.  1.
         -5    1    1    2    0  502  0.14272665829E+02  0.74921057625E+02  0.81252471849E+02  0.11151820680E+03  0.41800000000E+01 0.  1.
        -11    1    3    3    0    0 -0.99567097490E+01  0.34362222279E+02  0.37909335598E+02  0.52125004695E+02  0.00000000000E+00 0. -1.
         11    1    3    3    0    0 -0.39614991463E+02 -0.62401679279E+02  0.56583008513E+02  0.93085734556E+02  0.00000000000E+00 0.  1.
</event>
<event>
 7    1  0.5831876E-006  0.7374779E+02  0.7561462E-02  0.1347793E+00
          1   -1    0    0  501    0  0.00000000000E+00  0.00000000000E+00  0.20970544905E+02  0.20970544905E+02  0.00000000000E+00 0. -1.
         -1   -1    0    0    0  501 -0.00000000000E+00 -0.00000000000E+00 -0.72236275140E+03  0.72236275140E+03  0.00000000000E+00 0.  1.
         23    2    1    2    0    0  0.49764794859E+02 -0.24398742656E+02 -0.35790150249E+03  0.37359800080E+03  0.91706855057E+02 0.  0.
          5    1    1    2  502    0 -0.92653580165E+01  0.29459708711E+01  0.92194228844E+01  0.14035517870E+02  0.41800000000E+01 0.  1.
         -5    1    1    2    0  502 -0.40499436842E+02  0.21452771785E+02 -0.35271012689E+03  0.35569977764E+03  0.41800000000E+01 0.  1.
        -11    1    3    3    0    0  0.17335437998E+02  0.25827714628E+02 -0.43000939889E+02  0.53072300542E+02  0.00000000000E+00 0. -1.
         11    1    3    3    0    0  0.32429356861E+02 -0.50226457284E+02 -0.31490056260E+03  0.32052570025E+03  0.00000000000E+00 0.  1.
</event>
<event>
 7    1  0.5831876E-006  0.1361326E+03  0.7561462E-02  0.1218630E+00
          1   -1    0    0  501    0  0.00000000000E+00  0.00000000000E+00  0.10386758280E+03  0.10386758280E+03  0.00000000000E+00 0. -1.
         -1   -1    0    0    0  501 -0.00000000000E+00 -0.00000000000E+00 -0.17984181027E+03  0.17984181027E+03  0.00000000000E+00 0.  1.
         23    2    1    2    0    0  0.49346154785E+02  0.65944927078E+02 -0.36070256259E+02  0.12871625936E+03  0.92103396444E+02 0.  0.
          5    1    1    2  502    0  0.39942527453E+02 -0.26736616027E+01 -0.10146514901E+02  0.41508771728E+02  0.41800000000E+01 0.  1.
         -5    1    1    2    0  502 -0.89288682239E+02 -0.63271265476E+02 -0.29757456308E+02  0.11348436199E+03  0.41800000000E+01 0.  1.
        -11    1    3    3    0    0  0.75431964512E+02  0.58250267749E+02 -0.20883434535E+02  0.97566350762E+02  0.00000000000E+00 0. -1.
         11    1    3    3    0    0 -0.26085809727E+02  0.76946593290E+01 -0.15186821724E+02  0.31149908594E+02  0.00000000000E+00 0.  1.
</event>
<event>
 7    1  0.5831876E-006  0.9124387E+02  0.7561462E-02  0.1299867E+00
          1   -1    0    0  501    0  0.00000000000E+00  0.00000000000E+00  0.16019645392E+03  0.16019645392E+03  0.00000000000E+00 0. -1.
         -1   -1    0    0    0  501 -0.00000000000E+00 -0.00000000000E+00 -0.76425941650E+02  0.76425941650E+02  0.00000000000E+00 0.  1.
         23    2    1    2    0    0  0.87973230576E+01 -0.14651952343E+02  0.19845022128E+02  0.95109766494E+02  0.91432872528E+02 0.  0.
          5    1    1    2  502    0 -0.59647302720E+02  0.17145595236E+02  0.65600444181E+02  0.90402781121E+02  0.41800000000E+01 0. -1.
         -5    1    1    2    0  502  0.50849979662E+02 -0.24936428933E+01 -0.16749540431E+01  0.51109847951E+02  0.41800000000E+01 0. -1.
        -11    1    3    3    0    0 -0.28657693427E+02 -0.13628099258E+02  0.41183199459E+02  0.51990810723E+02  0.00000000000E+00 0. -1.
         11    1    3    3    0    0  0.37455016484E+02 -0.10238530848E+01 -0.21338177331E+02  0.43118955771E+02  0.00000000000E+00 0.  1.
</event>
<event>
 7    1  0.5831876E-006  0.1162478E+03  0.7561462E-02  0.1249419E+00
          3   -1    0    0  501    0  0.00000000000E+00  0.00000000000E+00  0.52057184006E+03  0.52057184006E+03  0.00000000000E+00 0. -1.
         -3   -1    0    0    0  501 -0.00000000000E+00 -0.00000000000E+00 -0.43894308410E+02  0.43894308410E+02  0.00000000000E+00 0.  1.
         23    2    1    2    0    0  0.86223561392E+02 -0.64759724518E+01  0.10639878917E+03  0.16417819951E+03  0.90317983247E+02 0.  0.
          5    1    1    2  502    0 -0.53845637931E+02 -0.54421899212E+02  0.13704962299E+03  0.15703874490E+03  0.41800000000E+01 0.  1.
         -5    1    1    2    0  502 -0.32377923461E+02  0.60897871663E+02  0.23322911949E+03  0.24324920407E+03  0.41800000000E+01 0.  1.
        -11    1    3    3    0    0  0.55589625155E+02 -0.94381091482E+00  0.11840915296E+03  0.13081217339E+03  0.00000000000E+00 0. -1.
         11    1    3    3    0    0  0.30633936237E+02 -0.55321615369E+01 -0.12010363781E+02  0.33366026117E+02  0.00000000000E+00 0.  1.
</event>
<event>
 7    1  0.5831876E-006  0.1121318E+03  0.7561462E-02  0.1256672E+00
         -1   -1    0    0    0  501 -0.00000000000E+00  0.00000000000E+00  0.24322648645E+02  0.24322648645E+02  0.00000000000E+00 0.  1.
          1   -1    0    0  501    0  0.00000000000E+00 -0.00000000000E+00 -0.56571146068E+03  0.56571146068E+03  0.00000000000E+00 0. -1.
         23    2    1    2    0    0  0.61212457117E+02 -0.24417035042E+02 -0.16951763209E+03  0.19219112849E+03  0.62113169076E+02 0.  0.
          5    1    1    2  502    0 -0.79562840993E+02 -0.25004115976E+02 -0.27597506335E+03  0.28833168309E+03  0.41800000000E+01 0. -1.
         -5    1    1    2    0  502  0.18350383876E+02  0.49421151018E+02 -0.95896116585E+02  0.10951129774E+03  0.41800000000E+01 0. -1.
        -11    1    3    3    0    0  0.70745867936E+02 -0.11272460512E+02 -0.11670211035E+03  0.13693585636E+03  0.00000000000E+00 0.  1.
         11    1    3    3    0    0 -0.95334108182E+01 -0.13144574530E+02 -0.52815521741E+02  0.55255272130E+02  0.00000000000E+00 0. -1.
</event>
<event>
 7    1  0.5831876E-006  0.1474468E+03  0.7561462E-02  0.1203646E+00
         -2   -1    0    0    0  501 -0.00000000000E+00  0.00000000000E+00  0.29986355221E+02  0.29986355221E+02  0.00000000000E+00 0.  1.
          2   -1    0    0  501    0  0.00000000000E+00 -0.00000000000E+00 -0.80628046493E+03  0.80628046493E+03  0.00000000000E+00 0. -1.
         23    2    1    2    0    0  0.80758685375E+02  0.71933351766E+02 -0.28593288541E+03  0.31877377535E+03  0.90347841868E+02 0.  0.
          5    1    1    2  502    0 -0.10953514034E+03 -0.78566690739E+02 -0.41830991471E+03  0.43951260392E+03  0.41800000000E+01 0.  1.
         -5    1    1    2    0  502  0.28776454965E+02  0.66333389726E+01 -0.72051309583E+02  0.77980440874E+02  0.41800000000E+01 0.  1.
        -11    1    3    3    0    0  0.89466268275E+02  0.41634674702E+02 -0.15231236076E+03  0.18148475015E+03  0.00000000000E+00 0.  1.
         11    1    3    3    0    0 -0.87075828998E+01  0.30298677065E+02 -0.13362052465E+03  0.13728902520E+03  0.00000000000E+00 0. -1.
</event>
<event>
 7    1  0.5831876E-006  0.1048430E+03  0.7561462E-02  0.1270429E+00
          1   -1    0    0  501    0  0.00000000000E+00  0.00000000000E+00  0.59546910727E+03  0.59546910727E+03  0.00000000000E+00 0. -1.
         -1   -1    0    0    0  501 -0.00000000000E+00 -0.00000000000E+00 -0.22649747488E+02  0.22649747488E+02  0.00000000000E+00 0.  1.
         23    2    1    2    0    0 -0.19001651612E+02 -0.21389869965E+02  0.18056339267E+03  0.20540832593E+03  0.93652828523E+02 0.  0.
          5    1    1    2  502    0  0.34030585884E+02 -0.45879313765E+02  0.14237822781E+03  0.15346668812E+03  0.41800000000E+01 0.  1.
         -5    1    1    2    0  502 -0.15028934271E+02  0.67269183731E+02  0.24987773930E+03  0.25924384071E+03  0.41800000000E+01 0.  1.
        -11    1    3    3    0    0  0.27784686795E+02  0.69705033224E+01  0.17871109743E+02  0.33763194463E+02  0.00000000000E+00 0.  1.
         11    1    3    3    0    0 -0.46786338408E+02 -0.28360373288E+02  0.16269228293E+03  0.17164513147E+03  0.00000000000E+00 0. -1.
</event>
<event>
 7    1  0.5831876E-006  0.9321381E+02  0.7561462E-02  0.1295250E+00
         -2   -1    0    0    0  501 -0.00000000000E+00  0.00000000000E+00  0.94570149505E+02  0.94570149505E+02  0.00000000000E+00 0.  1.
          2   -1    0    0  501    0  0.00000000000E+00 -0.00000000000E+00 -0.17132154039E+03  0.17132154039E+03  0.00000000000E+00 0. -1.
         23    2    1    2    0    0  0.23220894245E+02 -0.55643244984E+02 -0.31867905235E+01  0.10873964776E+03  0.90436578441E+02 0.  0.
          5    1    1    2  502    0  0.13396681060E+02 -0.20012978673E+02 -0.68628777395E+02  0.72851711480E+02  0.41800000000E+01 0.  1.
         -5    1    1    2    0  502 -0.36617575304E+02  0.75656223657E+02 -0.49358229657E+01  0.84300330650E+02  0.41800000000E+01 0.  1.
        -11    1    3    3    0    0 -0.15512790591E+02 -0.13206180176E+02  0.34471833052E+02  0.40041942270E+02  0.00000000000E+00 0.  1.
         11    1    3    3    0    0  0.38733684836E+02 -0.42437064808E+02 -0.37658623576E+02  0.68697705494E+02  0.00000000000E+00 0. -1.
</event>
<event>
 7    1  0.5831876E-006  0.1523555E+03  0.7561462E-02  0.1197608E+00
         -2   -1    0    0    0  501 -0.00000000000E+00  0.00000000000E+00  0.19970851495E+02  0.19970851495E+02  0.00000000000E+00 0.  1.
          2   -1    0    0  501    0  0.00000000000E+00 -0.00000000000E+00 -0.18427089052E+04  0.18427089052E+04  0.00000000000E+00 0. -1.
         23    2    1    2    0    0  0.11848168365E+03 -0.30259880497E+02 -0.37859452778E+03  0.40797999154E+03  0.90334308602E+02 0.  0.
          5    1    1    2  502    0 -0.10821466045E+03  0.72217462371E+02 -0.99861390016E+03  0.10070615515E+04  0.41800000000E+01 0. -1.
         -5    1    1    2    0  502 -0.10267023198E+02 -0.41957581874E+02 -0.44552962577E+03  0.44763821360E+03  0.41800000000E+01 0. -1.
        -11    1    3    3    0    0  0.85403227198E+02  0.13221375147E+01 -0.13230622444E+03  0.15748141570E+03  0.00000000000E+00 0.  1.
         11    1    3    3    0    0  0.33078456450E+02 -0.31582018011E+02 -0.24628830333E+03  0.25049857585E+03  0.00000000000E+00 0. -1.
</event>
<event>
 7    1  0.5831876E-006  0.1181439E+03  0.7561462E-02  0.1246191E+00
          2   -1    0    0  501    0  0.00000000000E+00  0.00000000000E+00  0.93726767790E+02  0.93726767790E+02  0.00000000000E+00 0. -1.
         -2   -1    0    0    0  501 -0.00000000000E+00 -0.00000000000E+00 -0.27726387834E+03  0.27726387834E+03  0.00000000000E+00 0.  1.
         23    2    1    2    0    0  0.93023656216E+02 -0.16707058421E+02 -0.16763428016E+03  0.21340576383E+03  0.92240130816E+02 0.  0.
          5    1    1    2  502    0 -0.90291059981E+02 -0.25292983271E+02 -0.47112913092E+02  0.10502051940E+03  0.41800000000E+01 0. -1.
         -5    1    1    2    0  502 -0.27325962352E+01  0.42000041692E+02  0.31210082706E+02  0.52564362898E+02  0.41800000000E+01 0. -1.
        -11    1    3    3    0    0  0.83041924668E+02 -0.28973458860E+01 -0.17584696759E+03  0.19449039019E+03  0.00000000000E+00 0.  1.
         11    1    3    3    0    0  0.99817315488E+01 -0.13809712535E+02  0.82126874297E+01  0.18915373637E+02  0.00000000000E+00 0. -1.
</event>
<event>
 7    1  0.5831876E-006  0.1225016E+03  0.7561462E-02  0.1239026E+00
          1   -1    0    0  501    0  0.00000000000E+00  0.00000000000E+00  0.27989242658E+03  0.27989242658E+03  0.00000000000E+00 0. -1.
         -1   -1    0    0    0  501 -0.00000000000E+00 -0.00000000000E+00 -0.21357965187E+03  0.21357965187E+03  0.00000000000E+00 0.  1.
         23    2    1    2    0    0  0.52616725834E+02 -0.74728584243E+02 -0.16821646211E+03  0.21239446105E+03  0.91987759078E+02 0.  0.
          5    1    1    2  502    0  0.19868111531E+02  0.58661208728E+02  0.17543777591E+03  0.18609611732E+03  0.41800000000E+01 0. -1.
         -5    1    1    2    0  502 -0.72484837364E+02  0.16067375516E+02  0.59091460909E+02  0.94981500073E+02  0.41800000000E+01 0. -1.
        -11    1    3    3    0    0  0.20857297127E+02  0.60923666278E+01 -0.98972204899E+02  0.10132936947E+03  0.00000000000E+00 0.  1.
         11    1    3    3    0    0  0.31759428706E+02 -0.80820950871E+02 -0.69244257211E+02  0.11106509158E+03  0.00000000000E+00 0. -1.
</event>
<event>
 6    1  0.5831876E-006  0.8468178E+02  0.7561462E-02  0.1316267E+00
         -1   -1    0    0    0  501 -0.00000000000E+00  0.00000000000E+00  0.12833823463E+02  0.12833823463E+02  0.00000000000E+00 0.  1.
          1   -1    0    0  501    0  0.00000000000E+00 -0.00000000000E+00 -0.11653915474E+04  0.11653915474E+04  0.00000000000E+00 0. -1.
          5    1    1    2  502    0 -0.55530658212E+01  0.45483420446E+02 -0.10438444154E+03  0.11407524759E+03  0.41800000000E+01 0. -1.
         -5    1    1    2    0  502 -0.84126275259E+01 -0.80824705087E+02 -0.96998090102E+03  0.97338780863E+03  0.41800000000E+01 0.  1.
        -11    1    1    2    0    0  0.99806791313E+00  0.25957461804E+02 -0.65072419988E+02  0.70065724901E+02  0.00000000000E+00 0.  1.
         11    1    1    2    0    0  0.12967625434E+02  0.93838228368E+01 -0.13119961404E+02  0.20696589760E+02  0.00000000000E+00 0. -1.
</event>
<event>
 7    1  0.5831876E-006  0.1123819E+03  0.7561462E-02  0.1256221E+00
         -1   -1    0    0    0  501 -0.00000000000E+00  0.00000000000E+00  0.66724031015E+02  0.66724031015E+02  0.00000000000E+00 0.  1.
          1   -1    0    0  501    0  0.00000000000E+00 -0.00000000000E+00 -0.22760185575E+03  0.22760185575E+03  0.00000000000E+00 0. -1.
         23    2    1    2    0    0  0.12838632368E+02 -0.27032848550E+02 -0.13142060066E+02  0.98443517485E+02  0.92859070694E+02 0.  0.
          5    1    1    2  502    0  0.25138382384E+02  0.67146106036E+02 -0.97527927132E+02  0.12111856503E+03  0.41800000000E+01 0. -1.
         -5    1    1    2    0  502 -0.37977014751E+02 -0.40113257486E+02 -0.50207837542E+02  0.74763804252E+02  0.41800000000E+01 0. -1.
        -11    1    3    3    0    0  0.34461004185E+02  0.24086086597E+02 -0.65055660520E+01  0.42544362337E+02  0.00000000000E+00 0.  1.
         11    1    3    3    0    0 -0.21622371817E+02 -0.51118935146E+02 -0.66364940136E+01  0.55899155148E+02  0.00000000000E+00 0. -1.
</event>
<event>
 7    1  0.5831876E-006  0.1056391E+03  0.7561462E-02  0.1268866E+00
          3   -1    0    0  501    0  0.00000000000E+00  0.00000000000E+00  0.10942299308E+03  0.10942299308E+03  0.00000000000E+00 0. -1.
         -3   -1    0    0    0  501 -0.00000000000E+00 -0.00000000000E+00 -0.22619434713E+03  0.22619434713E+03  0.00000000000E+00 0.  1.
         23    2    1    2    0    0  0.42188676747E+02 -0.26687440197E+02 -0.16251199201E+03  0.19337652230E+03  0.92153284913E+02 0.  0.
          5    1    1    2  502    0 -0.37575216714E+01 -0.46541204454E+02  0.35499384856E+02  0.58803753335E+02  0.41800000000E+01 0.  1.
         -5    1    1    2    0  502 -0.38431155075E+02  0.73228644651E+02  0.10241253108E+02  0.83437064564E+02  0.41800000000E+01 0.  1.
        -11    1    3    3    0    0  0.20175507333E+02 -0.47307680440E+02 -0.34670694785E+02  0.62025194894E+02  0.00000000000E+00 0. -1.
         11    1    3    3    0    0  0.22013169414E+02  0.20620240243E+02 -0.12784129723E+03  0.13135132741E+03  0.00000000000E+00 0.  1.
</event>
<event>
 7    1  0.5831876E-006  0.1126007E+03  0.7561462E-02  0.1255828E+00
         -2   -1    0    0    0  501 -0.00000000000E+00  0.00000000000E+00  0.35968736440E+02  0.35968736440E+02  0.00000000000E+00 0.  1.
          2   -1    0    0  501    0  0.00000000000E+00 -0.00000000000E+00 -0.58950128965E+03  0.58950128965E+03  0.00000000000E+00 0. -1.
         23    2    1    2    0    0  0.21830737020E+02  0.91378173436E+02 -0.19408356717E+03  0.23345361940E+03  0.89474072809E+02 0.  0.
          5    1    1    2  502    0 -0.16579131823E+02 -0.37921006585E+02 -0.16321427391E+02  0.44684804403E+02  0.41800000000E+01 0. -1.
         -5    1    1    2    0  502 -0.52516051974E+01 -0.53457166851E+02 -0.34312755865E+03  0.34733160229E+03  0.41800000000E+01 0. -1.
        -11    1    3    3    0    0  0.48357147547E+02  0.17826491083E+02 -0.78639242714E+02  0.94023018446E+02  0.00000000000E+00 0.  1.
         11    1    3    3    0    0 -0.26526410526E+02  0.73551682354E+02 -0.11544432446E+03  0.13943060095E+03  0.00000000000E+00 0. -1.
</event>
<event>
 7    1  0.5831876E-006  0.1052397E+03  0.7561462E-02  0.1269648E+00
          2   -1    0    0  501    0  0.00000000000E+00  0.00000000000E+00  0.29778888999E+03  0.29778888999E+03  0.00000000000E+00 0. -1.
         -2   -1    0    0    0  501 -0.00000000000E+00 -0.00000000000E+00 -0.70466004806E+02  0.70466004806E+02  0.00000000000E+00 0.  1.
         23    2    1    2    0    0 -0.68436299313E+02  0.40505257202E+02  0.70855541184E+02  0.15272086529E+03  0.10944839904E+03 0.  0.
          5    1    1    2  502    0  0.53103824645E+01 -0.62849601406E+02  0.25077388142E+02  0.68004561279E+02  0.41800000000E+01 0. -1.
         -5    1    1    2    0  502  0.63125916848E+02  0.22344344203E+02  0.13138995586E+03  0.14752946823E+03  0.41800000000E+01 0. -1.
        -11    1    3    3    0    0 -0.25187714480E+02  0.20715340032E+02  0.94238876002E+02  0.99722174182E+02  0.00000000000E+00 0. -1.
         11    1    3    3    0    0 -0.43248584832E+02  0.19789917170E+02 -0.23383334819E+02  0.52998691105E+02  0.00000000000E+00 0.  1.
</event>
<event>
 7    1  0.5831876E-006  0.1062942E+03  0.7561462E-02  0.1267590E+00
          1   -1    0    0  501    0  0.00000000000E+00  0.00000000000E+00  0.48352482541E+03  0.48352482541E+03  0.00000000000E+00 0. -1.
         -1   -1    0    0    0  501 -0.00000000000E+00 -0.00000000000E+00 -0.27058137823E+02  0.27058137823E+02  0.00000000000E+00 0.  1.
         23    2    1    2    0    0 -0.10261909613E+02 -0.32662342301E+02  0.14490864302E+03  0.17310722653E+03  0.88291911638E+02 0.  0.
          5    1    1    2  502    0 -0.41573563454E+02 -0.18739430172E+02  0.19153990074E+03  0.19693789224E+03  0.41800000000E+01 0. -1.
         -5    1    1    2    0  502  0.51835473067E+02  0.51401772473E+02  0.12001814383E+03  0.14053784447E+03  0.41800000000E+01 0. -1.
        -11    1    3    3    0    0 -0.49002063174E+02 -0.19877155949E+02  0.69022837986E+02  0.86950880890E+02  0.00000000000E+00 0.  1.
         11    1    3    3    0    0  0.38740153561E+02 -0.12785186352E+02  0.75885805034E+02  0.86156345638E+02  0.00000000000E+00 0. -1.
</event>
<event>
 7    1  0.5831876E-006  0.8196267E+02  0.7561462E-02  0.1323572E+00
          2   -1    0    0  501    0  0.00000000000E+00  0.00000000000E+00  0.16180123829E+03  0.16180123829E+03  0.00000000000E+00 0. -1.
         -2   -1    0    0    0  501 -0.00000000000E+00 -0.00000000000E+00 -0.88370282655E+02  0.88370282655E+02  0.00000000000E+00 0.  1.
         23    2    1    2    0    0 -0.52424624589E+01  0.29087304683E+02 -0.17606686992E+02  0.92661490178E+02  0.86038373001E+02 0.  0.
          5    1    1    2  502    0 -0.51811163488E+02 -0.21435632132E+01  0.72310142271E+01  0.52523818330E+02  0.41800000000E+01 0.  1.
         -5    1    1    2    0  502  0.57053625947E+02 -0.26943741470E+02  0.83806628403E+02  0.10498621244E+03  0.41800000000E+01 0.  1.
        -11    1    3    3    0    0 -0.15721896025E+02  0.33723588176E+02 -0.47679323285E+02  0.60479552602E+02  0.00000000000E+00 0.  1.
         11    1    3    3    0    0  0.10479433566E+02 -0.46362834923E+01  0.30072636293E+02  0.32181937575E+02  0.00000000000E+00 0. -1.
</event>
<event>
 7    1  0.5831876E-006  0.6821571E+02  0.7561462E-02  0.1366268E+00
         -2   -1    0    0    0  501 -0.00000000000E+00  0.00000000000E+00  0.10201797558E+03  0.10201797558E+03  0.00000000000E+00 0.  1.
          2   -1    0    0  501    0  0.00000000000E+00 -0.00000000000E+00 -0.11709876993E+03  0.11709876993E+03  0.00000000000E+00 0. -1.
         23    2    1    2    0    0  0.34747741962E+01  0.14261939003E+02 -0.64816434291E+01  0.92871180611E+02  0.91474409136E+02 0.  0.
          5    1    1    2  502    0  0.19008693597E+02 -0.39540041528E+02 -0.53854742616E+02  0.69588440266E+02  0.41800000000E+01 0. -1.
         -5    1    1    2    0  502 -0.22483467793E+02  0.25278102526E+02  0.45255591698E+02  0.56657124629E+02  0.41800000000E+01 0. -1.
        -11    1    3    3    0    0 -0.12763095931E+02  0.31864183804E+02  0.32403053447E+02  0.47203608972E+02  0.00000000000E+00 0.  1.
         11    1    3    3    0    0  0.16237870128E+02 -0.17602244802E+02 -0.38884696876E+02  0.45667571640E+02  0.00000000000E+00 0. -1.
</event>
<event>
 7    1  0.5831876E-006  0.1813037E+03  0.7561462E-02  0.1166547E+00
          2   -1    0    0  501    0  0.00000000000E+00  0.00000000000E+00  0.11643935628E+04  0.11643935628E+04  0.00000000000E+00 0. -1.
         -2   -1    0    0    0  501 -0.00000000000E+00 -0.00000000000E+00 -0.32120254837E+02  0.32120254837E+02  0.00000000000E+00 0.  1.
         23    2    1    2    0    0 -0.37788844926E+02  0.14779651366E+03  0.39688612790E+03  0.43512363518E+03  0.92423877458E+02 0.  0.
          5    1    1    2  502    0 -0.18367407445E+02 -0.12216078705E+03  0.59906996853E+03  0.61168858019E+03  0.41800000000E+01 0. -1.
         -5    1    1    2    0  502  0.56156252371E+02 -0.25635726610E+02  0.13631721158E+03  0.14970160230E+03  0.41800000000E+01 0. -1.
        -11    1    3    3    0    0 -0.40622094374E+02  0.15975610038E+03  0.35374996593E+03  0.39027068114E+03  0.00000000000E+00 0.  1.
         11    1    3    3    0    0  0.28332494484E+01 -0.11959586722E+02  0.43136161967E+02  0.44852954042E+02  0.00000000000E+00 0. -1.
</event>
<event>
 7    1  0.5831876E-006  0.1088721E+03  0.7561462E-02  0.1262673E+00
          2   -1    0    0  501    0  0.00000000000E+00  0.00000000000E+00  0.77046496957E+03  0.77046496957E+03  0.00000000000E+00 0.  1.
         -2   -1    0    0    0  501 -0.00000000000E+00 -0.00000000000E+00 -0.23557468251E+02  0.23557468251E+02  0.00000000000E+00 0. -1.
         23    2    1    2    0    0  0.39083216501E+02 -0.67936076338E+02  0.27564765534E+03  0.30018416933E+03  0.89364967083E+02 0.  0.
          5    1    1    2  502    0  0.21329092235E+02  0.74067078674E+02  0.34687419664E+03  0.35535903395E+03  0.41800000000E+01 0. -1.
         -5    1    1    2    0  502 -0.60412308736E+02 -0.61310023356E+01  0.12438564935E+03  0.13847923455E+03  0.41800000000E+01 0. -1.
        -11    1    3    3    0    0  0.28268675703E+02 -0.59830551106E+02  0.27859976578E+03  0.28635055852E+03  0.00000000000E+00 0.  1.
         11    1    3    3    0    0  0.10814540798E+02 -0.81055252322E+01 -0.29521104417E+01  0.13833610809E+02  0.00000000000E+00 0. -1.
</event>
<event>
 7    1  0.5831876E-006  0.1496620E+03  0.7561462E-02  0.1200889E+00
         -2   -1    0    0    0  501 -0.00000000000E+00  0.00000000000E+00  0.37217626606E+02  0.37217626606E+02  0.00000000000E+00 0.  1.
          2   -1    0    0  501    0  0.00000000000E+00 -0.00000000000E+00 -0.13198165232E+04  0.13198165232E+04  0.00000000000E+00 0. -1.
         23    2    1    2    0    0  0.75062532327E+02 -0.74327300279E+02 -0.12301660150E+03  0.18595076597E+03  0.91025665581E+02 0.  0.
          5    1    1    2  502    0 -0.79545565870E+01 -0.32560831665E+02 -0.36124530927E+03  0.36282106967E+03  0.41800000000E+01 0. -1.
         -5    1    1    2    0  502 -0.67107975740E+02  0.10688813194E+03 -0.79833698579E+03  0.80826231413E+03  0.41800000000E+01 0. -1.
        -11    1    3    3    0    0  0.26432566449E+02  0.19998052713E+02 -0.33331690265E+02  0.47006427830E+02  0.00000000000E+00 0.  1.
         11    1    3    3    0    0  0.48629965878E+02 -0.94325352991E+02 -0.89684911231E+02  0.13894433814E+03  0.00000000000E+00 0. -1.
</event>
<event>
 7    1  0.5831876E-006  0.1093129E+03  0.7561462E-02  0.1261848E+00
         -1   -1    0    0    0  501 -0.00000000000E+00  0.00000000000E+00  0.42243078968E+02  0.42243078968E+02  0.00000000000E+00 0.  1.
          1   -1    0    0  501    0  0.00000000000E+00 -0.00000000000E+00 -0.35902915065E+03  0.35902915065E+03  0.00000000000E+00 0. -1.
         23    2    1    2    0    0 -0.47759693139E+02 -0.32774066159E+02 -0.13333465792E+03  0.17179978087E+03  0.91552749845E+02 0.  0.
          5    1    1    2  502    0  0.61990720034E+02 -0.11976145986E+02 -0.16853987013E+03  0.18002621384E+03  0.41800000000E+01 0. -1.
         -5    1    1    2    0  502 -0.14231026896E+02  0.44750212144E+02 -0.14911543630E+02  0.49446234911E+02  0.41800000000E+01 0. -1.
        -11    1    3    3    0    0 -0.21560104184E+01 -0.56677039596E+02 -0.74103404227E+02  0.93318003174E+02  0.00000000000E+00 0.  1.
         11    1    3    3    0    0 -0.45603682720E+02  0.23902973438E+02 -0.59231253689E+02  0.78481777697E+02  0.00000000000E+00 0. -1.
</event>
<event>
 7    1  0.5831876E-006  0.1025204E+03  0.7561462E-02  0.1275083E+00
          2   -1    0    0  501    0  0.00000000000E+00  0.00000000000E+00  0.38781247312E+03  0.38781247312E+03  0.00000000000E+00 0. -1.
         -2   -1    0    0    0  501 -0.00000000000E+00 -0.00000000000E+00 -0.40157447688E+02  0.40157447688E+02  0.00000000000E+00 0.  1.
         23    2    1    2    0    0  0.29451251353E+02  0.29673552525E+02  0.77430738277E+02  0.12727522600E+03  0.91954162474E+02 0.  0.
          5    1    1    2  502    0 -0.66842611121E+02 -0.48849013810E+02  0.21986569362E+03  0.23497352285E+03  0.41800000000E+01 0. -1.
         -5    1    1    2    0  502  0.37391359768E+02  0.19175461286E+02  0.50358593537E+02  0.65721171960E+02  0.41800000000E+01 0. -1.
        -11    1    3    3    0    0  0.31544756718E+02 -0.15184907445E+02 -0.30201996304E+01  0.35139361069E+02  0.00000000000E+00 0.  1.
         11    1    3    3    0    0 -0.20935053652E+01  0.44858459970E+02  0.80450937907E+02  0.92135864927E+02  0.00000000000E+00 0. -1.
</event>
<event>
 7    1  0.5831876E-006  0.1194020E+03  0.7561462E-02  0.1244087E+00
         -1   -1    0    0    0  501 -0.00000000000E+00  0.00000000000E+00  0.79431177197E+01  0.79431177197E+01  0.00000000000E+00 0.  1.
          1   -1    0    0  501    0  0.00000000000E+00 -0.00000000000E+00 -0.20599383901E+04  0.20599383901E+04  0.00000000000E+00 0. -1.
         23    2    1    2    0    0  0.21865961378E+02  0.18075153370E+02 -0.59694713252E+03  0.60719087395E+03  0.10737805621E+03 0.  0.
          5    1    1    2  502    0  0.39296147150E+02 -0.46217918866E+02 -0.69182049439E+03  0.69448783435E+03  0.41800000000E+01 0. -1.
         -5    1    1    2    0  502 -0.61162108528E+02  0.28142765496E+02 -0.76322764550E+03  0.76620279954E+03  0.41800000000E+01 0. -1.
        -11    1    3    3    0    0 -0.57164184855E+01  0.60045239428E+02 -0.29615343194E+03  0.30223329311E+03  0.00000000000E+00 0.  1.
         11    1    3    3    0    0  0.27582379863E+02 -0.41970086058E+02 -0.30079370058E+03  0.30495758084E+03  0.00000000000E+00 0. -1.
</event>
<event>
 7    1  0.5831876E-006  0.1208309E+03  0.7561462E-02  0.1241733E+00
          1   -1    0    0  501    0  0.00000000000E+00  0.00000000000E+00  0.97792497141E+03  0.97792497141E+03  0.00000000000E+00 0. -1.
         -1   -1    0    0    0  501 -0.00000000000E+00 -0.00000000000E+00 -0.28267201038E+02  0.28267201038E+02  0.00000000000E+00 0.  1.
         23    2    1    2    0    0 -0.76485711750E+02 -0.43549970062E+02  0.15759991961E+03  0.19950148056E+03  0.84949644440E+02 0.  0.
          5    1    1    2  502    0  0.70890912922E+01  0.66995657677E+02  0.22501824252E+03  0.23492414783E+03  0.41800000000E+01 0. -1.
         -5    1    1    2    0  502  0.69396620458E+02 -0.23445687615E+02  0.56703960823E+03  0.57176654406E+03  0.41800000000E+01 0. -1.
        -11    1    3    3    0    0 -0.34563007851E+02  0.68513480932E+01  0.79491465889E+01  0.36121066068E+02  0.00000000000E+00 0.  1.
         11    1    3    3    0    0 -0.41922703900E+02 -0.50401318155E+02  0.14965077302E+03  0.16338041449E+03  0.00000000000E+00 0. -1.
</event>
<event>
 7    1  0.5831876E-006  0.6139872E+02  0.7561462E-02  0.1392054E+00
          1   -1    0    0  501    0  0.00000000000E+00  0.00000000000E+00  0.14036484408E+04  0.14036484408E+04  0.00000000000E+00 0. -1.
         -1   -1    0    0    0  501 -0.00000000000E+00 -0.00000000000E+00 -0.98441440323E+01  0.98441440323E+01  0.00000000000E+00 0.  1.
         23    2    1    2    0    0 -0.26791247686E+02 -0.42931282689E+01  0.38836406815E+03  0.39993763724E+03  0.91581997986E+02 0.  0.
          5    1    1    2  502    0  0.18081593470E+02  0.28836277589E+01  0.10034065908E+04  0.10035823426E+04  0.41800000000E+01 0. -1.
         -5    1    1    2    0  502  0.87096542161E+01  0.14095005100E+01  0.20336377558E+01  0.99726050145E+01  0.41800000000E+01 0. -1.
        -11    1    3    3    0    0  0.23891813778E+02  0.25917304279E+02  0.11512877712E+03  0.12040415586E+03  0.00000000000E+00 0.  1.
         11    1    3    3    0    0 -0.50683061464E+02 -0.30210432548E+02  0.27323529103E+03  0.27953348139E+03  0.00000000000E+00 0. -1.
</event>
<event>
 7    1  0.5831876E-006  0.1731521E+03  0.7561462E-02  0.1174600E+00
          2   -1    0    0  501    0  0.00000000000E+00  0.00000000000E+00  0.16031745045E+03  0.16031745045E+03  0.00000000000E+00 0. -1.
         -2   -1    0    0    0  501 -0.00000000000E+00 -0.00000000000E+00 -0.22105854624E+03  0.22105854624E+03  0.00000000000E+00 0.  1.
         23    2    1    2    0    0 -0.52839335481E+02  0.14382625172E+03 -0.33057364059E+02  0.18165500637E+03  0.91802864679E+02 0.  0.
          5    1    1    2  502    0  0.76245177530E+02 -0.14167935242E+03  0.28382452247E+01  0.16097171812E+03  0.41800000000E+01 0.  1.
         -5    1    1    2    0  502 -0.23405842049E+02 -0.21468992986E+01 -0.30521976962E+02  0.38749272203E+02  0.41800000000E+01 0.  1.
        -11    1    3    3    0    0 -0.25700430233E+02  0.12695224165E+03 -0.57208210829E+02  0.14159859872E+03  0.00000000000E+00 0.  1.
         11    1    3    3    0    0 -0.27138905249E+02  0.16874010068E+02  0.24150846770E+02  0.40056407647E+02  0.00000000000E+00 0. -1.
</event>
<event>
 7    1  0.5831876E-006  0.1076637E+03  0.7561462E-02  0.1264958E+00
         -4   -1    0    0    0  501 -0.00000000000E+00  0.00000000000E+00  0.31761339642E+02  0.31761339642E+02  0.00000000000E+00 0.  1.
          4   -1    0    0  501    0  0.00000000000E+00 -0.00000000000E+00 -0.57757193112E+03  0.57757193112E+03  0.00000000000E+00 0. -1.
         23    2    1    2    0    0  0.36251456915E+02 -0.54774326656E+01 -0.84358322741E+02  0.12982263174E+03  0.91615602928E+02 0.  0.
          5    1    1    2  502    0  0.24879491313E+02  0.39968219286E+02 -0.29581088206E+03  0.29956301171E+03  0.41800000000E+01 0. -1.
         -5    1    1    2    0  502 -0.61130948228E+02 -0.34490786621E+02 -0.16564138667E+03  0.17994762730E+03  0.41800000000E+01 0. -1.
        -11    1    3    3    0    0  0.25900694078E+02  0.41897215803E+02 -0.51394754850E+02  0.71187382814E+02  0.00000000000E+00 0.  1.
         11    1    3    3    0    0  0.10350762837E+02 -0.47374648469E+02 -0.32963567891E+02  0.58635248929E+02  0.00000000000E+00 0. -1.
</event>
<event>
 7    1  0.5831876E-006  0.1011159E+03  0.7561462E-02  0.1277967E+00
          2   -1    0    0  501    0  0.00000000000E+00  0.00000000000E+00  0.35804387011E+03  0.35804387011E+03  0.00000000000E+00 0. -1.
         -2   -1    0    0    0  501 -0.00000000000E+00 -0.00000000000E+00 -0.39484600060E+02  0.39484600060E+02  0.00000000000E+00 0.  1.
         23    2    1    2    0    0  0.30512913058E+02 -0.34388428368E+02  0.16647760256E+03  0.19531772441E+03  0.91217429507E+02 0.  0.
          5    1    1    2  502    0 -0.66802073428E+02  0.21296008074E+02  0.34231644689E+02  0.78136514334E+02  0.41800000000E+01 0.  1.
         -5    1    1    2    0  502  0.36289160370E+02  0.13092420294E+02  0.11785002281E+03  0.12407423143E+03  0.41800000000E+01 0.  1.
        -11    1    3    3    0    0 -0.99222969480E+01  0.21806491969E+02  0.85435984116E+02  0.88731518924E+02  0.00000000000E+00 0. -1.
         11    1    3    3    0    0  0.40435210006E+02 -0.56194920338E+02  0.81041618444E+02  0.10658620549E+03  0.00000000000E+00 0.  1.
</event>
<event>
 7    1  0.5831876E-006  0.9548849E+02  0.7561462E-02  0.1290080E+00
         -1   -1    0    0    0  501 -0.00000000000E+00  0.00000000000E+00  0.23329352017E+03  0.23329352017E+03  0.00000000000E+00 0.  1.
          1   -1    0    0  501    0  0.00000000000E+00 -0.00000000000E+00 -0.63801449142E+02  0.63801449142E+02  0.00000000000E+00 0. -1.
         23    2    1    2    0    0  0.40536038384E+02  0.33749016468E+02  0.10141058486E+03  0.14522066038E+03  0.89569899843E+02 0.  0.
          5    1    1    2  502    0 -0.75823750490E+01 -0.54023492319E+02 -0.17842113958E+02  0.57548619134E+02  0.41800000000E+01 0.  1.
         -5    1    1    2    0  502 -0.32953663335E+02  0.20274475852E+02  0.85923600121E+02  0.94325689799E+02  0.41800000000E+01 0.  1.
        -11    1    3    3    0    0 -0.14592417362E+02 -0.17009174938E+02  0.48679069286E+02  0.53590134008E+02  0.00000000000E+00 0.  1.
         11    1    3    3    0    0  0.55128455746E+02  0.50758191406E+02  0.52731515577E+02  0.91630526369E+02  0.00000000000E+00 0. -1.
</event>
<event>
 7    1  0.5831876E-006  0.8258030E+02  0.7561462E-02  0.1321884E+00
          4   -1    0    0  501    0  0.00000000000E+00  0.00000000000E+00  0.24059618146E+03  0.24059618146E+03  0.00000000000E+00 0. -1.
         -4   -1    0    0    0  501 -0.00000000000E+00 -0.00000000000E+00 -0.92979168137E+02  0.92979168137E+02  0.00000000000E+00 0.  1.
         23    2    1    2    0    0  0.17060780566E+02 -0.40961511568E+02 -0.31028566369E+02  0.10237305983E+03  0.86882425058E+02 0.  0.
          5    1    1    2  502    0  0.20905771309E+01  0.48130102524E+02 -0.29165983540E+01  0.48444362187E+02  0.41800000000E+01 0. -1.
         -5    1    1    2    0  502 -0.19151357696E+02 -0.71685909564E+01  0.18156217805E+03  0.18275792758E+03  0.41800000000E+01 0.  1.
        -11    1    3    3    0    0  0.41451810886E+02  0.70813883473E+01 -0.44288856651E+01  0.42284911196E+02  0.00000000000E+00 0. -1.
         11    1    3    3    0    0 -0.24391030320E+02 -0.48042899915E+02 -0.26599680704E+02  0.60088148631E+02  0.00000000000E+00 0.  1.
</event>
<event>
 7    1  0.5831876E-006  0.1538759E+03  0.7561462E-02  0.1195790E+00
          1   -1    0    0  501    0  0.00000000000E+00  0.00000000000E+00  0.79590012883E+03  0.79590012883E+03  0.00000000000E+00 0. -1.
         -1   -1    0    0    0  501 -0.00000000000E+00 -0.00000000000E+00 -0.45236056928E+02  0.45236056928E+02  0.00000000000E+00 0.  1.
         23    2    1    2    0    0 -0.13220334728E+03 -0.21888508037E+01  0.17592740603E+03  0.23826562648E+03  0.91310133444E+02 0.  0.
          5    1    1    2  502    0  0.13839999626E+02  0.30630487288E+02  0.31871774662E+02  0.46508652542E+02  0.41800000000E+01 0.  1.
         -5    1    1    2    0  502  0.11836334766E+03 -0.28441636484E+02  0.54286489121E+03  0.55636190673E+03  0.41800000000E+01 0.  1.
        -11    1    3    3    0    0 -0.88592205371E+02 -0.37264256931E+02  0.71509443105E+02  0.11979484192E+03  0.00000000000E+00 0.  1.
         11    1    3    3    0    0 -0.43611141914E+02  0.35075406127E+02  0.10441796292E+03  0.11847078456E+03  0.00000000000E+00 0. -1.
</event>
<event>
 7    1  0.5831876E-006  0.9660976E+02  0.7561462E-02  0.1287591E+00
          2   -1    0    0  501    0  0.00000000000E+00  0.00000000000E+00  0.13832073321E+04  0.13832073321E+04  0.00000000000E+00 0. -1.
         -2   -1    0    0    0  501 -0.00000000000E+00 -0.00000000000E+00 -0.35129158909E+02  0.35129158909E+02  0.00000000000E+00 0.  1.
         23    2    1    2    0    0  0.63927637660E+02  0.39238027175E+01  0.67216356832E+02  0.12978812970E+03  0.90690577790E+02 0.  0.
          5    1    1    2  502    0 -0.56046038093E+02 -0.26271097482E+02  0.12367125710E+04  0.12382676546E+04  0.41800000000E+01 0. -1.
         -5    1    1    2    0  502 -0.78815995672E+01  0.22347294765E+02  0.44149245436E+02  0.50280706714E+02  0.41800000000E+01 0. -1.
        -11    1    3    3    0    0  0.54014481412E+02 -0.36699934225E+02  0.57147436902E+02  0.86777179713E+02  0.00000000000E+00 0. -1.
         11    1    3    3    0    0  0.99131562477E+01  0.40623736943E+02  0.10068919930E+02  0.43010949984E+02  0.00000000000E+00 0.  1.
</event>
<event>
 7    1  0.5831876E-006  0.1525719E+03  0.7561462E-02  0.1197348E+00
         -1   -1    0    0    0  501 -0.00000000000E+00  0.00000000000E+00  0.39786151811E+02  0.39786151811E+02  0.00000000000E+00 0.  1.
          1   -1    0    0  501    0  0.00000000000E+00 -0.00000000000E+00 -0.70820657727E+03  0.70820657727E+03  0.00000000000E+00 0. -1.
         23    2    1    2    0    0 -0.15271355178E+01  0.12646302138E+03 -0.27442014325E+03  0.31569772842E+03  0.91451696464E+02 0.  0.
          5    1    1    2  502    0  0.32680603572E+02 -0.10911499810E+03 -0.37445343000E+03  0.39141659175E+03  0.41800000000E+01 0.  1.
         -5    1    1    2    0  502 -0.31153468054E+02 -0.17348023286E+02 -0.19546852204E+02  0.40878408908E+02  0.41800000000E+01 0.  1.
        -11    1    3    3    0    0 -0.38421319825E+02  0.21555145812E+02 -0.92992718465E+02  0.10290028093E+03  0.00000000000E+00 0. -1.
         11    1    3    3    0    0  0.36894184308E+02  0.10490787557E+03 -0.18142742479E+03  0.21279744749E+03  0.00000000000E+00 0.  1.
</event>
<event>
 7    1  0.5831876E-006  0.9724609E+02  0.7561462E-02  0.1286196E+00
         -1   -1    0    0    0  501 -0.00000000000E+00  0.00000000000E+00  0.20084581456E+02  0.20084581456E+02  0.00000000000E+00 0. -1.
          1   -1    0    0  501    0  0.00000000000E+00 -0.00000000000E+00 -0.76272057912E+03  0.76272057912E+03  0.00000000000E+00 0.  1.
         23    2    1    2    0    0 -0.60339723610E+02 -0.41403175438E+00 -0.24976932460E+03  0.27074390457E+03  0.85302360353E+02 0.  0.
          5    1    1    2  502    0 -0.16188954548E+02  0.30477113890E+01 -0.43247856937E+01  0.17537017003E+02  0.41800000000E+01 0. -1.
         -5    1    1    2    0  502  0.76528678158E+02 -0.26336796347E+01 -0.48854188737E+03  0.49452423900E+03  0.41800000000E+01 0. -1.
        -11    1    3    3    0    0 -0.46798421009E+02 -0.38365111231E+02 -0.11327153579E+03  0.12842279700E+03  0.00000000000E+00 0. -1.
         11    1    3    3    0    0 -0.13541302601E+02  0.37951079477E+02 -0.13649778881E+03  0.14232110757E+03  0.00000000000E+00 0.  1.
</event>
<event>
 7    1  0.5831876E-006  0.1096541E+03  0.7561462E-02  0.1261212E+00
          2   -1    0    0  501    0  0.00000000000E+00  0.00000000000E+00  0.45329181549E+03  0.45329181549E+03  0.00000000000E+00 0. -1.
         -2   -1    0    0    0  501 -0.00000000000E+00 -0.00000000000E+00 -0.31567654172E+02  0.31567654172E+02  0.00000000000E+00 0.  1.
         23    2    1    2    0    0  0.45994964410E+02  0.22993013107E+02  0.15978903276E+03  0.19006503694E+03  0.89151376181E+02 0.  0.
          5    1    1    2  502    0 -0.88433274699E+01 -0.69529332386E+02  0.18166036204E+03  0.19475752114E+03  0.41800000000E+01 0. -1.
         -5    1    1    2    0  502 -0.37151636941E+02  0.46536319278E+02  0.80274766514E+02  0.10003691158E+03  0.41800000000E+01 0. -1.
        -11    1    3    3    0    0  0.51004685147E+02  0.44272590482E+02  0.68506668026E+02  0.96201370775E+02  0.00000000000E+00 0.  1.
         11    1    3    3    0    0 -0.50097207368E+01 -0.21279577375E+02  0.91282364735E+02  0.93863666169E+02  0.00000000000E+00 0. -1.
</event>
<event>
 7    1  0.5831876E-006  0.2538482E+03  0.7561462E-02  0.1110897E+00
         -1   -1    0    0    0  501 -0.00000000000E+00  0.00000000000E+00  0.11321210105E+03  0.11321210105E+03  0.00000000000E+00 0.  1.
          1   -1    0    0  501    0  0.00000000000E+00 -0.00000000000E+00 -0.74392840923E+03  0.74392840923E+03  0.00000000000E+00 0. -1.
         23    2    1    2    0    0  0.19441281641E+03  0.15402162509E+03 -0.15556694415E+03  0.30674659280E+03  0.91506250615E+02 0.  0.
          5    1    1    2  502    0 -0.18062014367E+02 -0.50455424566E+02 -0.20266776315E+03  0.20967517939E+03  0.41800000000E+01 0. -1.
         -5    1    1    2    0  502 -0.17635080204E+03 -0.10356620053E+03 -0.27248160089E+03  0.34071873810E+03  0.41800000000E+01 0. -1.
        -11    1    3    3    0    0  0.86775271276E+02  0.85313482345E+02 -0.12700525986E+03  0.17589392828E+03  0.00000000000E+00 0. -1.
         11    1    3    3    0    0  0.10763754513E+03  0.68708142746E+02 -0.28561684294E+02  0.13085266452E+03  0.00000000000E+00 0.  1.
</event>
<event>
 7    1  0.5831876E-006  0.1170554E+03  0.7561462E-02  0.1248035E+00
         -1   -1    0    0    0  501 -0.00000000000E+00  0.00000000000E+00  0.28325579242E+02  0.28325579242E+02  0.00000000000E+00 0.  1.
          1   -1    0    0  501    0  0.00000000000E+00 -0.00000000000E+00 -0.12011740089E+04  0.12011740089E+04  0.00000000000E+00 0. -1.
         23    2    1    2    0    0  0.81623569931E+02  0.37224149207E+02 -0.15711908721E+03  0.20217283185E+03  0.90218633982E+02 0.  0.
          5    1    1    2  502    0 -0.89764652948E+02 -0.22997143522E+02 -0.99979136533E+03  0.10040850602E+04  0.41800000000E+01 0.  1.
         -5    1    1    2    0  502  0.81410830169E+01 -0.14227005685E+02 -0.15937977157E+02  0.23241696137E+02  0.41800000000E+01 0.  1.
        -11    1    3    3    0    0  0.76194770311E+02 -0.10047373162E+02 -0.75736573985E+02  0.10790097946E+03  0.00000000000E+00 0.  1.
         11    1    3    3    0    0  0.54287996203E+01  0.47271522369E+02 -0.81382513228E+02  0.94271852383E+02  0.00000000000E+00 0. -1.
</event>
<event>
 7    1  0.5831876E-006  0.1303529E+03  0.7561462E-02  0.1226933E+00
         -2   -1    0    0    0  501 -0.00000000000E+00  0.00000000000E+00  0.35259137324E+03  0.35259137324E+03  0.00000000000E+00 0.  1.
          2   -1    0    0  501    0  0.00000000000E+00 -0.00000000000E+00 -0.64944948592E+02  0.64944948592E+02  0.00000000000E+00 0. -1.
         23    2    1    2    0    0  0.90854749779E+02  0.43755044434E+02  0.17796318534E+03  0.22299575838E+03  0.88809478357E+02 0.  0.
          5    1    1    2  502    0 -0.11363807549E+03 -0.48245195178E+01  0.90211484615E+02  0.14523247759E+03  0.41800000000E+01 0.  1.
         -5    1    1    2    0  502  0.22783325716E+02 -0.38930524916E+02  0.19471754693E+02  0.49308085866E+02  0.41800000000E+01 0.  1.
        -11    1    3    3    0    0  0.50996416027E+02  0.31269676380E+02  0.17033901898E+03  0.18053755425E+03  0.00000000000E+00 0.  1.
         11    1    3    3    0    0  0.39858333752E+02  0.12485368054E+02  0.76241663652E+01  0.42458204127E+02  0.00000000000E+00 0. -1.
</event>
<event>
 7    1  0.5831876E-006  0.1169116E+03  0.7561462E-02  0.1248281E+00
          2   -1    0    0  501    0  0.00000000000E+00  0.00000000000E+00  0.14594300971E+03  0.14594300971E+03  0.00000000000E+00 0. -1.
         -2   -1    0    0    0  501 -0.00000000000E+00 -0.00000000000E+00 -0.12331776027E+03  0.12331776027E+03  0.00000000000E+00 0.  1.
         23    2    1    2    0    0  0.47759619247E+02 -0.58357929969E+02 -0.19419731970E+02  0.11726808464E+03  0.87681517238E+02 0.  0.
          5    1    1    2  502    0 -0.16961411704E+02 -0.33616079054E+02 -0.13409657289E+02  0.40187330921E+02  0.41800000000E+01 0. -1.
         -5    1    1    2    0  502 -0.30798207543E+02  0.91974009023E+02  0.55454638691E+02  0.11180535442E+03  0.41800000000E+01 0. -1.
        -11    1    3    3    0    0  0.56599761605E+02 -0.20846814009E+02 -0.41157975675E+02  0.73021240948E+02  0.00000000000E+00 0.  1.
         11    1    3    3    0    0 -0.88401423579E+01 -0.37511115960E+02  0.21738243705E+02  0.44246843694E+02  0.00000000000E+00 0. -1.
</event>
<event>
 7    1  0.5831876E-006  0.1854263E+03  0.7561462E-02  0.1162652E+00
         -1   -1    0    0    0  501 -0.00000000000E+00  0.00000000000E+00  0.28132752659E+03  0.28132752659E+03  0.00000000000E+00 0.  1.
          1   -1    0    0  501    0  0.00000000000E+00 -0.00000000000E+00 -0.15270078577E+03  0.15270078577E+03  0.00000000000E+00 0. -1.
         23    2    1    2    0    0  0.16731198432E+03  0.55697132961E+02  0.64211921590E+02  0.20843299743E+03  0.90695495051E+02 0.  0.
          5    1    1    2  502    0 -0.60459423582E+02 -0.33324375945E+02 -0.35328403692E+02  0.77662245908E+02  0.41800000000E+01 0. -1.
         -5    1    1    2    0  502 -0.10685256074E+03 -0.22372757017E+02  0.99743222917E+02  0.14793306903E+03  0.41800000000E+01 0. -1.
        -11    1    3    3    0    0  0.63269729990E+02  0.61504117432E+02  0.54651543890E+02  0.10379116746E+03  0.00000000000E+00 0.  1.
         11    1    3    3    0    0  0.10404225433E+03 -0.58069844711E+01  0.95603776999E+01  0.10464182996E+03  0.00000000000E+00 0. -1.
</event>
<event>
 7    1  0.5831876E-006  0.2029330E+03  0.7561462E-02  0.1147288E+00
          1   -1    0    0  501    0  0.00000000000E+00  0.00000000000E+00  0.56649742016E+03  0.56649742016E+03  0.00000000000E+00 0. -1.
         -1   -1    0    0    0  501 -0.00000000000E+00 -0.00000000000E+00 -0.90497587160E+02  0.90497587160E+02  0.00000000000E+00 0.  1.
         23    2    1    2    0    0 -0.19682423925E+03  0.10545754551E+02  0.26413924724E+03  0.34175693044E+03  0.90428222777E+02 0.  0.
          5    1    1    2  502    0 -0.33528031501E+01  0.19189850586E+01 -0.12823231599E+02  0.14029663619E+02  0.41800000000E+01 0.  1.
         -5    1    1    2    0  502  0.20017704240E+03 -0.12464739610E+02  0.22468381736E+03  0.30120841327E+03  0.41800000000E+01 0.  1.
        -11    1    3    3    0    0 -0.13625596278E+03 -0.72163410179E+01  0.11023530756E+03  0.17541261643E+03  0.00000000000E+00 0.  1.
         11    1    3    3    0    0 -0.60568276475E+02  0.17762095569E+02  0.15390393968E+03  0.16634431401E+03  0.00000000000E+00 0. -1.
</event>
<event>
 7    1  0.5831876E-006  0.2207295E+03  0.7561462E-02  0.1133340E+00
          2   -1    0    0  501    0  0.00000000000E+00  0.00000000000E+00  0.30582917982E+03  0.30582917982E+03  0.00000000000E+00 0. -1.
         -2   -1    0    0    0  501 -0.00000000000E+00 -0.00000000000E+00 -0.17752073148E+03  0.17752073148E+03  0.00000000000E+00 0.  1.
         23    2    1    2    0    0  0.70914511450E+02  0.18429835406E+03  0.24280486512E+01  0.21785658322E+03  0.91982847268E+02 0.  0.
          5    1    1    2  502    0 -0.10412798833E+03 -0.11028337866E+03  0.71469268598E+02  0.16772116836E+03  0.41800000000E+01 0. -1.
         -5    1    1    2    0  502  0.33213476880E+02 -0.74014975400E+02  0.54411131094E+02  0.97772159723E+02  0.41800000000E+01 0. -1.
        -11    1    3    3    0    0  0.64964864129E+02  0.75789638210E+02  0.32709407461E+02  0.10504479125E+03  0.00000000000E+00 0.  1.
         11    1    3    3    0    0  0.59496473203E+01  0.10850871585E+03 -0.30281358810E+02  0.11281179198E+03  0.00000000000E+00 0. -1.
</event>
<event>
 7    1  0.5831876E-006  0.1365554E+03  0.7561462E-02  0.1218041E+00
         -1   -1    0    0    0  501 -0.00000000000E+00  0.00000000000E+00  0.33376627248E+02  0.33376627248E+02  0.00000000000E+00 0.  1.
          1   -1    0    0  501    0  0.00000000000E+00 -0.00000000000E+00 -0.88664608324E+03  0.88664608324E+03  0.00000000000E+00 0. -1.
         23    2    1    2    0    0  0.24181532776E+02  0.10239851756E+03 -0.18012746305E+03  0.22731877887E+03  0.90320104958E+02 0.  0.
          5    1    1    2  502    0 -0.60420060673E+02 -0.10442115001E+03 -0.42226213411E+03  0.43917780295E+03  0.41800000000E+01 0.  1.
         -5    1    1    2    0  502  0.36238527897E+02  0.20226324470E+01 -0.25087985884E+03  0.25352612867E+03  0.41800000000E+01 0.  1.
        -11    1    3    3    0    0  0.32632878051E+02  0.34684604842E+02 -0.17123940879E+02  0.50607863956E+02  0.00000000000E+00 0.  1.
         11    1    3    3    0    0 -0.84513452753E+01  0.67713912716E+02 -0.16300352217E+03  0.17671091492E+03  0.00000000000E+00 0. -1.
</event>
<event>
 7    1  0.5831876E-006  0.1015910E+03  0.7561462E-02  0.1276985E+00
          1   -1    0    0  501    0  0.00000000000E+00  0.00000000000E+00  0.93167231200E+03  0.93167231200E+03  0.00000000000E+00 0. -1.
         -1   -1    0    0    0  501 -0.00000000000E+00 -0.00000000000E+00 -0.22605896582E+02  0.22605896582E+02  0.00000000000E+00 0.  1.
         23    2    1    2    0    0  0.70997316770E+02 -0.50676664221E+01  0.24646592119E+03  0.27622708453E+03  0.10241900062E+03 0.  0.
          5    1    1    2  502    0  0.77408094887E+01  0.33826208343E+02  0.58482400892E+02  0.68130728138E+02  0.41800000000E+01 0. -1.
         -5    1    1    2    0  502 -0.78738126258E+02 -0.28758541921E+02  0.60411809333E+03  0.60992039591E+03  0.41800000000E+01 0. -1.
        -11    1    3    3    0    0  0.31695191361E+02 -0.24873728027E+02  0.22249163931E+03  0.22611018788E+03  0.00000000000E+00 0. -1.
         11    1    3    3    0    0  0.39302125409E+02  0.19806061605E+02  0.23974281885E+02  0.50116896650E+02  0.00000000000E+00 0.  1.
</event>
<event>
 7    1  0.5831876E-006  0.2381915E+03  0.7561462E-02  0.1121003E+00
          2   -1    0    0  501    0  0.00000000000E+00  0.00000000000E+00  0.67538563481E+03  0.67538563481E+03  0.00000000000E+00 0. -1.
         -2   -1    0    0    0  501 -0.00000000000E+00 -0.00000000000E+00 -0.96649038737E+02  0.96649038737E+02  0.00000000000E+00 0.  1.
         23    2    1    2    0    0 -0.11214834946E+03  0.19559059280E+03  0.20670406853E+03  0.31938845817E+03  0.91921069306E+02 0.  0.
          5    1    1    2  502    0  0.79649329177E+02 -0.59479494775E+02  0.24167067391E+03  0.26135036439E+03  0.41800000000E+01 0. -1.
         -5    1    1    2    0  502  0.32499020281E+02 -0.13611109803E+03  0.13036185362E+03  0.19129585099E+03  0.41800000000E+01 0. -1.
        -11    1    3    3    0    0 -0.81182906183E+02  0.18833052921E+03  0.20084120614E+03  0.28704745701E+03  0.00000000000E+00 0. -1.
         11    1    3    3    0    0 -0.30965443276E+02  0.72600635925E+01  0.58628623909E+01  0.32341001160E+02  0.00000000000E+00 0.  1.
</event>
<event>
 7    1  0.5831876E-006  0.6929439E+02  0.7561462E-02  0.1362509E+00
          2   -1    0    0  501    0  0.00000000000E+00  0.00000000000E+00  0.40817781990E+03  0.40817781990E+03  0.00000000000E+00 0. -1.
         -2   -1    0    0    0  501 -0.00000000000E+00 -0.00000000000E+00 -0.40481665886E+02  0.40481665886E+02  0.00000000000E+00 0.  1.
         23    2    1    2    0    0 -0.43621757870E+02 -0.17893292635E+02  0.70245084178E+02  0.12255664647E+03  0.88672047808E+02 0.  0.
          5    1    1    2  502    0  0.45585323122E+02 -0.10088628295E+02  0.29379118221E+03  0.29750719865E+03  0.41800000000E+01 0.  1.
         -5    1    1    2    0  502 -0.19635652517E+01  0.27981920930E+02  0.36598876251E+01  0.28595640662E+02  0.41800000000E+01 0.  1.
        -11    1    3    3    0    0 -0.35536210595E+02  0.78304130151E+01 -0.10135471456E+02  0.37773872095E+02  0.00000000000E+00 0.  1.
         11    1    3    3    0    0 -0.80855472753E+01 -0.25723705650E+02  0.80380555634E+02  0.84782774377E+02  0.00000000000E+00 0. -1.
</event>
<event>
 7    1  0.5831876E-006  0.1171412E+03  0.7561462E-02  0.1247889E+00
         -2   -1    0    0    0  501 -0.00000000000E+00  0.00000000000E+00  0.12840630698E+02  0.12840630698E+02  0.00000000000E+00 0. -1.
          2   -1    0    0  501    0  0.00000000000E+00 -0.00000000000E+00 -0.14115893512E+04  0.14115893512E+04  0.00000000000E+00 0.  1.
         23    2    1    2    0    0  0.32085404023E+02  0.36507479624E+02 -0.28865708127E+03  0.30625625512E+03  0.90042845435E+02 0.  0.
          5    1    1    2  502    0 -0.70931537983E+02  0.10528579400E+02 -0.67383883321E+03  0.67765653513E+03  0.41800000000E+01 0.  1.
         -5    1    1    2    0  502  0.38846133960E+02 -0.47036059024E+02 -0.43625280607E+03  0.44051719169E+03  0.41800000000E+01 0.  1.
        -11    1    3    3    0    0  0.17470737210E+02  0.66063034622E+02 -0.21392442781E+03  0.22457340007E+03  0.00000000000E+00 0.  1.
         11    1    3    3    0    0  0.14614666813E+02 -0.29555554998E+02 -0.74732653454E+02  0.81682855053E+02  0.00000000000E+00 0. -1.
</event>
<event>
 7    1  0.5831876E-006  0.8796290E+02  0.7561462E-02  0.1307861E+00
          2   -1    0    0  501    0  0.00000000000E+00  0.00000000000E+00  0.72832953583E+03  0.72832953583E+03  0.00000000000E+00 0. -1.
         -2   -1    0    0    0  501 -0.00000000000E+00 -0.00000000000E+00 -0.22008487148E+02  0.22008487148E+02  0.00000000000E+00 0.  1.
         23    2    1    2    0    0  0.22053830731E+02  0.51630847120E+02  0.21824577637E+03  0.24336925428E+03  0.91898091380E+02 0.  0.
          5    1    1    2  502    0 -0.26144020995E+02  0.24469454495E+02  0.32411683906E+03  0.32611571842E+03  0.41800000000E+01 0. -1.
         -5    1    1    2    0  502  0.40901902643E+01 -0.76100301615E+02  0.16395843325E+03  0.18085305028E+03  0.41800000000E+01 0. -1.
        -11    1    3    3    0    0 -0.53644563795E+01  0.24116572603E+02  0.32805902103E+01  0.24922855745E+02  0.00000000000E+00 0.  1.
         11    1    3    3    0    0  0.27418287111E+02  0.27514274517E+02  0.21496518616E+03  0.21844639853E+03  0.00000000000E+00 0. -1.
</event>
<event>
 7    1  0.5831876E-006  0.1049137E+03  0.7561462E-02  0.1270290E+00
         -1   -1    0    0    0  501 -0.00000000000E+00  0.00000000000E+00  0.33506804631E+02  0.33506804631E+02  0.00000000000E+00 0.  1.
          1   -1    0    0  501    0  0.00000000000E+00 -0.00000000000E+00 -0.45213190190E+03  0.45213190190E+03  0.00000000000E+00 0. -1.
         23    2    1    2    0    0  0.51666492536E+02 -0.21713511421E+02 -0.15290562527E+03  0.18664358245E+03  0.91185490080E+02 0.  0.
          5    1    1    2  502    0 -0.12364526787E+02  0.55099537872E+02 -0.22810886248E+03  0.23503184069E+03  0.41800000000E+01 0. -1.
         -5    1    1    2    0  502 -0.39301965750E+02 -0.33386026451E+02 -0.37610609525E+02  0.63963283396E+02  0.41800000000E+01 0. -1.
        -11    1    3    3    0    0 -0.35820661425E+01 -0.42340985149E+02 -0.35945587168E+02  0.55656764711E+02  0.00000000000E+00 0.  1.
         11    1    3    3    0    0  0.55248558679E+02  0.20627473728E+02 -0.11696003810E+03  0.13098681774E+03  0.00000000000E+00 0. -1.
</event>
<event>
 7    1  0.5831876E-006  0.1023076E+03  0.7561462E-02  0.1275517E+00
          1   -1    0    0  501    0  0.00000000000E+00  0.00000000000E+00  0.10399292039E+04  0.10399292039E+04  0.00000000000E+00 0. -1.
         -1   -1    0    0    0  501 -0.00000000000E+00 -0.00000000000E+00 -0.28313531302E+02  0.28313531302E+02  0.00000000000E+00 0.  1.
         23    2    1    2    0    0 -0.12102759895E+02 -0.25532258223E+02  0.72063975393E+02  0.11997969484E+03  0.91670811153E+02 0.  0.
          5    1    1    2  502    0 -0.47318786681E+02  0.28794198818E+02  0.24809969108E+03  0.25424221241E+03  0.41800000000E+01 0.  1.
         -5    1    1    2    0  502  0.59421546576E+02 -0.32619405955E+01  0.69145200611E+03  0.69402082794E+03  0.41800000000E+01 0.  1.
        -11    1    3    3    0    0 -0.43887326851E+02 -0.35120431443E+02  0.22987580908E+02  0.60728667356E+02  0.00000000000E+00 0.  1.
         11    1    3    3    0    0  0.31784566956E+02  0.95881732205E+01  0.49076394485E+02  0.59251027484E+02  0.00000000000E+00 0. -1.
</event>
<event>
 7    1  0.5831876E-006  0.1028918E+03  0.7561462E-02  0.1274330E+00
          2   -1    0    0  501    0  0.00000000000E+00  0.00000000000E+00  0.15029269338E+03  0.15029269338E+03  0.00000000000E+00 0. -1.
         -2   -1    0    0    0  501 -0.00000000000E+00 -0.00000000000E+00 -0.10574227135E+03  0.10574227135E+03  0.00000000000E+00 0.  1.
         23    2    1    2    0    0 -0.32972154454E+02 -0.30972310829E+02 -0.26482571034E+02  0.10523956321E+03  0.91255641404E+02 0.  0.
          5    1    1    2  502    0  0.33183160280E+02 -0.45467856419E+02  0.31392169247E+02  0.64586289439E+02  0.41800000000E+01 0.  1.
         -5    1    1    2    0  502 -0.21100582570E+00  0.76440167248E+02  0.39640823824E+02  0.86209112082E+02  0.41800000000E+01 0.  1.
        -11    1    3    3    0    0 -0.39600846339E+00 -0.39187065019E+02 -0.50514203803E+02  0.63933306448E+02  0.00000000000E+00 0.  1.
         11    1    3    3    0    0 -0.32576145990E+02  0.82147541899E+01  0.24031632768E+02  0.41306256760E+02  0.00000000000E+00 0. -1.
</event>
<event>
 7    1  0.5831876E-006  0.1038322E+03  0.7561462E-02  0.1272438E+00
          2   -1    0    0  501    0  0.00000000000E+00  0.00000000000E+00  0.34562602469E+03  0.34562602469E+03  0.00000000000E+00 0. -1.
         -2   -1    0    0    0  501 -0.00000000000E+00 -0.00000000000E+00 -0.37114010590E+02  0.37114010590E+02  0.00000000000E+00 0.  1.
         23    2    1    2    0    0 -0.44863085472E+01  0.51488564004E+02  0.12861244532E+03  0.16544350603E+03  0.90328253648E+02 0.  0.
          5    1    1    2  502    0  0.53150582203E+02 -0.26852958393E+02  0.13084430770E+03  0.14381853504E+03  0.41800000000E+01 0. -1.
         -5    1    1    2    0  502 -0.48664273656E+02 -0.24635605611E+02  0.49055261075E+02  0.73477994212E+02  0.41800000000E+01 0.  1.
        -11    1    3    3    0    0 -0.64198128469E+01  0.72188983999E+02  0.12478384696E+03  0.14430340214E+03  0.00000000000E+00 0. -1.
         11    1    3    3    0    0  0.19335042997E+01 -0.20700419995E+02  0.38285983629E+01  0.21140103885E+02  0.00000000000E+00 0.  1.
</event>
<event>
 7    1  0.5831876E-006  0.1072351E+03  0.7561462E-02  0.1265777E+00
          1   -1    0    0  501    0  0.00000000000E+00  0.00000000000E+00  0.41874462894E+03  0.41874462894E+03  0.00000000000E+00 0. -1.
         -1   -1    0    0    0  501 -0.00000000000E+00 -0.00000000000E+00 -0.31275200726E+02  0.31275200726E+02  0.00000000000E+00 0.  1.
         23    2    1    2    0    0  0.49055686256E+01 -0.26569996141E+02  0.11527351232E+03  0.14924216618E+03  0.90858198439E+02 0.  0.
          5    1    1    2  502    0  0.34522313915E+02 -0.33243720150E+02  0.16428608381E+03  0.17118506016E+03  0.41800000000E+01 0. -1.
         -5    1    1    2    0  502 -0.39427882541E+02  0.59813716291E+02  0.10790983208E+03  0.12959260333E+03  0.41800000000E+01 0. -1.
        -11    1    3    3    0    0  0.28877614225E+02 -0.52107491406E+02  0.77095698450E+02  0.97431278260E+02  0.00000000000E+00 0. -1.
         11    1    3    3    0    0 -0.23972045599E+02  0.25537495265E+02  0.38177813870E+02  0.51810887915E+02  0.00000000000E+00 0.  1.
</event>
<event>
 7    1  0.5831876E-006  0.1724750E+03  0.7561462E-02  0.1175291E+00
         -1   -1    0    0    0  501 -0.00000000000E+00  0.00000000000E+00  0.42510940584E+03  0.42510940584E+03  0.00000000000E+00 0.  1.
          1   -1    0    0  501    0  0.00000000000E+00 -0.00000000000E+00 -0.10182189232E+03  0.10182189232E+03  0.00000000000E+00 0. -1.
         23    2    1    2    0    0 -0.82652078776E+02 -0.10806781041E+03  0.29824315730E+03  0.34042305356E+03  0.91808805378E+02 0.  0.
          5    1    1    2  502    0  0.17158652612E+02 -0.27656254580E+02 -0.37425190657E+01  0.33026756211E+02  0.41800000000E+01 0.  1.
         -5    1    1    2    0  502  0.65493426164E+02  0.13572406499E+03  0.28786875293E+02  0.15348148839E+03  0.41800000000E+01 0.  1.
        -11    1    3    3    0    0 -0.50332159487E+02 -0.18651997941E+01  0.12379067052E+03  0.13364481044E+03  0.00000000000E+00 0.  1.
         11    1    3    3    0    0 -0.32319919289E+02 -0.10620261062E+03  0.17445248678E+03  0.20677824312E+03  0.00000000000E+00 0. -1.
</event>
<event>
 7    1  0.5831876E-006  0.8372732E+02  0.7561462E-02  0.1318795E+00
          2   -1    0    0  501    0  0.00000000000E+00  0.00000000000E+00  0.19101842572E+03  0.19101842572E+03  0.00000000000E+00 0. -1.
         -2   -1    0    0    0  501 -0.00000000000E+00 -0.00000000000E+00 -0.70505554345E+02  0.70505554345E+02  0.00000000000E+00 0.  1.
         23    2    1    2    0    0 -0.11240712121E+02 -0.24903326208E+02  0.19790932718E+02  0.98615091665E+02  0.92664588820E+02 0.  0.
          5    1    1    2  502    0  0.13932888175E+02  0.74826837560E+02  0.73211125804E+02  0.10569069180E+03  0.41800000000E+01 0.  1.
         -5    1    1    2    0  502 -0.26921760535E+01 -0.49923511353E+02  0.27510812849E+02  0.57218196593E+02  0.41800000000E+01 0.  1.
        -11    1    3    3    0    0 -0.19295192791E+02 -0.55245075258E+01 -0.34775774735E+02  0.40151950845E+02  0.00000000000E+00 0.  1.
         11    1    3    3    0    0  0.80544806704E+01 -0.19378818682E+02  0.54566707453E+02  0.58463140820E+02  0.00000000000E+00 0. -1.
</event>
<event>
 7    1  0.5831876E-006  0.8367017E+02  0.7561462E-02  0.1318947E+00
         -2   -1    0    0    0  501 -0.00000000000E+00  0.00000000000E+00  0.29885698820E+02  0.29885698820E+02  0.00000000000E+00 0.  1.
          2   -1    0    0  501    0  0.00000000000E+00 -0.00000000000E+00 -0.43220553083E+03  0.43220553083E+03  0.00000000000E+00 0. -1.
         23    2    1    2    0    0  0.65613635648E+01  0.12586832795E+02 -0.10699069330E+03  0.14104577511E+03  0.90804308116E+02 0.  0.
          5    1    1    2  502    0 -0.14852977805E+02  0.34477850219E+02 -0.22364210315E+02  0.43897191350E+02  0.41800000000E+01 0. -1.
         -5    1    1    2    0  502  0.82916142406E+01 -0.47064683014E+02 -0.27296492840E+03  0.27714826319E+03  0.41800000000E+01 0. -1.
        -11    1    3    3    0    0  0.27451043929E+02 -0.25940820308E+02 -0.17979285345E+02  0.41829901656E+02  0.00000000000E+00 0.  1.
         11    1    3    3    0    0 -0.20889680365E+02  0.38527653103E+02 -0.89011407952E+02  0.99215873452E+02  0.00000000000E+00 0. -1.
</event>
<event>
 7    1  0.5831876E-006  0.1282815E+03  0.7561462E-02  0.1230028E+00
         -1   -1    0    0    0  501 -0.00000000000E+00  0.00000000000E+00  0.35109134895E+02  0.35109134895E+02  0.00000000000E+00 0.  1.
          1   -1    0    0  501    0  0.00000000000E+00 -0.00000000000E+00 -0.48634346933E+03  0.48634346933E+03  0.00000000000E+00 0. -1.
         23    2    1    2    0    0 -0.38334642406E+02 -0.60221008631E+02 -0.17977694361E+03  0.21415440488E+03  0.91903454689E+02 0.  0.
          5    1    1    2  502    0 -0.38587686446E+02 -0.96664692780E+01 -0.77195229899E+02  0.86942659798E+02  0.41800000000E+01 0.  1.
         -5    1    1    2    0  502  0.76922328852E+02  0.69887477909E+02 -0.19426216092E+03  0.22035553955E+03  0.41800000000E+01 0.  1.
        -11    1    3    3    0    0 -0.14732456039E+02  0.22296465577E+02 -0.22292787381E+02  0.34801523061E+02  0.00000000000E+00 0.  1.
         11    1    3    3    0    0 -0.23602186367E+02 -0.82517474208E+02 -0.15748415623E+03  0.17935288182E+03  0.00000000000E+00 0. -1.
</event>
<event>
 7    1  0.5831876E-006  0.1139675E+03  0.7561462E-02  0.1253394E+00
          2   -1    0    0  501    0  0.00000000000E+00  0.00000000000E+00  0.28895942755E+03  0.28895942755E+03  0.00000000000E+00 0.  1.
         -2   -1    0    0    0  501 -0.00000000000E+00 -0.00000000000E+00 -0.77055462542E+02  0.77055462542E+02  0.00000000000E+00 0. -1.
         23    2    1    2    0    0  0.17076650378E+02  0.95255318213E+02  0.56114241629E+02  0.14401843264E+03  0.90704537868E+02 0.  0.
          5    1    1    2  502    0 -0.95367063506E+01 -0.89678711155E+02  0.17685294152E+03  0.19856398296E+03  0.41800000000E+01 0.  1.
         -5    1    1    2    0  502 -0.75399440279E+01 -0.55766070577E+01 -0.21063218146E+02  0.23432474494E+02  0.41800000000E+01 0.  1.
        -11    1    3    3    0    0 -0.77437436800E+01 -0.13647176738E+02  0.22394238253E+02  0.27344339561E+02  0.00000000000E+00 0. -1.
         11    1    3    3    0    0  0.24820394058E+02  0.10890249495E+03  0.33720003376E+02  0.11667409308E+03  0.00000000000E+00 0.  1.
</event>
<event>
 7    1  0.5831876E-006  0.1110565E+03  0.7561462E-02  0.1258626E+00
         -2   -1    0    0    0  501 -0.00000000000E+00  0.00000000000E+00  0.23770036312E+02  0.23770036312E+02  0.00000000000E+00 0.  1.
          2   -1    0    0  501    0  0.00000000000E+00 -0.00000000000E+00 -0.99979530827E+03  0.99979530827E+03  0.00000000000E+00 0. -1.
         23    2    1    2    0    0 -0.49075352526E+01  0.61201735860E+02 -0.15237750486E+03  0.18821339855E+03  0.91845756742E+02 0.  0.
          5    1    1    2  502    0 -0.23036684837E+02  0.22421898092E+02 -0.77578560460E+02  0.84079342322E+02  0.41800000000E+01 0.  1.
         -5    1    1    2    0  502  0.27944220089E+02 -0.83623633952E+02 -0.74606920664E+03  0.75127260372E+03  0.41800000000E+01 0.  1.
        -11    1    3    3    0    0  0.53987900025E+01  0.79897092689E+02 -0.81777289941E+02  0.11445618159E+03  0.00000000000E+00 0.  1.
         11    1    3    3    0    0 -0.10306325255E+02 -0.18695356829E+02 -0.70600214918E+02  0.73757216960E+02  0.00000000000E+00 0. -1.
</event>
<event>
 7    1  0.5831876E-006  0.1179516E+03  0.7561462E-02  0.1246515E+00
          2   -1    0    0  501    0  0.00000000000E+00  0.00000000000E+00  0.16348148023E+03  0.16348148023E+03  0.00000000000E+00 0. -1.
         -2   -1    0    0    0  501 -0.00000000000E+00 -0.00000000000E+00 -0.10985554963E+03  0.10985554963E+03  0.00000000000E+00 0.  1.
         23    2    1    2    0    0 -0.39075815410E+02  0.48911396032E+02 -0.18544785665E+02  0.11593413137E+03  0.95799633246E+02 0.  0.
          5    1    1    2  502    0 -0.73433898030E+01  0.39216296966E+02  0.23024160892E+02  0.46253948007E+02  0.41800000000E+01 0. -1.
         -5    1    1    2    0  502  0.46419205213E+02 -0.88127692998E+02  0.49146555374E+02  0.11114895047E+03  0.41800000000E+01 0. -1.
        -11    1    3    3    0    0 -0.43156963129E+00  0.56675671899E+02  0.20674197224E+02  0.60330261630E+02  0.00000000000E+00 0. -1.
         11    1    3    3    0    0 -0.38644245778E+02 -0.77642758669E+01 -0.39218982888E+02  0.55603869742E+02  0.00000000000E+00 0.  1.
</event>
<event>
 7    1  0.5831876E-006  0.9672771E+02  0.7561462E-02  0.1287332E+00
          2   -1    0    0  501    0  0.00000000000E+00  0.00000000000E+00  0.22379643457E+03  0.22379643457E+03  0.00000000000E+00 0. -1.
         -2   -1    0    0    0  501 -0.00000000000E+00 -0.00000000000E+00 -0.57782324942E+02  0.57782324942E+02  0.00000000000E+00 0.  1.
         23    2    1    2    0    0  0.79624449717E+01 -0.30406793616E+02  0.55054778680E+02  0.11143169649E+03  0.91640715288E+02 0.  0.
          5    1    1    2  502    0 -0.59128390249E+02  0.42874684294E+02  0.82042459204E+02  0.10992198415E+03  0.41800000000E+01 0. -1.
         -5    1    1    2    0  502  0.51165945277E+02 -0.12467890678E+02  0.28916871740E+02  0.60225078874E+02  0.41800000000E+01 0. -1.
        -11    1    3    3    0    0 -0.26070640751E+02 -0.15361648944E+02  0.66032599042E+02  0.72635822454E+02  0.00000000000E+00 0. -1.
         11    1    3    3    0    0  0.34033085723E+02 -0.15045144672E+02 -0.10977820362E+02  0.38795874032E+02  0.00000000000E+00 0.  1.
</event>
<event>
 7    1  0.5831876E-006  0.1103940E+03  0.7561462E-02  0.1259842E+00
         -1   -1    0    0    0  501 -0.00000000000E+00  0.00000000000E+00  0.69601181263E+02  0.69601181263E+02  0.00000000000E+00 0.  1.
          1   -1    0    0  501    0  0.00000000000E+00 -0.00000000000E+00 -0.23117465478E+03  0.23117465478E+03  0.00000000000E+00 0. -1.
         23    2    1    2    0    0  0.82250916763E+01  0.55773325781E+02 -0.29059233463E+02  0.11005176139E+03  0.89936839693E+02 0.  0.
          5    1    1    2  502    0 -0.48314917163E+02 -0.70763228077E+02 -0.11684280387E+03  0.14495336797E+03  0.41800000000E+01 0. -1.
         -5    1    1    2    0  502  0.40089825487E+02  0.14989902296E+02 -0.15671436181E+02  0.45770706685E+02  0.41800000000E+01 0. -1.
        -11    1    3    3    0    0  0.35400779618E+02  0.54250884537E+02  0.66858385010E+01  0.65123529596E+02  0.00000000000E+00 0.  1.
         11    1    3    3    0    0 -0.27175687942E+02  0.15224412440E+01 -0.35745071964E+02  0.44928231795E+02  0.00000000000E+00 0. -1.
</event>
<event>
 7    1  0.5831876E-006  0.1308667E+03  0.7561462E-02  0.1226175E+00
          2   -1    0    0  501    0  0.00000000000E+00  0.00000000000E+00  0.10740431421E+04  0.10740431421E+04  0.00000000000E+00 0. -1.
         -2   -1    0    0    0  501 -0.00000000000E+00 -0.00000000000E+00 -0.29072620031E+02  0.29072620031E+02  0.00000000000E+00 0.  1.
         23    2    1    2    0    0  0.51936142861E+02 -0.91905592837E+02  0.20523906247E+03  0.24709939186E+03  0.88266844064E+02 0.  0.
          5    1    1    2  502    0 -0.57207279055E+02  0.10628716346E+03  0.82670032336E+03  0.83547623002E+03  0.41800000000E+01 0. -1.
         -5    1    1    2    0  502  0.52711361941E+01 -0.14381570625E+02  0.13031136271E+02  0.20540140285E+02  0.41800000000E+01 0.  1.
        -11    1    3    3    0    0  0.48149971429E+02 -0.18509149663E+02  0.36922829204E+02  0.63437399745E+02  0.00000000000E+00 0.  1.
         11    1    3    3    0    0  0.37861714318E+01 -0.73396443174E+02  0.16831623327E+03  0.18366199211E+03  0.00000000000E+00 0. -1.
</event>
<event>
 7    1  0.5831876E-006  0.6512314E+02  0.7561462E-02  0.1377509E+00
          2   -1    0    0  501    0  0.00000000000E+00  0.00000000000E+00  0.13456305720E+03  0.13456305720E+03  0.00000000000E+00 0. -1.
         -2   -1    0    0    0  501 -0.00000000000E+00 -0.00000000000E+00 -0.98401082866E+02  0.98401082866E+02  0.00000000000E+00 0.  1.
         23    2    1    2    0    0 -0.36305050935E+02 -0.13140905261E+02  0.21246423785E+02  0.10120353283E+03  0.91104360049E+02 0.  0.
          5    1    1    2  502    0  0.12062280898E+02  0.34473150577E+02  0.63441461613E+02  0.73322494385E+02  0.41800000000E+01 0.  1.
         -5    1    1    2    0  502  0.24242770037E+02 -0.21332245317E+02 -0.48525911061E+02  0.58438112851E+02  0.41800000000E+01 0.  1.
        -11    1    3    3    0    0 -0.17310267134E+02 -0.30578877545E+02 -0.28452614430E+02  0.45213541866E+02  0.00000000000E+00 0.  1.
         11    1    3    3    0    0 -0.18994783801E+02  0.17437972285E+02  0.49699038215E+02  0.55989990967E+02  0.00000000000E+00 0. -1.
</event>
<event>
 7    1  0.5831876E-006  0.1379260E+03  0.7561462E-02  0.1216147E+00
          2   -1    0    0  501    0  0.00000000000E+00  0.00000000000E+00  0.42802407020E+03  0.42802407020E+03  0.00000000000E+00 0. -1.
         -2   -1    0    0    0  501 -0.00000000000E+00 -0.00000000000E+00 -0.56489774640E+02  0.56489774640E+02  0.00000000000E+00 0.  1.
         23    2    1    2    0    0  0.98714951835E+02 -0.35772689588E+02  0.11898806092E+03  0.18376934653E+03  0.92675169529E+02 0.  0.
          5    1    1    2  502    0 -0.78166254616E+02 -0.16271971354E+02  0.22389619385E+03  0.23774296716E+03  0.41800000000E+01 0. -1.
         -5    1    1    2    0  502 -0.20548697219E+02  0.52044660942E+02  0.28650040787E+02  0.63001531148E+02  0.41800000000E+01 0. -1.
        -11    1    3    3    0    0 -0.12045391095E+02  0.13907486288E+02  0.19583895462E+02  0.26870775629E+02  0.00000000000E+00 0. -1.
         11    1    3    3    0    0  0.11076034293E+03 -0.49680175876E+02  0.99404165461E+02  0.15689857090E+03  0.00000000000E+00 0.  1.
</event>
<event>
 7    1  0.5831876E-006  0.1683391E+03  0.7561462E-02  0.1179591E+00
         -3   -1    0    0    0  501 -0.00000000000E+00  0.00000000000E+00  0.58179995496E+03  0.58179995496E+03  0.00000000000E+00 0.  1.
          3   -1    0    0  501    0  0.00000000000E+00 -0.00000000000E+00 -0.64578524143E+02  0.64578524143E+02  0.00000000000E+00 0. -1.
         23    2    1    2    0    0 -0.10152169145E+03 -0.11210942886E+03  0.33373808261E+03  0.37769869235E+03  0.91651604145E+02 0.  0.
          5    1    1    2  502    0 -0.12956663508E+02 -0.10699173808E+02  0.53732368938E+02  0.56453408410E+02  0.41800000000E+01 0.  1.
         -5    1    1    2    0  502  0.11447835496E+03  0.12280860267E+03  0.12975097927E+03  0.21222637835E+03  0.41800000000E+01 0.  1.
        -11    1    3    3    0    0 -0.44025315582E+02 -0.43290690213E+02  0.24064017719E+03  0.24843511657E+03  0.00000000000E+00 0.  1.
         11    1    3    3    0    0 -0.57496375868E+02 -0.68818738652E+02  0.93097905423E+02  0.12926357577E+03  0.00000000000E+00 0. -1.
</event>
<event>
 7    1  0.5831876E-006  0.1027587E+03  0.7561462E-02  0.1274599E+00
         -3   -1    0    0    0  501 -0.00000000000E+00  0.00000000000E+00  0.16135645572E+03  0.16135645572E+03  0.00000000000E+00 0.  1.
          3   -1    0    0  501    0  0.00000000000E+00 -0.00000000000E+00 -0.10047520591E+03  0.10047520591E+03  0.00000000000E+00 0. -1.
         23    2    1    2    0    0  0.52299498295E+02 -0.22836659596E+02  0.62224841758E+02  0.12433790621E+03  0.91275590633E+02 0.  0.
          5    1    1    2  502    0  0.41109946205E+02  0.10776429178E+02 -0.58814713477E+01  0.43107113195E+02  0.41800000000E+01 0. -1.
         -5    1    1    2    0  502 -0.93409444500E+02  0.12060230418E+02  0.45378794007E+01  0.94386642217E+02  0.41800000000E+01 0. -1.
        -11    1    3    3    0    0  0.48959223478E+01  0.98197273967E+01  0.65757105296E+02  0.66666288323E+02  0.00000000000E+00 0.  1.
         11    1    3    3    0    0  0.47403575948E+02 -0.32656386992E+02 -0.35322635381E+01  0.57671617887E+02  0.00000000000E+00 0. -1.
</event>
<event>
 7    1  0.5831876E-006  0.1123602E+03  0.7561462E-02  0.1256261E+00
         -2   -1    0    0    0  501 -0.00000000000E+00  0.00000000000E+00  0.40222697276E+02  0.40222697276E+02  0.00000000000E+00 0. -1.
          2   -1    0    0  501    0  0.00000000000E+00 -0.00000000000E+00 -0.34119264693E+03  0.34119264693E+03  0.00000000000E+00 0.  1.
         23    2    1    2    0    0  0.18894202334E+02  0.31267967602E+02 -0.90987021697E+02  0.13428142596E+03  0.91750676072E+02 0.  0.
          5    1    1    2  502    0 -0.71303639973E+02 -0.15569201774E+02 -0.96318376052E+02  0.12091861347E+03  0.41800000000E+01 0.  1.
         -5    1    1    2    0  502  0.52409437639E+02 -0.15698765828E+02 -0.11366455191E+03  0.12621530479E+03  0.41800000000E+01 0.  1.
        -11    1    3    3    0    0  0.23738390521E+02  0.61608083949E+02 -0.74007086477E+02  0.99177195168E+02  0.00000000000E+00 0.  1.
         11    1    3    3    0    0 -0.48441881871E+01 -0.30340116347E+02 -0.16979935220E+02  0.35104230788E+02  0.00000000000E+00 0. -1.
</event>
<event>
 7    1  0.5831876E-006  0.8257927E+02  0.7561462E-02  0.1321887E+00
         -2   -1    0    0    0  501 -0.00000000000E+00  0.00000000000E+00  0.13296235046E+03  0.13296235046E+03  0.00000000000E+00 0.  1.
          2   -1    0    0  501    0  0.00000000000E+00 -0.00000000000E+00 -0.11227375764E+03  0.11227375764E+03  0.00000000000E+00 0. -1.
         23    2    1    2    0    0  0.61433209561E+01 -0.23414042634E+02  0.59877847258E+02  0.11191893715E+03  0.91403140620E+02 0.  0.
          5    1    1    2  502    0 -0.11059267620E+02 -0.46062869162E+02  0.91560126302E+01  0.48429332878E+02  0.41800000000E+01 0.  1.
         -5    1    1    2    0  502  0.49159466642E+01  0.69476911796E+02 -0.48345267066E+02  0.84887838069E+02  0.41800000000E+01 0.  1.
        -11    1    3    3    0    0  0.23906747699E+02 -0.12486423843E+02  0.79090383263E+02  0.83562743436E+02  0.00000000000E+00 0.  1.
         11    1    3    3    0    0 -0.17763426743E+02 -0.10927618791E+02 -0.19212536004E+02  0.28356193712E+02  0.00000000000E+00 0. -1.
</event>
<event>
 7    1  0.5831876E-006  0.7032588E+02  0.7561462E-02  0.1358988E+00
         -1   -1    0    0    0  501 -0.00000000000E+00  0.00000000000E+00  0.48766460840E+02  0.48766460840E+02  0.00000000000E+00 0.  1.
          1   -1    0    0  501    0  0.00000000000E+00 -0.00000000000E+00 -0.25688673902E+03  0.25688673902E+03  0.00000000000E+00 0. -1.
         23    2    1    2    0    0 -0.98367755499E+01 -0.18120390419E+02 -0.52252983465E+02  0.10473706461E+03  0.88398912441E+02 0.  0.
          5    1    1    2  502    0  0.52129044945E+02  0.10956970357E+02 -0.14767821848E+03  0.15704719399E+03  0.41800000000E+01 0. -1.
         -5    1    1    2    0  502 -0.42292269395E+02  0.71634200612E+01 -0.81890762360E+01  0.43868941258E+02  0.41800000000E+01 0. -1.
        -11    1    3    3    0    0 -0.19809096704E+02  0.36809568964E+01 -0.71316264449E+02  0.74107754863E+02  0.00000000000E+00 0. -1.
         11    1    3    3    0    0  0.99723211541E+01 -0.21801347315E+02  0.19063280984E+02  0.30629309751E+02  0.00000000000E+00 0.  1.
</event>
<event>
 7    1  0.5831876E-006  0.1493732E+03  0.7561462E-02  0.1201245E+00
          2   -1    0    0  501    0  0.00000000000E+00  0.00000000000E+00  0.19350788928E+03  0.19350788928E+03  0.00000000000E+00 0. -1.
         -2   -1    0    0    0  501 -0.00000000000E+00 -0.00000000000E+00 -0.25909850869E+03  0.25909850869E+03  0.00000000000E+00 0.  1.
         23    2    1    2    0    0  0.10902049877E+03 -0.61293851963E+02 -0.18351214547E+03  0.24001592534E+03  0.91041372139E+02 0.  0.
          5    1    1    2  502    0 -0.47434780927E+02 -0.25815842958E+02  0.85136334602E+02  0.10090680878E+03  0.41800000000E+01 0.  1.
         -5    1    1    2    0  502 -0.61585717846E+02  0.87109694921E+02  0.32785191461E+02  0.11168366385E+03  0.41800000000E+01 0.  1.
        -11    1    3    3    0    0  0.25135358713E+02  0.10657248759E+02 -0.18319247640E+01  0.27362732998E+02  0.00000000000E+00 0. -1.
         11    1    3    3    0    0  0.83885140060E+02 -0.71951100722E+02 -0.18168022070E+03  0.21265319234E+03  0.00000000000E+00 0.  1.
</event>
<event>
 7    1  0.5831876E-006  0.2136523E+03  0.7561462E-02  0.1138706E+00
         -1   -1    0    0    0  501 -0.00000000000E+00  0.00000000000E+00  0.42613115270E+02  0.42613115270E+02  0.00000000000E+00 0.  1.
          1   -1    0    0  501    0  0.00000000000E+00 -0.00000000000E+00 -0.12425584580E+04  0.12425584580E+04  0.00000000000E+00 0. -1.
         23    2    1    2    0    0  0.12232876387E+03 -0.14913214856E+03 -0.40796964344E+03  0.46050331544E+03  0.91757012597E+02 0.  0.
          5    1    1    2  502    0 -0.28608476936E+02 -0.86532099675E+01 -0.26342057231E+03  0.26514372199E+03  0.41800000000E+01 0. -1.
         -5    1    1    2    0  502 -0.93720286930E+02  0.15778535853E+03 -0.52855512700E+03  0.55952453585E+03  0.41800000000E+01 0. -1.
        -11    1    3    3    0    0  0.92144633281E+02 -0.40220015110E+02 -0.18759197710E+03  0.21283569468E+03  0.00000000000E+00 0.  1.
         11    1    3    3    0    0  0.30184130586E+02 -0.10891213345E+03 -0.22037766634E+03  0.24766762076E+03  0.00000000000E+00 0. -1.
</event>
<event>
 7    1  0.5831876E-006  0.1834379E+03  0.7561462E-02  0.1164517E+00
          4   -1    0    0  501    0  0.00000000000E+00  0.00000000000E+00  0.39836760885E+03  0.39836760885E+03  0.00000000000E+00 0.  1.
         -4   -1    0    0    0  501 -0.00000000000E+00 -0.00000000000E+00 -0.11310710548E+03  0.11310710548E+03  0.00000000000E+00 0. -1.
         23    2    1    2    0    0  0.59291643679E+02  0.14443060087E+03  0.24256123617E+02  0.18261824188E+03  0.91571640036E+02 0.  0.
          5    1    1    2  502    0 -0.81534538062E+02 -0.14141751179E+03  0.17281260599E+03  0.23775715074E+03  0.41800000000E+01 0. -1.
         -5    1    1    2    0  502  0.22242894383E+02 -0.30130890770E+01  0.88191773764E+02  0.91099321710E+02  0.41800000000E+01 0. -1.
        -11    1    3    3    0    0  0.22231592248E+02  0.14187241228E+03  0.23117558733E+02  0.14545255783E+03  0.00000000000E+00 0. -1.
         11    1    3    3    0    0  0.37060051430E+02  0.25581885918E+01  0.11385648846E+01  0.37165684050E+02  0.00000000000E+00 0.  1.
</event>
<event>
 7    1  0.5831876E-006  0.2245124E+03  0.7561462E-02  0.1130563E+00
         -2   -1    0    0    0  501 -0.00000000000E+00  0.00000000000E+00  0.44440005812E+02  0.44440005812E+02  0.00000000000E+00 0.  1.
          2   -1    0    0  501    0  0.00000000000E+00 -0.00000000000E+00 -0.11910222483E+04  0.11910222483E+04  0.00000000000E+00 0. -1.
         23    2    1    2    0    0  0.33668492061E+02 -0.19881812100E+03 -0.59014624558E+03  0.63054005119E+03  0.92983613601E+02 0.  0.
          5    1    1    2  502    0 -0.23609687815E+02  0.21430310565E+03 -0.48063866558E+03  0.52679620130E+03  0.41800000000E+01 0.  1.
         -5    1    1    2    0  502 -0.10058804246E+02 -0.15484984650E+02 -0.75797331339E+02  0.78126001629E+02  0.41800000000E+01 0.  1.
        -11    1    3    3    0    0 -0.11984069557E+02 -0.13741992507E+03 -0.45250520810E+03  0.47306322736E+03  0.00000000000E+00 0.  1.
         11    1    3    3    0    0  0.45652561618E+02 -0.61398195927E+02 -0.13764103748E+03  0.15747682383E+03  0.00000000000E+00 0. -1.
</event>
<event>
 7    1  0.5831876E-006  0.8984081E+02  0.7561462E-02  0.1303238E+00
         -1   -1    0    0    0  501 -0.00000000000E+00  0.00000000000E+00  0.53146892444E+02  0.53146892444E+02  0.00000000000E+00 0.  1.
          1   -1    0    0  501    0  0.00000000000E+00 -0.00000000000E+00 -0.41709540337E+03  0.41709540337E+03  0.00000000000E+00 0. -1.
         23    2    1    2    0    0  0.43983555054E+02  0.18801602904E+02 -0.25128595462E+02  0.10591546888E+03  0.91096579796E+02 0.  0.
          5    1    1    2  502    0 -0.35682476027E+02  0.34150160494E+02 -0.28114459712E+03  0.28548069890E+03  0.41800000000E+01 0.  1.
         -5    1    1    2    0  502 -0.83010790272E+01 -0.52951763397E+02 -0.57675318347E+02  0.78846128036E+02  0.41800000000E+01 0.  1.
        -11    1    3    3    0    0 -0.13752747194E+02  0.11935395241E+02  0.23770291985E+02  0.29943588562E+02  0.00000000000E+00 0.  1.
         11    1    3    3    0    0  0.57736302248E+02  0.68662076625E+01 -0.48898887447E+02  0.75971880314E+02  0.00000000000E+00 0. -1.
</event>
<event>
 7    1  0.5831876E-006  0.7209080E+02  0.7561462E-02  0.1353124E+00
          1   -1    0    0  501    0  0.00000000000E+00  0.00000000000E+00  0.25594750200E+03  0.25594750200E+03  0.00000000000E+00 0. -1.
         -1   -1    0    0    0  501 -0.00000000000E+00 -0.00000000000E+00 -0.61550421193E+02  0.61550421193E+02  0.00000000000E+00 0.  1.
         23    2    1    2    0    0 -0.14724195980E+02 -0.22737639200E+02  0.41893804754E+01  0.88236554577E+02  0.83870951295E+02 0.  0.
          5    1    1    2  502    0 -0.14349348167E+02  0.24822465621E+02  0.19693600225E+03  0.19905607244E+03  0.41800000000E+01 0.  1.
         -5    1    1    2    0  502  0.29073544146E+02 -0.20848264217E+01 -0.67283019195E+01  0.30205296177E+02  0.41800000000E+01 0.  1.
        -11    1    3    3    0    0  0.23665782923E+02  0.18038198492E+02 -0.82265504491E+01  0.30872674301E+02  0.00000000000E+00 0.  1.
         11    1    3    3    0    0 -0.38389978902E+02 -0.40775837692E+02  0.12415930925E+02  0.57363880276E+02  0.00000000000E+00 0. -1.
</event>
<event>
 7    1  0.5831876E-006  0.1052153E+03  0.7561462E-02  0.1269696E+00
         -2   -1    0    0    0  501 -0.00000000000E+00  0.00000000000E+00  0.37111431407E+02  0.37111431407E+02  0.00000000000E+00 0.  1.
          2   -1    0    0  501    0  0.00000000000E+00 -0.00000000000E+00 -0.39477627717E+03  0.39477627717E+03  0.00000000000E+00 0. -1.
         23    2    1    2    0    0  0.11160784623E+01 -0.54534726699E+02 -0.69313218481E+02  0.11287542736E+03  0.70436196641E+02 0.  0.
          5    1    1    2  502    0 -0.28939500297E+02  0.84923517660E+02 -0.23425678185E+03  0.25088485561E+03  0.41800000000E+01 0.  1.
         -5    1    1    2    0  502  0.27823421835E+02 -0.30388790961E+02 -0.54094845422E+02  0.68127425608E+02  0.41800000000E+01 0.  1.
        -11    1    3    3    0    0  0.21733079820E+02 -0.91342909989E+00  0.13644744777E+01  0.21795020115E+02  0.00000000000E+00 0.  1.
         11    1    3    3    0    0 -0.20617001358E+02 -0.53621297599E+02 -0.70677692959E+02  0.91080407241E+02  0.00000000000E+00 0. -1.
</event>
<event>
 7    1  0.5831876E-006  0.1110003E+03  0.7561462E-02  0.1258729E+00
          1   -1    0    0  501    0  0.00000000000E+00  0.00000000000E+00  0.41073107198E+02  0.41073107198E+02  0.00000000000E+00 0. -1.
         -1   -1    0    0    0  501 -0.00000000000E+00 -0.00000000000E+00 -0.40699935163E+03  0.40699935163E+03  0.00000000000E+00 0.  1.
         23    2    1    2    0    0 -0.37197452385E+02 -0.23539265167E+02 -0.25236305193E+03  0.27348177429E+03  0.95746662698E+02 0.  0.
          5    1    1    2  502    0  0.75779566378E+02 -0.15590662880E+02 -0.64893580944E+02  0.10106562570E+03  0.41800000000E+01 0. -1.
         -5    1    1    2    0  502 -0.38582113993E+02  0.39129928048E+02 -0.48669611554E+02  0.73525058843E+02  0.41800000000E+01 0. -1.
        -11    1    3    3    0    0 -0.46142076316E+02 -0.46048634992E+02 -0.23448243066E+03  0.24337538552E+03  0.00000000000E+00 0.  1.
         11    1    3    3    0    0  0.89446239310E+01  0.22509369825E+02 -0.17880621273E+02  0.30106388762E+02  0.00000000000E+00 0. -1.
</event>
<event>
 7    1  0.5831876E-006  0.6953217E+02  0.7561462E-02  0.1361691E+00
          1   -1    0    0  501    0  0.00000000000E+00  0.00000000000E+00  0.12600661897E+03  0.12600661897E+03  0.00000000000E+00 0. -1.
         -1   -1    0    0    0  501 -0.00000000000E+00 -0.00000000000E+00 -0.10285285270E+03  0.10285285270E+03  0.00000000000E+00 0.  1.
         23    2    1    2    0    0 -0.25225667590E+02  0.26002757600E+02  0.67803603128E+01  0.97602289498E+02  0.90375637874E+02 0.  0.
          5    1    1    2  502    0  0.41993958459E+01 -0.25080897333E+02 -0.52842306008E+02  0.58791734460E+02  0.41800000000E+01 0. -1.
         -5    1    1    2    0  502  0.21026271744E+02 -0.92186026621E+00  0.69215711958E+02  0.72465447709E+02  0.41800000000E+01 0. -1.
        -11    1    3    3    0    0 -0.26294708031E+02 -0.27658935186E+02  0.18887605976E+02  0.42581334239E+02  0.00000000000E+00 0. -1.
         11    1    3    3    0    0  0.10690404410E+01  0.53661692785E+02 -0.12107245663E+02  0.55020955259E+02  0.00000000000E+00 0.  1.
</event>
<event>
 7    1  0.5831876E-006  0.1864299E+03  0.7561462E-02  0.1161721E+00
          2   -1    0    0  501    0  0.00000000000E+00  0.00000000000E+00  0.10161353416E+04  0.10161353416E+04  0.00000000000E+00 0. -1.
         -2   -1    0    0    0  501 -0.00000000000E+00 -0.00000000000E+00 -0.43877250784E+02  0.43877250784E+02  0.00000000000E+00 0.  1.
         23    2    1    2    0    0 -0.67762496385E+02  0.14036862409E+03  0.23770666680E+03  0.29875802087E+03  0.91960801686E+02 0.  0.
          5    1    1    2  502    0 -0.24095473892E+02 -0.93099896966E+02  0.33685125211E+03  0.35033472726E+03  0.41800000000E+01 0.  1.
         -5    1    1    2    0  502  0.91857970276E+02 -0.47268727124E+02  0.39770017188E+03  0.41091984423E+03  0.41800000000E+01 0.  1.
        -11    1    3    3    0    0 -0.74749577745E+02  0.69719965096E+02  0.95843812874E+02  0.14012283673E+03  0.00000000000E+00 0.  1.
         11    1    3    3    0    0  0.69870813603E+01  0.70648658994E+02  0.14186285393E+03  0.15863518414E+03  0.00000000000E+00 0. -1.
</event>
<event>
 7    1  0.8539984E-006  0.1580590E+03  0.7561462E-02  0.1190906E+00
         -1   -1    0    0    0  501 -0.00000000000E+00  0.00000000000E+00  0.58526630665E+03  0.58526630665E+03  0.00000000000E+00 0.  1.
          1   -1    0    0  501    0  0.00000000000E+00 -0.00000000000E+00 -0.64547790883E+02  0.64547790883E+02  0.00000000000E+00 0. -1.
         23    2    1    2    0    0 -0.41130655473E+02  0.14974539206E+03  0.31316441114E+03  0.36199181004E+03  0.94078206142E+02 0.  0.
          5    1    1    2  502    0  0.11154200337E+02 -0.25392492934E+02  0.14062567697E+03  0.14339542637E+03  0.41800000000E+01 0.  1.
         -5    1    1    2    0  502  0.29976455136E+02 -0.12435289912E+03  0.66928427661E+02  0.14442686112E+03  0.41800000000E+01 0.  1.
        -11    1    3    3    0    0 -0.20250832584E+02  0.19278228092E+02  0.14731784580E+03  0.14994763749E+03  0.00000000000E+00 0.  1.
         11    1    3    3    0    0 -0.20879822889E+02  0.13046716397E+03  0.16584656535E+03  0.21204417255E+03  0.00000000000E+00 0. -1.
</event>
<event>
 7    1  0.5831876E-006  0.5618793E+02  0.7561462E-02  0.1414563E+00
         -1   -1    0    0    0  501 -0.00000000000E+00  0.00000000000E+00  0.13841041449E+03  0.13841041449E+03  0.00000000000E+00 0.  1.
          1   -1    0    0  501    0  0.00000000000E+00 -0.00000000000E+00 -0.10553699306E+03  0.10553699306E+03  0.00000000000E+00 0. -1.
         23    2    1    2    0    0 -0.27757445153E+02 -0.36768362410E+02  0.41966987524E+02  0.11033558394E+03  0.91051220781E+02 0.  0.
          5    1    1    2  502    0  0.37119647309E+02  0.21482377434E+02  0.53311542319E+02  0.68548914660E+02  0.41800000000E+01 0. -1.
         -5    1    1    2    0  502 -0.93622021559E+01  0.15285984976E+02 -0.62405108408E+02  0.65062908952E+02  0.41800000000E+01 0. -1.
        -11    1    3    3    0    0 -0.26941304531E+02 -0.18707442708E+02 -0.24828211324E+02  0.41136873727E+02  0.00000000000E+00 0. -1.
         11    1    3    3    0    0 -0.81614062162E+00 -0.18060919703E+02  0.66795198847E+02  0.69198710213E+02  0.00000000000E+00 0.  1.
</event>
<event>
 7    1  0.5831876E-006  0.9506833E+02  0.7561462E-02  0.1291022E+00
         -3   -1    0    0    0  501 -0.00000000000E+00  0.00000000000E+00  0.58688198497E+02  0.58688198497E+02  0.00000000000E+00 0.  1.
          3   -1    0    0  501    0  0.00000000000E+00 -0.00000000000E+00 -0.26888152110E+03  0.26888152110E+03  0.00000000000E+00 0. -1.
         23    2    1    2    0    0 -0.29917362938E+02 -0.13930634861E+01  0.28123781135E+01  0.78740384399E+02  0.72767777440E+02 0.  0.
          5    1    1    2  502    0  0.59126576525E+02 -0.32906183671E+02 -0.64469566163E+02  0.93555151309E+02  0.41800000000E+01 0.  1.
         -5    1    1    2    0  502 -0.29209213587E+02  0.34299247157E+02 -0.14853613455E+03  0.15527418389E+03  0.41800000000E+01 0.  1.
        -11    1    3    3    0    0 -0.76984508340E+01  0.34244781773E+02 -0.65679998653E+01  0.35708680263E+02  0.00000000000E+00 0. -1.
         11    1    3    3    0    0 -0.22218912104E+02 -0.35637845259E+02  0.93803779788E+01  0.43031704135E+02  0.00000000000E+00 0.  1.
</event>
<event>
 7    1  0.5831876E-006  0.1031794E+03  0.7561462E-02  0.1273749E+00
         -1   -1    0    0    0  501 -0.00000000000E+00  0.00000000000E+00  0.28626143461E+03  0.28626143461E+03  0.00000000000E+00 0.  1.
          1   -1    0    0  501    0  0.00000000000E+00 -0.00000000000E+00 -0.63813602166E+02  0.63813602166E+02  0.00000000000E+00 0. -1.
         23    2    1    2    0    0  0.23731781108E+02 -0.75662005276E+02  0.85118882713E+02  0.14809666486E+03  0.91648575932E+02 0.  0.
          5    1    1    2  502    0 -0.26127993357E+02  0.84446565689E+02  0.28910129952E+02  0.93097596679E+02  0.41800000000E+01 0.  1.
         -5    1    1    2    0  502  0.23962122490E+01 -0.87845604135E+01  0.10841881978E+03  0.10888077524E+03  0.41800000000E+01 0.  1.
        -11    1    3    3    0    0  0.46178119654E+02 -0.25179338459E+02  0.75504791126E+02  0.92018429148E+02  0.00000000000E+00 0.  1.
         11    1    3    3    0    0 -0.22446338546E+02 -0.50482666817E+02  0.96140915869E+01  0.56078235708E+02  0.00000000000E+00 0. -1.
</event>
<event>
 7    1  0.5831876E-006  0.8110957E+02  0.7561462E-02  0.1325932E+00
         -1   -1    0    0    0  501 -0.00000000000E+00  0.00000000000E+00  0.53226532984E+02  0.53226532984E+02  0.00000000000E+00 0.  1.
          1   -1    0    0  501    0  0.00000000000E+00 -0.00000000000E+00 -0.25176788960E+03  0.25176788960E+03  0.00000000000E+00 0. -1.
         23    2    1    2    0    0  0.81915967615E+01  0.29823617415E+02 -0.43740509487E+02  0.10358084209E+03  0.88652175746E+02 0.  0.
          5    1    1    2  502    0 -0.14645137288E+02 -0.53360473598E+02 -0.16541416749E+03  0.17447389316E+03  0.41800000000E+01 0.  1.
         -5    1    1    2    0  502  0.64535405268E+01  0.23536856184E+02  0.10613320363E+02  0.26939687330E+02  0.41800000000E+01 0.  1.
        -11    1    3    3    0    0  0.17008569985E+02  0.53797945139E+02 -0.42939615106E+01  0.56585761986E+02  0.00000000000E+00 0.  1.
         11    1    3    3    0    0 -0.88169732239E+01 -0.23974327724E+02 -0.39446547976E+02  0.46995080103E+02  0.00000000000E+00 0. -1.
</event>
<event>
 7    1  0.5831876E-006  0.1142144E+03  0.7561462E-02  0.1252959E+00
          3   -1    0    0  501    0  0.00000000000E+00  0.00000000000E+00  0.45397259562E+03  0.45397259562E+03  0.00000000000E+00 0. -1.
         -3   -1    0    0    0  501 -0.00000000000E+00 -0.00000000000E+00 -0.32366479520E+02  0.32366479520E+02  0.00000000000E+00 0.  1.
         23    2    1    2    0    0 -0.35331241220E+02 -0.12946054091E+02  0.16138042981E+03  0.19516813848E+03  0.10310704259E+03 0.  0.
          5    1    1    2  502    0 -0.13346066115E+02  0.55918661002E+02  0.17300311498E+03  0.18235285663E+03  0.41800000000E+01 0.  1.
         -5    1    1    2    0  502  0.48677307335E+02 -0.42972606912E+02  0.87222571310E+02  0.10881808002E+03  0.41800000000E+01 0.  1.
        -11    1    3    3    0    0  0.26898942735E+02 -0.30885934363E+02  0.38233768751E+02  0.56029591598E+02  0.00000000000E+00 0. -1.
         11    1    3    3    0    0 -0.62230183955E+02  0.17939880273E+02  0.12314666106E+03  0.13913854688E+03  0.00000000000E+00 0.  1.
</event>
<event>
 7    1  0.5831876E-006  0.1233576E+03  0.7561462E-02  0.1237659E+00
          2   -1    0    0  501    0  0.00000000000E+00  0.00000000000E+00  0.10076660769E+04  0.10076660769E+04  0.00000000000E+00 0. -1.
         -2   -1    0    0    0  501 -0.00000000000E+00 -0.00000000000E+00 -0.28851758027E+02  0.28851758027E+02  0.00000000000E+00 0.  1.
         23    2    1    2    0    0  0.62028769224E+02 -0.58468516135E+02  0.16138305685E+03  0.20518933066E+03  0.93765850849E+02 0.  0.
          5    1    1    2  502    0  0.34500150228E+02  0.36332494948E+02  0.34183396226E+03  0.34551156379E+03  0.41800000000E+01 0.  1.
         -5    1    1    2    0  502 -0.96528919452E+02  0.22136021186E+02  0.47559729978E+03  0.48581694050E+03  0.41800000000E+01 0.  1.
        -11    1    3    3    0    0  0.11353330227E+02 -0.42789237012E+02  0.10845172031E+02  0.45578884011E+02  0.00000000000E+00 0.  1.
         11    1    3    3    0    0  0.50675438997E+02 -0.15679279123E+02  0.15053788482E+03  0.15961044665E+03  0.00000000000E+00 0. -1.
</event>
<event>
 7    1  0.5831876E-006  0.1040616E+03  0.7561462E-02  0.1271980E+00
          2   -1    0    0  501    0  0.00000000000E+00  0.00000000000E+00  0.73560976614E+03  0.73560976614E+03  0.00000000000E+00 0. -1.
         -2   -1    0    0    0  501 -0.00000000000E+00 -0.00000000000E+00 -0.18092307296E+02  0.18092307296E+02  0.00000000000E+00 0.  1.
         23    2    1    2    0    0 -0.28559594970E+02  0.95845523756E+01  0.22117524768E+03  0.24095384043E+03  0.90734496862E+02 0.  0.
          5    1    1    2  502    0  0.64882282453E+02  0.23782008816E+02  0.18565704984E+03  0.19814466199E+03  0.41800000000E+01 0.  1.
         -5    1    1    2    0  502 -0.36322687483E+02 -0.33366561191E+02  0.31068516132E+03  0.31460357101E+03  0.41800000000E+01 0.  1.
        -11    1    3    3    0    0 -0.42154353042E+01  0.45670580649E+02  0.70412404399E+02  0.84032603940E+02  0.00000000000E+00 0.  1.
         11    1    3    3    0    0 -0.24344159666E+02 -0.36086028273E+02  0.15076284328E+03  0.15692123649E+03  0.00000000000E+00 0. -1.
</event>
<event>
 7    1  0.5831876E-006  0.1273301E+03  0.7561462E-02  0.1231472E+00
          1   -1    0    0  501    0  0.00000000000E+00  0.00000000000E+00  0.33129276560E+03  0.33129276560E+03  0.00000000000E+00 0. -1.
         -1   -1    0    0    0  501 -0.00000000000E+00 -0.00000000000E+00 -0.49372390607E+02  0.49372390607E+02  0.00000000000E+00 0.  1.
         23    2    1    2    0    0 -0.65112236082E+02 -0.16237056039E+01  0.11168205270E+03  0.15959766055E+03  0.93575064267E+02 0.  0.
          5    1    1    2  502    0  0.63936758167E+02  0.56614769042E+02  0.95604196834E+02  0.12826057840E+03  0.41800000000E+01 0. -1.
         -5    1    1    2    0  502  0.11754779148E+01 -0.54991063438E+02  0.74634125459E+02  0.92806917250E+02  0.41800000000E+01 0. -1.
        -11    1    3    3    0    0  0.50972000968E+01  0.34613259804E+02  0.35482737880E+02  0.49830551779E+02  0.00000000000E+00 0.  1.
         11    1    3    3    0    0 -0.70209436179E+02 -0.36236965408E+02  0.76199314816E+02  0.10976710878E+03  0.00000000000E+00 0. -1.
</event>
<event>
 7    1  0.5831876E-006  0.1701730E+03  0.7561462E-02  0.1177668E+00
          4   -1    0    0  501    0  0.00000000000E+00  0.00000000000E+00  0.71699419977E+03  0.71699419977E+03  0.00000000000E+00 0.  1.
         -4   -1    0    0    0  501 -0.00000000000E+00 -0.00000000000E+00 -0.54075993472E+02  0.54075993472E+02  0.00000000000E+00 0. -1.
         23    2    1    2    0    0  0.11381493399E+03 -0.75904347780E+02  0.13502727898E+03  0.21157767577E+03  0.88416274540E+02 0.  0.
          5    1    1    2  502    0 -0.14624632941E+02  0.82443433858E+02  0.28318048614E+03  0.29532940898E+03  0.41800000000E+01 0. -1.
         -5    1    1    2    0  502 -0.99190301050E+02 -0.65390860783E+01  0.24471044118E+03  0.26416310850E+03  0.41800000000E+01 0. -1.
        -11    1    3    3    0    0  0.78258258734E+02 -0.89555369868E+02  0.75379156273E+02  0.14080673469E+03  0.00000000000E+00 0. -1.
         11    1    3    3    0    0  0.35556675257E+02  0.13651022088E+02  0.59648122706E+02  0.70770941083E+02  0.00000000000E+00 0.  1.
</event>
<event>
 7    1  0.5831876E-006  0.1486446E+03  0.7561462E-02  0.1202149E+00
         -1   -1    0    0    0  501 -0.00000000000E+00  0.00000000000E+00  0.27775626697E+03  0.27775626697E+03  0.00000000000E+00 0.  1.
          1   -1    0    0  501    0  0.00000000000E+00 -0.00000000000E+00 -0.98884834490E+02  0.98884834490E+02  0.00000000000E+00 0. -1.
         23    2    1    2    0    0 -0.11892577720E+03 -0.33750124777E+01  0.12590508329E+03  0.19606067776E+03  0.91831193911E+02 0.  0.
          5    1    1    2  502    0 -0.20953288001E+02  0.11069416192E+02 -0.11074417907E+02  0.26489382493E+02  0.41800000000E+01 0. -1.
         -5    1    1    2    0  502  0.13987906520E+03 -0.76944037143E+01  0.64040767098E+02  0.15409104121E+03  0.41800000000E+01 0. -1.
        -11    1    3    3    0    0 -0.43885399901E+02 -0.30320913439E+02  0.98019058649E+02  0.11159310899E+03  0.00000000000E+00 0.  1.
         11    1    3    3    0    0 -0.75040377296E+02  0.26945900962E+02  0.27886024639E+02  0.84467568768E+02  0.00000000000E+00 0. -1.
</event>
<event>
 7    1  0.5831876E-006  0.1096343E+03  0.7561462E-02  0.1261249E+00
          2   -1    0    0  501    0  0.00000000000E+00  0.00000000000E+00  0.11653774304E+03  0.11653774304E+03  0.00000000000E+00 0. -1.
         -2   -1    0    0    0  501 -0.00000000000E+00 -0.00000000000E+00 -0.14912749877E+03  0.14912749877E+03  0.00000000000E+00 0.  1.
         23    2    1    2    0    0  0.21896192271E+01 -0.58040754072E+02 -0.62451800475E+02  0.12455251773E+03  0.90772125263E+02 0.  0.
          5    1    1    2  502    0 -0.95526447738E+01  0.84438344014E+02 -0.16908461805E+02  0.86743619031E+02  0.41800000000E+01 0.  1.
         -5    1    1    2    0  502  0.73630255466E+01 -0.26397589941E+02  0.46770506558E+02  0.54369105047E+02  0.41800000000E+01 0.  1.
        -11    1    3    3    0    0 -0.10811236937E+02  0.22458044751E+02 -0.23215595251E+02  0.34061862559E+02  0.00000000000E+00 0.  1.
         11    1    3    3    0    0  0.13000856164E+02 -0.80498798823E+02 -0.39236205224E+02  0.90490655171E+02  0.00000000000E+00 0. -1.
</event>
<event>
 7    1  0.5831876E-006  0.1308869E+03  0.7561462E-02  0.1226146E+00
         -2   -1    0    0    0  501 -0.00000000000E+00  0.00000000000E+00  0.17718218260E+03  0.17718218260E+03  0.00000000000E+00 0.  1.
          2   -1    0    0  501    0  0.00000000000E+00 -0.00000000000E+00 -0.12145315069E+04  0.12145315069E+04  0.00000000000E+00 0. -1.
         23    2    1    2    0    0 -0.12839961926E+02  0.26004144726E+02  0.15706481329E+03  0.18465540696E+03  0.92667057684E+02 0.  0.
          5    1    1    2  502    0  0.88950071079E+02 -0.18807130220E+02 -0.47992057756E+03  0.48847421268E+03  0.41800000000E+01 0. -1.
         -5    1    1    2    0  502 -0.76110109153E+02 -0.71970145059E+01 -0.71449356005E+03  0.71858406988E+03  0.41800000000E+01 0.  1.
        -11    1    3    3    0    0  0.63603481446E+00 -0.33338086314E+02  0.35462891043E+02  0.48676988203E+02  0.00000000000E+00 0. -1.
         11    1    3    3    0    0 -0.13475996740E+02  0.59342231040E+02  0.12160192225E+03  0.13597841876E+03  0.00000000000E+00 0.  1.
</event>
<event>
 7    1  0.5831876E-006  0.1368082E+03  0.7561462E-02  0.1217689E+00
          2   -1    0    0  501    0  0.00000000000E+00  0.00000000000E+00  0.10084192477E+03  0.10084192477E+03  0.00000000000E+00 0. -1.
         -2   -1    0    0    0  501 -0.00000000000E+00 -0.00000000000E+00 -0.28941728718E+03  0.28941728718E+03  0.00000000000E+00 0.  1.
         23    2    1    2    0    0 -0.11688521858E+02 -0.11265410664E+03 -0.16427783382E+03  0.21977622146E+03  0.92123892393E+02 0.  0.
          5    1    1    2  502    0 -0.40765669640E+02  0.86058927585E+02  0.19177843019E+02  0.97227778443E+02  0.41800000000E+01 0.  1.
         -5    1    1    2    0  502  0.52454191497E+02  0.26595179051E+02 -0.43475371613E+02  0.73255212042E+02  0.41800000000E+01 0.  1.
        -11    1    3    3    0    0  0.21353066442E+01 -0.10164493757E+03 -0.17254202445E+03  0.20026732901E+03  0.00000000000E+00 0.  1.
         11    1    3    3    0    0 -0.13823828502E+02 -0.11009169062E+02  0.82641906272E+01  0.19508892450E+02  0.00000000000E+00 0. -1.
</event>
<event>
 7    1  0.5831876E-006  0.1189526E+03  0.7561462E-02  0.1244835E+00
         -2   -1    0    0    0  501 -0.00000000000E+00  0.00000000000E+00  0.97045590416E+02  0.97045590416E+02  0.00000000000E+00 0.  1.
          2   -1    0    0  501    0  0.00000000000E+00 -0.00000000000E+00 -0.20622738340E+03  0.20622738340E+03  0.00000000000E+00 0. -1.
         23    2    1    2    0    0  0.47729792015E+02  0.50776378564E+02  0.11322023455E+02  0.11612653051E+03  0.92199833017E+02 0.  0.
          5    1    1    2  502    0 -0.74846923154E+01  0.41130193837E+02 -0.27047103267E+02  0.49967305903E+02  0.41800000000E+01 0.  1.
         -5    1    1    2    0  502 -0.40245099699E+02 -0.91906572401E+02 -0.93456713174E+02  0.13717913740E+03  0.41800000000E+01 0.  1.
        -11    1    3    3    0    0  0.50254816172E+02  0.59851994223E+01  0.38575183292E+02  0.63635005513E+02  0.00000000000E+00 0.  1.
         11    1    3    3    0    0 -0.25250241572E+01  0.44791179142E+02 -0.27253159837E+02  0.52491525002E+02  0.00000000000E+00 0. -1.
</event>
<event>
 7    1  0.5831876E-006  0.1083559E+03  0.7561462E-02  0.1263645E+00
          2   -1    0    0  501    0  0.00000000000E+00  0.00000000000E+00  0.16677977416E+04  0.16677977416E+04  0.00000000000E+00 0. -1.
         -2   -1    0    0    0  501 -0.00000000000E+00 -0.00000000000E+00 -0.17559591515E+02  0.17559591515E+02  0.00000000000E+00 0.  1.
         23    2    1    2    0    0  0.73977484197E+02  0.33454410303E+01  0.23898746715E+03  0.26652092418E+03  0.91839715957E+02 0.  0.
          5    1    1    2  502    0 -0.85503634996E+02 -0.72486788116E+01  0.13969889099E+04  0.13996281298E+04  0.41800000000E+01 0. -1.
         -5    1    1    2    0  502  0.11526150799E+02  0.39032377813E+01  0.14261773051E+02  0.19208279152E+02  0.41800000000E+01 0.  1.
        -11    1    3    3    0    0  0.84782273177E+02  0.29393196665E+02  0.18488378214E+03  0.20550914031E+03  0.00000000000E+00 0.  1.
         11    1    3    3    0    0 -0.10804788980E+02 -0.26047755635E+02  0.54103685017E+02  0.61011783870E+02  0.00000000000E+00 0. -1.
</event>
<event>
 7    1  0.5831876E-006  0.1206032E+03  0.7561462E-02  0.1242105E+00
         -1   -1    0    0    0  501 -0.00000000000E+00  0.00000000000E+00  0.35837171664E+03  0.35837171664E+03  0.00000000000E+00 0.  1.
          1   -1    0    0  501    0  0.00000000000E+00 -0.00000000000E+00 -0.57577714298E+02  0.57577714298E+02  0.00000000000E+00 0. -1.
         23    2    1    2    0    0 -0.70614480369E+02  0.59035430915E+02  0.17465445423E+03  0.21587352677E+03  0.87324763029E+02 0.  0.
          5    1    1    2  502    0  0.87612512201E+02 -0.59572992466E+02  0.14147483954E+03  0.17679789690E+03  0.41800000000E+01 0. -1.
         -5    1    1    2    0  502 -0.16998031832E+02  0.53756155152E+00 -0.15335291434E+02  0.23278007259E+02  0.41800000000E+01 0. -1.
        -11    1    3    3    0    0 -0.78196880303E+02  0.23970436042E+02  0.78995285888E+02  0.11370835099E+03  0.00000000000E+00 0. -1.
         11    1    3    3    0    0  0.75823999340E+01  0.35064994873E+02  0.95659168341E+02  0.10216517578E+03  0.00000000000E+00 0.  1.
</event>
<event>
 7    1  0.5831876E-006  0.1144068E+03  0.7561462E-02  0.1252620E+00
          2   -1    0    0  501    0  0.00000000000E+00  0.00000000000E+00  0.13288411040E+03  0.13288411040E+03  0.00000000000E+00 0. -1.
         -2   -1    0    0    0  501 -0.00000000000E+00 -0.00000000000E+00 -0.15587110343E+03  0.15587110343E+03  0.00000000000E+00 0.  1.
         23    2    1    2    0    0 -0.87246404209E+02  0.20019711485E+02 -0.55608775026E+02  0.13977869832E+03  0.91831501941E+02 0.  0.
          5    1    1    2  502    0  0.50160367071E+02  0.16601692508E+02  0.67724756544E+02  0.85998800386E+02  0.41800000000E+01 0. -1.
         -5    1    1    2    0  502  0.37086037138E+02 -0.36621403992E+02 -0.35102974542E+02  0.62977715127E+02  0.41800000000E+01 0.  1.
        -11    1    3    3    0    0 -0.95274571069E+02  0.38975848141E+02 -0.30607301176E+02  0.10739258594E+03  0.00000000000E+00 0.  1.
         11    1    3    3    0    0  0.80281668599E+01 -0.18956136656E+02 -0.25001473851E+02  0.32386112375E+02  0.00000000000E+00 0. -1.
</event>
<event>
 7    1  0.7964544E-006  0.1526093E+03  0.7561462E-02  0.1197303E+00
          4   -1    0    0  501    0  0.00000000000E+00  0.00000000000E+00  0.61655225439E+02  0.61655225439E+02  0.00000000000E+00 0.  1.
         -4   -1    0    0    0  501 -0.00000000000E+00 -0.00000000000E+00 -0.44867083540E+03  0.44867083540E+03  0.00000000000E+00 0. -1.
         23    2    1    2    0    0 -0.10744997920E+03 -0.71922099777E+02 -0.17022831145E+03  0.22861244822E+03  0.81041267220E+02 0.  0.
          5    1    1    2  502    0  0.11608214894E+03  0.44980465670E+02 -0.22012209714E+03  0.25292195959E+03  0.41800000000E+01 0. -1.
         -5    1    1    2    0  502 -0.86321697365E+01  0.26941634107E+02  0.33347986226E+01  0.28791653036E+02  0.41800000000E+01 0. -1.
        -11    1    3    3    0    0 -0.79698587062E+02 -0.89003168096E+02 -0.14129645446E+03  0.18503544729E+03  0.00000000000E+00 0. -1.
         11    1    3    3    0    0 -0.27751392143E+02  0.17081068319E+02 -0.28931856989E+02  0.43577000925E+02  0.00000000000E+00 0.  1.
</event>
<event>
 7    1  0.5831876E-006  0.1161170E+03  0.7561462E-02  0.1249644E+00
         -1   -1    0    0    0  501 -0.00000000000E+00  0.00000000000E+00  0.14163056579E+03  0.14163056579E+03  0.00000000000E+00 0.  1.
          1   -1    0    0  501    0  0.00000000000E+00 -0.00000000000E+00 -0.11663275703E+03  0.11663275703E+03  0.00000000000E+00 0. -1.
         23    2    1    2    0    0 -0.34535988703E+02 -0.45469121174E+02  0.21936791896E+02  0.12072593136E+03  0.10408339045E+03 0.  0.
          5    1    1    2  502    0 -0.19780651634E+02 -0.26873082515E+02  0.27829822724E+02  0.43650981384E+02  0.41800000000E+01 0. -1.
         -5    1    1    2    0  502  0.54316640337E+02  0.72342203689E+02 -0.24768805864E+02  0.93886410071E+02  0.41800000000E+01 0. -1.
        -11    1    3    3    0    0 -0.17088409152E+02  0.27851882682E+02 -0.15960650693E+02  0.36365965776E+02  0.00000000000E+00 0. -1.
         11    1    3    3    0    0 -0.17447579550E+02 -0.73321003856E+02  0.37897442589E+02  0.84359965585E+02  0.00000000000E+00 0.  1.
</event>
<event>
 7    1  0.5831876E-006  0.7977879E+02  0.7561462E-02  0.1329680E+00
          2   -1    0    0  501    0  0.00000000000E+00  0.00000000000E+00  0.70630143372E+03  0.70630143372E+03  0.00000000000E+00 0. -1.
         -2   -1    0    0    0  501 -0.00000000000E+00 -0.00000000000E+00 -0.20493070613E+02  0.20493070613E+02  0.00000000000E+00 0.  1.
         23    2    1    2    0    0  0.10139987508E+02 -0.39656356212E+02  0.18711588519E+03  0.21102541576E+03  0.88565939679E+02 0.  0.
          5    1    1    2  502    0 -0.25284916364E+02 -0.83042527472E+01  0.17921547086E+02  0.32356480946E+02  0.41800000000E+01 0.  1.
         -5    1    1    2    0  502  0.15144928856E+02  0.47960608959E+02  0.48077093083E+03  0.48341260762E+03  0.41800000000E+01 0.  1.
        -11    1    3    3    0    0 -0.18109882131E+02 -0.49123383040E+02  0.56390462255E+02  0.76947766864E+02  0.00000000000E+00 0.  1.
         11    1    3    3    0    0  0.28249869640E+02  0.94670268276E+01  0.13072542294E+03  0.13407764890E+03  0.00000000000E+00 0. -1.
</event>
<event>
 7    1  0.5831876E-006  0.1132964E+03  0.7561462E-02  0.1254584E+00
          1   -1    0    0  501    0  0.00000000000E+00  0.00000000000E+00  0.34654100600E+03  0.34654100600E+03  0.00000000000E+00 0. -1.
         -1   -1    0    0    0  501 -0.00000000000E+00 -0.00000000000E+00 -0.54429830066E+02  0.54429830066E+02  0.00000000000E+00 0.  1.
         23    2    1    2    0    0  0.32200857040E+02  0.76271782328E+02  0.11984004737E+03  0.17254080184E+03  0.92490060941E+02 0.  0.
          5    1    1    2  502    0  0.27940953391E+02 -0.77634633473E+02  0.64024764617E+02  0.10452021850E+03  0.41800000000E+01 0.  1.
         -5    1    1    2    0  502 -0.60141810431E+02  0.13628511452E+01  0.10824636395E+03  0.12390981573E+03  0.41800000000E+01 0.  1.
        -11    1    3    3    0    0  0.22362509858E+02  0.37382997731E+02 -0.26578691334E+01  0.43642119962E+02  0.00000000000E+00 0.  1.
         11    1    3    3    0    0  0.98383471823E+01  0.38888784597E+02  0.12249791650E+03  0.12889868188E+03  0.00000000000E+00 0. -1.
</event>
<event>
 7    1  0.5831876E-006  0.1802801E+03  0.7561462E-02  0.1167532E+00
          1   -1    0    0  501    0  0.00000000000E+00  0.00000000000E+00  0.95356992638E+03  0.95356992638E+03  0.00000000000E+00 0. -1.
         -1   -1    0    0    0  501 -0.00000000000E+00 -0.00000000000E+00 -0.10547044980E+03  0.10547044980E+03  0.00000000000E+00 0.  1.
         23    2    1    2    0    0 -0.11549743351E+03  0.12892270889E+03  0.14479551885E+02  0.19631310851E+03  0.91479271625E+02 0.  0.
          5    1    1    2  502    0  0.11362699630E+03 -0.11943383399E+03  0.83584691037E+03  0.85195837044E+03  0.41800000000E+01 0. -1.
         -5    1    1    2    0  502  0.18704372155E+01 -0.94888749003E+01 -0.22269856717E+01  0.10768897225E+02  0.41800000000E+01 0.  1.
        -11    1    3    3    0    0  0.38633099867E+01  0.29570568770E+02 -0.21668028797E+02  0.36862544315E+02  0.00000000000E+00 0.  1.
         11    1    3    3    0    0 -0.11936074350E+03  0.99352140119E+02  0.36147580682E+02  0.15945056420E+03  0.00000000000E+00 0. -1.
</event>
<event>
 7    1  0.5831876E-006  0.1008831E+03  0.7561462E-02  0.1278450E+00
         -1   -1    0    0    0  501 -0.00000000000E+00  0.00000000000E+00  0.45570119578E+02  0.45570119578E+02  0.00000000000E+00 0.  1.
          1   -1    0    0  501    0  0.00000000000E+00 -0.00000000000E+00 -0.33661171941E+03  0.33661171941E+03  0.00000000000E+00 0. -1.
         23    2    1    2    0    0 -0.35687493022E+02  0.88761526663E+01 -0.64352319423E+02  0.12067070769E+03  0.95225077766E+02 0.  0.
          5    1    1    2  502    0  0.21523653815E+02 -0.62223524917E+02 -0.74211693270E+02  0.99296941265E+02  0.41800000000E+01 0.  1.
         -5    1    1    2    0  502  0.14163839208E+02  0.53347372250E+02 -0.15247758714E+03  0.16221419003E+03  0.41800000000E+01 0.  1.
        -11    1    3    3    0    0  0.21515346846E+02 -0.38000843957E+01  0.11607036066E+02  0.24740130913E+02  0.00000000000E+00 0.  1.
         11    1    3    3    0    0 -0.57202839869E+02  0.12676237062E+02 -0.75959355489E+02  0.95930576780E+02  0.00000000000E+00 0. -1.
</event>
<event>
 7    1  0.5831876E-006  0.9846996E+02  0.7561462E-02  0.1283547E+00
          1   -1    0    0  501    0  0.00000000000E+00  0.00000000000E+00  0.62318601886E+02  0.62318601886E+02  0.00000000000E+00 0. -1.
         -1   -1    0    0    0  501 -0.00000000000E+00 -0.00000000000E+00 -0.29054778198E+03  0.29054778198E+03  0.00000000000E+00 0.  1.
         23    2    1    2    0    0  0.14489635581E+02 -0.20855011296E+02 -0.20075292653E+03  0.22094451273E+03  0.88712226654E+02 0.  0.
          5    1    1    2  502    0 -0.57464098813E+02  0.32628013199E+02 -0.48892193396E+02  0.82308133697E+02  0.41800000000E+01 0. -1.
         -5    1    1    2    0  502  0.42974463232E+02 -0.11773001903E+02  0.21415939834E+02  0.49613737441E+02  0.41800000000E+01 0.  1.
        -11    1    3    3    0    0  0.76412600304E+01  0.31886319924E+02 -0.40572663829E+02  0.52165767543E+02  0.00000000000E+00 0. -1.
         11    1    3    3    0    0  0.68483755503E+01 -0.52741331220E+02 -0.16018026270E+03  0.16877874519E+03  0.00000000000E+00 0.  1.
</event>
<event>
 7    1  0.5831876E-006  0.9884473E+02  0.7561462E-02  0.1282744E+00
         -1   -1    0    0    0  501 -0.00000000000E+00  0.00000000000E+00  0.14569872240E+02  0.14569872240E+02  0.00000000000E+00 0.  1.
          1   -1    0    0  501    0  0.00000000000E+00 -0.00000000000E+00 -0.10190387495E+04  0.10190387495E+04  0.00000000000E+00 0. -1.
         23    2    1    2    0    0 -0.50201315803E+01  0.48234851646E+02 -0.46726606059E+03  0.47990649385E+03  0.98086027687E+02 0.  0.
          5    1    1    2  502    0  0.37822831907E+02 -0.38106082710E+02 -0.88002554980E+02  0.10317248779E+03  0.41800000000E+01 0.  1.
         -5    1    1    2    0  502 -0.32802700327E+02 -0.10128768936E+02 -0.44920026169E+03  0.45052964010E+03  0.41800000000E+01 0.  1.
        -11    1    3    3    0    0 -0.91726931699E+01 -0.29762807559E+02 -0.14549110112E+03  0.14878717525E+03  0.00000000000E+00 0.  1.
         11    1    3    3    0    0  0.41525615896E+01  0.77997659205E+02 -0.32177495947E+03  0.33111931860E+03  0.00000000000E+00 0. -1.
</event>
<event>
 7    1  0.5831876E-006  0.1337367E+03  0.7561462E-02  0.1222014E+00
         -2   -1    0    0    0  501 -0.00000000000E+00  0.00000000000E+00  0.42997236466E+02  0.42997236466E+02  0.00000000000E+00 0.  1.
          2   -1    0    0  501    0  0.00000000000E+00 -0.00000000000E+00 -0.55872376884E+03  0.55872376884E+03  0.00000000000E+00 0. -1.
         23    2    1    2    0    0  0.74493113179E+02 -0.73045414393E+02 -0.16391345637E+03  0.21402891888E+03  0.89754668195E+02 0.  0.
          5    1    1    2  502    0 -0.17004368697E+02  0.98320748849E+02 -0.22176281190E+03  0.24321253124E+03  0.41800000000E+01 0.  1.
         -5    1    1    2    0  502 -0.57488744482E+02 -0.25275334456E+02 -0.13005026410E+03  0.14447955519E+03  0.41800000000E+01 0.  1.
        -11    1    3    3    0    0  0.43758642358E+02 -0.48593722391E+02 -0.25562142717E+02  0.70211051673E+02  0.00000000000E+00 0.  1.
         11    1    3    3    0    0  0.30734470821E+02 -0.24451692002E+02 -0.13835131365E+03  0.14381786720E+03  0.00000000000E+00 0. -1.
</event>
<event>
 7    1  0.5831876E-006  0.1137435E+03  0.7561462E-02  0.1253791E+00
          2   -1    0    0  501    0  0.00000000000E+00  0.00000000000E+00  0.24791223780E+04  0.24791223780E+04  0.00000000000E+00 0. -1.
         -2   -1    0    0    0  501 -0.00000000000E+00 -0.00000000000E+00 -0.84607234921E+01  0.84607234921E+01  0.00000000000E+00 0.  1.
         23    2    1    2    0    0 -0.45278359446E+02 -0.63520689785E+01  0.40442570495E+03  0.41705942453E+03  0.91038091761E+02 0.  0.
          5    1    1    2  502    0 -0.38662627651E+02  0.23340208058E+02  0.55094290414E+03  0.55280658472E+03  0.41800000000E+01 0. -1.
         -5    1    1    2    0  502  0.83940987097E+02 -0.16988139080E+02  0.15152930454E+04  0.15177170922E+04  0.41800000000E+01 0. -1.
        -11    1    3    3    0    0  0.22645988390E+02  0.12538405272E+02  0.57728193090E+02  0.63266078387E+02  0.00000000000E+00 0.  1.
         11    1    3    3    0    0 -0.67924347837E+02 -0.18890474251E+02  0.34669751186E+03  0.35379334615E+03  0.00000000000E+00 0. -1.
</event>
<event>
 6    1  0.5831876E-006  0.1526520E+03  0.7561462E-02  0.1197252E+00
          2   -1    0    0  501    0  0.00000000000E+00  0.00000000000E+00  0.93064233801E+02  0.93064233801E+02  0.00000000000E+00 0. -1.
         -2   -1    0    0    0  501 -0.00000000000E+00 -0.00000000000E+00 -0.30965083734E+03  0.30965083734E+03  0.00000000000E+00 0.  1.
          5    1    1    2  502    0 -0.48114425274E+02  0.19824052621E+02  0.19578159433E+02  0.55756324382E+02  0.41800000000E+01 0. -1.
         -5    1    1    2    0  502 -0.86093178712E+02 -0.58541672303E+02 -0.11306691134E+03  0.15375552561E+03  0.41800000000E+01 0. -1.
        -11    1    1    2    0    0  0.77433232913E+02 -0.44806186836E+01 -0.65109584167E+02  0.10126815617E+03  0.00000000000E+00 0.  1.
         11    1    1    2    0    0  0.56774371073E+02  0.43198238366E+02 -0.57988267463E+02  0.91935064975E+02  0.00000000000E+00 0. -1.
</event>
<event>
 7    1  0.5831876E-006  0.8325889E+02  0.7561462E-02  0.1320050E+00
         -1   -1    0    0    0  501 -0.00000000000E+00  0.00000000000E+00  0.19649684329E+02  0.19649684329E+02  0.00000000000E+00 0.  1.
          1   -1    0    0  501    0  0.00000000000E+00 -0.00000000000E+00 -0.76674483064E+03  0.76674483064E+03  0.00000000000E+00 0. -1.
         23    2    1    2    0    0 -0.24698822512E+02  0.17242887105E+02 -0.14227183487E+03  0.17073547716E+03  0.89453782332E+02 0.  0.
          5    1    1    2  502    0 -0.28430705572E+02  0.31568167878E+02 -0.21662002306E+03  0.22078623379E+03  0.41800000000E+01 0. -1.
         -5    1    1    2    0  502  0.53129528085E+02 -0.48811054982E+02 -0.38820328839E+03  0.39487280402E+03  0.41800000000E+01 0.  1.
        -11    1    3    3    0    0  0.53471203908E+00 -0.12525178396E+02  0.84009670959E+01  0.15091131799E+02  0.00000000000E+00 0.  1.
         11    1    3    3    0    0 -0.25233534552E+02  0.29768065501E+02 -0.15067280197E+03  0.15564434536E+03  0.00000000000E+00 0. -1.
</event>
<event>
 7    1  0.5831876E-006  0.1084784E+03  0.7561462E-02  0.1263414E+00
         -1   -1    0    0    0  501 -0.00000000000E+00  0.00000000000E+00  0.20978881521E+02  0.20978881521E+02  0.00000000000E+00 0.  1.
          1   -1    0    0  501    0  0.00000000000E+00 -0.00000000000E+00 -0.19970348902E+04  0.19970348902E+04  0.00000000000E+00 0. -1.
         23    2    1    2    0    0  0.41793036143E+02 -0.74092476225E+02 -0.23541088539E+03  0.27080564071E+03  0.10334920019E+03 0.  0.
          5    1    1    2  502    0 -0.11260897517E+02 -0.24738532411E+02 -0.11392424959E+03  0.11719645833E+03  0.41800000000E+01 0. -1.
         -5    1    1    2    0  502 -0.30532138625E+02  0.98831008636E+02 -0.16267208737E+04  0.16300116727E+04  0.41800000000E+01 0. -1.
        -11    1    3    3    0    0  0.22894461533E+02 -0.28354432619E+02 -0.70186337483E+01  0.37113224566E+02  0.00000000000E+00 0.  1.
         11    1    3    3    0    0  0.18898574610E+02 -0.45738043606E+02 -0.22839225164E+03  0.23369241615E+03  0.00000000000E+00 0. -1.
</event>
<event>
 6    1  0.5831876E-006  0.7305514E+02  0.7561462E-02  0.1350002E+00
          2   -1    0    0  501    0  0.00000000000E+00  0.00000000000E+00  0.39073064121E+03  0.39073064121E+03  0.00000000000E+00 0. -1.
         -2   -1    0    0    0  501 -0.00000000000E+00 -0.00000000000E+00 -0.23884326884E+02  0.23884326884E+02  0.00000000000E+00 0.  1.
          5    1    1    2  502    0  0.18212751584E+00  0.52696264119E+02  0.24440094390E+03  0.25005244090E+03  0.41800000000E+01 0.  1.
         -5    1    1    2    0  502 -0.19564266603E+02 -0.50200563946E+02  0.66856595464E+02  0.85965888033E+02  0.41800000000E+01 0.  1.
        -11    1    1    2    0    0  0.23996321017E+02  0.99175640821E+01  0.51791657927E+01  0.26476503885E+02  0.00000000000E+00 0.  1.
         11    1    1    2    0    0 -0.46141819290E+01 -0.12413264255E+02  0.50409609172E+02  0.52120135276E+02  0.00000000000E+00 0. -1.
</event>
<event>
 7    1  0.5831876E-006  0.9463249E+02  0.7561462E-02  0.1292006E+00
         -1   -1    0    0    0  501 -0.00000000000E+00  0.00000000000E+00  0.32257504288E+03  0.32257504288E+03  0.00000000000E+00 0.  1.
          1   -1    0    0  501    0  0.00000000000E+00 -0.00000000000E+00 -0.39902495665E+02  0.39902495665E+02  0.00000000000E+00 0. -1.
         23    2    1    2    0    0  0.20844997074E+02  0.66008196385E+01  0.15381534109E+03  0.18156470380E+03  0.93960086142E+02 0.  0.
          5    1    1    2  502    0 -0.49459909423E+02 -0.37026787659E+02  0.12406848969E+03  0.13866408396E+03  0.41800000000E+01 0.  1.
         -5    1    1    2    0  502  0.28614912349E+02  0.30425968021E+02  0.47887164380E+01  0.42248750797E+02  0.41800000000E+01 0.  1.
        -11    1    3    3    0    0 -0.27191033427E+02  0.21938697324E+02  0.24239851775E+02  0.42523277780E+02  0.00000000000E+00 0.  1.
         11    1    3    3    0    0  0.48036030500E+02 -0.15337877685E+02  0.12957548931E+03  0.13904142602E+03  0.00000000000E+00 0. -1.
</event>
<event>
 7    1  0.5831876E-006  0.1231941E+03  0.7561462E-02  0.1237919E+00
          2   -1    0    0  501    0  0.00000000000E+00  0.00000000000E+00  0.89949927530E+03  0.89949927530E+03  0.00000000000E+00 0. -1.
         -2   -1    0    0    0  501 -0.00000000000E+00 -0.00000000000E+00 -0.66054414939E+02  0.66054414939E+02  0.00000000000E+00 0.  1.
         23    2    1    2    0    0 -0.71497533583E+02  0.79962106223E+02  0.28861946875E+02  0.14426964035E+03  0.92059119097E+02 0.  0.
          5    1    1    2  502    0  0.20326908322E+02 -0.45513892332E+02  0.81944500583E+02  0.96005578864E+02  0.41800000000E+01 0.  1.
         -5    1    1    2    0  502  0.51170625261E+02 -0.34448213890E+02  0.72263841290E+03  0.72527847103E+03  0.41800000000E+01 0.  1.
        -11    1    3    3    0    0 -0.83195547549E+02  0.38894732885E+02  0.39951777512E+02  0.10015210384E+03  0.00000000000E+00 0. -1.
         11    1    3    3    0    0  0.11698013967E+02  0.41067373337E+02 -0.11089830637E+02  0.44117536504E+02  0.00000000000E+00 0.  1.
</event>
<event>
 7    1  0.5831876E-006  0.9225079E+02  0.7561462E-02  0.1297491E+00
          2   -1    0    0  501    0  0.00000000000E+00  0.00000000000E+00  0.83632023825E+03  0.83632023825E+03  0.00000000000E+00 0. -1.
         -2   -1    0    0    0  501 -0.00000000000E+00 -0.00000000000E+00 -0.19232337918E+02  0.19232337918E+02  0.00000000000E+00 0.  1.
         23    2    1    2    0    0 -0.86168847409E+01 -0.29834218331E+02  0.22996233900E+03  0.24963971843E+03  0.92048793423E+02 0.  0.
          5    1    1    2  502    0 -0.27074091605E+02  0.42530784088E+02  0.55126724749E+03  0.55358371055E+03  0.41800000000E+01 0. -1.
         -5    1    1    2    0  502  0.35690976346E+02 -0.12696565758E+02  0.35858313848E+02  0.52329147199E+02  0.41800000000E+01 0.  1.
        -11    1    3    3    0    0 -0.28370750516E+02  0.24813660597E+02  0.70905015578E+02  0.80300301813E+02  0.00000000000E+00 0. -1.
         11    1    3    3    0    0  0.19753865775E+02 -0.54647878927E+02  0.15905732342E+03  0.16933941661E+03  0.00000000000E+00 0.  1.
</event>
<event>
 7    1  0.5831876E-006  0.9843500E+02  0.7561462E-02  0.1283622E+00
         -1   -1    0    0    0  501 -0.00000000000E+00  0.00000000000E+00  0.19879446688E+03  0.19879446688E+03  0.00000000000E+00 0.  1.
          1   -1    0    0  501    0  0.00000000000E+00 -0.00000000000E+00 -0.90780156757E+02  0.90780156757E+02  0.00000000000E+00 0. -1.
         23    2    1    2    0    0 -0.30572394940E+02 -0.57309216204E+02  0.84514194215E+02  0.14667941929E+03  0.10076301615E+03 0.  0.
          5    1    1    2  502    0  0.58580443378E+02  0.77150861005E+02 -0.64151864642E+01  0.97172787948E+02  0.41800000000E+01 0. -1.
         -5    1    1    2    0  502 -0.28008048438E+02 -0.19841644801E+02  0.29915302371E+02  0.45722416402E+02  0.41800000000E+01 0. -1.
        -11    1    3    3    0    0 -0.89289169408E+01 -0.24010769669E+02 -0.21516923656E+02  0.33454754841E+02  0.00000000000E+00 0. -1.
         11    1    3    3    0    0 -0.21643477999E+02 -0.33298446534E+02  0.10603111787E+03  0.11322466444E+03  0.00000000000E+00 0.  1.
</event>
<event>
 7    1  0.5831876E-006  0.1106735E+03  0.7561462E-02  0.1259328E+00
         -4   -1    0    0    0  501 -0.00000000000E+00  0.00000000000E+00  0.52982740521E+02  0.52982740521E+02  0.00000000000E+00 0.  1.
          4   -1    0    0  501    0  0.00000000000E+00 -0.00000000000E+00 -0.25483165800E+03  0.25483165800E+03  0.00000000000E+00 0. -1.
         23    2    1    2    0    0 -0.25999186849E+02 -0.24972077666E+02 -0.62630877446E+02  0.11721446156E+03  0.92287815061E+02 0.  0.
          5    1    1    2  502    0  0.59593322670E+02 -0.24124981856E+02 -0.43203585130E+02  0.77571908733E+02  0.41800000000E+01 0.  1.
         -5    1    1    2    0  502 -0.33594135821E+02  0.49097059522E+02 -0.96014454899E+02  0.11302802823E+03  0.41800000000E+01 0.  1.
        -11    1    3    3    0    0 -0.50354019674E+02 -0.43611118589E+02 -0.52821649295E+02  0.85015196266E+02  0.00000000000E+00 0.  1.
         11    1    3    3    0    0  0.24354832825E+02  0.18639040922E+02 -0.98092281515E+01  0.32199265292E+02  0.00000000000E+00 0. -1.
</event>
<event>
 7    1  0.5831876E-006  0.1139236E+03  0.7561462E-02  0.1253472E+00
          2   -1    0    0  501    0  0.00000000000E+00  0.00000000000E+00  0.28464073338E+04  0.28464073338E+04  0.00000000000E+00 0. -1.
         -2   -1    0    0    0  501 -0.00000000000E+00 -0.00000000000E+00 -0.31896617171E+02  0.31896617171E+02  0.00000000000E+00 0.  1.
         23    2    1    2    0    0  0.61742860980E+02 -0.26887634595E+02  0.76152840144E+02  0.13337203084E+03  0.86334916292E+02 0.  0.
          5    1    1    2  502    0  0.23135605149E+01  0.59703743528E+02  0.22925494544E+04  0.22933317167E+04  0.41800000000E+01 0. -1.
         -5    1    1    2    0  502 -0.64056421494E+02 -0.32816108934E+02  0.44580842203E+03  0.45160020338E+03  0.41800000000E+01 0.  1.
        -11    1    3    3    0    0  0.62343209735E+02 -0.45534625333E+02  0.83134075089E+02  0.11345198255E+03  0.00000000000E+00 0.  1.
         11    1    3    3    0    0 -0.60034875583E+00  0.18646990738E+02 -0.69812349452E+01  0.19920048282E+02  0.00000000000E+00 0. -1.
</event>
<event>
 7    1  0.5831876E-006  0.1405296E+03  0.7561462E-02  0.1212618E+00
         -1   -1    0    0    0  501 -0.00000000000E+00  0.00000000000E+00  0.68575399745E+02  0.68575399745E+02  0.00000000000E+00 0.  1.
          1   -1    0    0  501    0  0.00000000000E+00 -0.00000000000E+00 -0.29521229552E+03  0.29521229552E+03  0.00000000000E+00 0. -1.
         23    2    1    2    0    0 -0.79258505948E+02 -0.43751373975E+02 -0.95410539899E+02  0.16114643192E+03  0.93106970235E+02 0.  0.
          5    1    1    2  502    0  0.13393990375E+02  0.78554950917E+02 -0.67256483171E+02  0.10436084620E+03  0.41800000000E+01 0. -1.
         -5    1    1    2    0  502  0.65864515574E+02 -0.34803576942E+02 -0.63969872703E+02  0.98280417141E+02  0.41800000000E+01 0. -1.
        -11    1    3    3    0    0 -0.32648092096E+02 -0.67023415340E+02 -0.38198310444E+02  0.83768413153E+02  0.00000000000E+00 0.  1.
         11    1    3    3    0    0 -0.46610413852E+02  0.23272041365E+02 -0.57212229456E+02  0.77378018765E+02  0.00000000000E+00 0. -1.
</event>
<event>
 7    1  0.5831876E-006  0.8383672E+02  0.7561462E-02  0.1318503E+00
          4   -1    0    0  501    0  0.00000000000E+00  0.00000000000E+00  0.57849073126E+02  0.57849073126E+02  0.00000000000E+00 0. -1.
         -4   -1    0    0    0  501 -0.00000000000E+00 -0.00000000000E+00 -0.25517360152E+03  0.25517360152E+03  0.00000000000E+00 0.  1.
         23    2    1    2    0    0  0.22270618343E+02 -0.30405463711E+02 -0.83084651244E+02  0.13947466251E+03  0.10549715421E+03 0.  0.
          5    1    1    2  502    0 -0.20218891338E+02  0.49706350631E+02 -0.13468936997E+03  0.14504559160E+03  0.41800000000E+01 0. -1.
         -5    1    1    2    0  502 -0.20517270054E+01 -0.19300886920E+02  0.20449492820E+02  0.28502420532E+02  0.41800000000E+01 0. -1.
        -11    1    3    3    0    0  0.48353264082E+02  0.65156199591E+01 -0.47350201000E+01  0.49019504956E+02  0.00000000000E+00 0. -1.
         11    1    3    3    0    0 -0.26082645738E+02 -0.36921083670E+02 -0.78349631144E+02  0.90455157556E+02  0.00000000000E+00 0.  1.
</event>
<event>
 7    1  0.5831876E-006  0.9178285E+02  0.7561462E-02  0.1298591E+00
         -2   -1    0    0    0  501 -0.00000000000E+00  0.00000000000E+00  0.24675926265E+02  0.24675926265E+02  0.00000000000E+00 0.  1.
          2   -1    0    0  501    0  0.00000000000E+00 -0.00000000000E+00 -0.69640399823E+03  0.69640399823E+03  0.00000000000E+00 0. -1.
         23    2    1    2    0    0  0.33694018887E+02 -0.39181171467E+02 -0.16477335680E+03  0.19636899040E+03  0.93488342454E+02 0.  0.
          5    1    1    2  502    0 -0.36235254512E+02 -0.25084227171E+02 -0.68599901425E+02  0.81643315696E+02  0.41800000000E+01 0.  1.
         -5    1    1    2    0  502  0.25412356250E+01  0.64265398638E+02 -0.43835481374E+03  0.44306761840E+03  0.41800000000E+01 0.  1.
        -11    1    3    3    0    0  0.65035650132E+00 -0.41701360307E+02 -0.17189082356E+02  0.45109765764E+02  0.00000000000E+00 0.  1.
         11    1    3    3    0    0  0.33043662386E+02  0.25201888405E+01 -0.14758427444E+03  0.15125922464E+03  0.00000000000E+00 0. -1.
</event>
<event>
 7    1  0.5831876E-006  0.3131494E+03  0.7561462E-02  0.1078846E+00
          1   -1    0    0  501    0  0.00000000000E+00  0.00000000000E+00  0.30770742992E+04  0.30770742992E+04  0.00000000000E+00 0. -1.
         -1   -1    0    0    0  501 -0.00000000000E+00 -0.00000000000E+00 -0.39623295413E+02  0.39623295413E+02  0.00000000000E+00 0.  1.
         23    2    1    2    0    0  0.16221352806E+03  0.25260939489E+03  0.86294654613E+03  0.91800615041E+03  0.89071968885E+02 0.  0.
          5    1    1    2  502    0 -0.17784833440E+03 -0.25269115879E+03  0.20617035054E+04  0.20847353952E+04  0.41800000000E+01 0. -1.
         -5    1    1    2    0  502  0.15634806336E+02  0.81763895043E-01  0.11280095231E+03  0.11395604897E+03  0.41800000000E+01 0. -1.
        -11    1    3    3    0    0  0.56951218212E+02  0.69278565821E+02  0.15398463307E+03  0.17819716092E+03  0.00000000000E+00 0.  1.
         11    1    3    3    0    0  0.10526230985E+03  0.18333082907E+03  0.70896191306E+03  0.73980898949E+03  0.00000000000E+00 0. -1.
</event>
<event>
 7    1  0.5831876E-006  0.1097289E+03  0.7561462E-02  0.1261073E+00
         -1   -1    0    0    0  501 -0.00000000000E+00  0.00000000000E+00  0.50636178479E+02  0.50636178479E+02  0.00000000000E+00 0.  1.
          1   -1    0    0  501    0  0.00000000000E+00 -0.00000000000E+00 -0.32119758198E+03  0.32119758198E+03  0.00000000000E+00 0. -1.
         23    2    1    2    0    0  0.23068528295E+01  0.38484391339E+02 -0.44563971014E+02  0.11066529852E+03  0.93672252227E+02 0.  0.
          5    1    1    2  502    0 -0.58920075095E+02 -0.22785563675E+02 -0.16331157530E+03  0.17515393283E+03  0.41800000000E+01 0.  1.
         -5    1    1    2    0  502  0.56613222266E+02 -0.15698827663E+02 -0.62685857185E+02  0.86014529100E+02  0.41800000000E+01 0.  1.
        -11    1    3    3    0    0 -0.42360380125E+02  0.78379328530E+01 -0.45494500228E+01  0.43318962260E+02  0.00000000000E+00 0.  1.
         11    1    3    3    0    0  0.44667232955E+02  0.30646458486E+02 -0.40014520991E+02  0.67346336260E+02  0.00000000000E+00 0. -1.
</event>
<event>
 7    1  0.5831876E-006  0.1121657E+03  0.7561462E-02  0.1256611E+00
          2   -1    0    0  501    0  0.00000000000E+00  0.00000000000E+00  0.10349277245E+03  0.10349277245E+03  0.00000000000E+00 0. -1.
         -2   -1    0    0    0  501 -0.00000000000E+00 -0.00000000000E+00 -0.14244769858E+03  0.14244769858E+03  0.00000000000E+00 0.  1.
         23    2    1    2    0    0  0.95033852161E+01  0.51202361349E+02 -0.22708764203E+02  0.10947095386E+03  0.93574599270E+02 0.  0.
          5    1    1    2  502    0 -0.52746216790E+02  0.58241666098E+01  0.19081403631E+02  0.56547826367E+02  0.41800000000E+01 0.  1.
         -5    1    1    2    0  502  0.43242831574E+02 -0.57026527959E+02 -0.35327565553E+02  0.79921690807E+02  0.41800000000E+01 0.  1.
        -11    1    3    3    0    0 -0.37419890858E+02  0.29802670155E+02 -0.31328032331E+02  0.57182978148E+02  0.00000000000E+00 0.  1.
         11    1    3    3    0    0  0.46923276074E+02  0.21399691195E+02  0.86192681289E+01  0.52287975710E+02  0.00000000000E+00 0. -1.
</event>
<event>
 7    1  0.5831876E-006  0.7253813E+02  0.7561462E-02  0.1351669E+00
          2   -1    0    0  501    0  0.00000000000E+00  0.00000000000E+00  0.26849840773E+03  0.26849840773E+03  0.00000000000E+00 0.  1.
         -2   -1    0    0    0  501 -0.00000000000E+00 -0.00000000000E+00 -0.65601230374E+02  0.65601230374E+02  0.00000000000E+00 0. -1.
         23    2    1    2    0    0  0.36587699406E+02 -0.32497363182E+02  0.17494092203E+02  0.10515458389E+03  0.91415014572E+02 0.  0.
          5    1    1    2  502    0 -0.36225632110E+02  0.56027585691E+02  0.32765661598E+02  0.74447617558E+02  0.41800000000E+01 0. -1.
         -5    1    1    2    0  502 -0.36206729658E+00 -0.23530222509E+02  0.15263742356E+03  0.15449743666E+03  0.41800000000E+01 0. -1.
        -11    1    3    3    0    0  0.22360139043E+02 -0.43397234476E+01  0.52982368539E+02  0.57670966644E+02  0.00000000000E+00 0.  1.
         11    1    3    3    0    0  0.14227560363E+02 -0.28157639734E+02 -0.35488276337E+02  0.47483617245E+02  0.00000000000E+00 0. -1.
</event>
<event>
 7    1  0.5831876E-006  0.6891622E+02  0.7561462E-02  0.1363818E+00
         -2   -1    0    0    0  501 -0.00000000000E+00  0.00000000000E+00  0.33821865455E+02  0.33821865455E+02  0.00000000000E+00 0.  1.
          2   -1    0    0  501    0  0.00000000000E+00 -0.00000000000E+00 -0.48323654095E+03  0.48323654095E+03  0.00000000000E+00 0. -1.
         23    2    1    2    0    0 -0.56276817520E+02 -0.10343842796E+02 -0.26215370359E+03  0.28470624740E+03  0.95178819741E+02 0.  0.
          5    1    1    2  502    0  0.28321097111E+02  0.67416191640E+01  0.11484953015E+02  0.31573889787E+02  0.41800000000E+01 0.  1.
         -5    1    1    2    0  502  0.27955720409E+02  0.36022236322E+01 -0.19874592492E+03  0.20077826922E+03  0.41800000000E+01 0.  1.
        -11    1    3    3    0    0 -0.63362321051E+02 -0.21327645514E+02 -0.26323358718E+03  0.27159082019E+03  0.00000000000E+00 0. -1.
         11    1    3    3    0    0  0.70855035305E+01  0.10983802717E+02  0.10798835841E+01  0.13115427213E+02  0.00000000000E+00 0.  1.
</event>
<event>
 7    1  0.5831876E-006  0.9695459E+02  0.7561462E-02  0.1286834E+00
          2   -1    0    0  501    0  0.00000000000E+00  0.00000000000E+00  0.33049273213E+03  0.33049273213E+03  0.00000000000E+00 0.  1.
         -2   -1    0    0    0  501 -0.00000000000E+00 -0.00000000000E+00 -0.83066487570E+02  0.83066487570E+02  0.00000000000E+00 0. -1.
         23    2    1    2    0    0  0.11418755488E+02 -0.14641811763E+02 -0.38689035154E+02  0.10073549914E+03  0.91137416668E+02 0.  0.
          5    1    1    2  502    0  0.22523312119E+02 -0.46959287588E+02  0.85557617078E+02  0.10024995022E+03  0.41800000000E+01 0.  1.
         -5    1    1    2    0  502 -0.33942067606E+02  0.61601099350E+02  0.20055766264E+03  0.21257377034E+03  0.41800000000E+01 0.  1.
        -11    1    3    3    0    0 -0.26351033305E+02  0.75306925852E+01  0.15163883373E+02  0.31321424712E+02  0.00000000000E+00 0.  1.
         11    1    3    3    0    0  0.37769788793E+02 -0.22172504348E+02 -0.53852918527E+02  0.69414074426E+02  0.00000000000E+00 0. -1.
</event>
<event>
 7    1  0.5831876E-006  0.1016567E+03  0.7561462E-02  0.1276850E+00
         -1   -1    0    0    0  501 -0.00000000000E+00  0.00000000000E+00  0.37701176754E+02  0.37701176754E+02  0.00000000000E+00 0.  1.
          1   -1    0    0  501    0  0.00000000000E+00 -0.00000000000E+00 -0.46961705709E+03  0.46961705709E+03  0.00000000000E+00 0. -1.
         23    2    1    2    0    0 -0.75885572652E+01 -0.35175099322E+02 -0.59195147521E+02  0.11252342132E+03  0.88671196231E+02 0.  0.
          5    1    1    2  502    0  0.55381945550E+01 -0.44789948947E+02 -0.18923493614E+03  0.19458711309E+03  0.41800000000E+01 0.  1.
         -5    1    1    2    0  502  0.20503627102E+01  0.79965048268E+02 -0.18348579668E+03  0.20020769944E+03  0.41800000000E+01 0.  1.
        -11    1    3    3    0    0 -0.40991914035E+01 -0.56314350985E+02 -0.80018882161E+01  0.57027534683E+02  0.00000000000E+00 0.  1.
         11    1    3    3    0    0 -0.34893658617E+01  0.21139251663E+02 -0.51193259304E+02  0.55495886633E+02  0.00000000000E+00 0. -1.
</event>
<event>
 7    1  0.5831876E-006  0.1173632E+03  0.7561462E-02  0.1247511E+00
          1   -1    0    0  501    0  0.00000000000E+00  0.00000000000E+00  0.16998673397E+03  0.16998673397E+03  0.00000000000E+00 0. -1.
         -1   -1    0    0    0  501 -0.00000000000E+00 -0.00000000000E+00 -0.11505346032E+03  0.11505346032E+03  0.00000000000E+00 0.  1.
         23    2    1    2    0    0  0.80549283963E+02  0.15575676375E+01 -0.25253193257E+02  0.11601821755E+03  0.79573173050E+02 0.  0.
          5    1    1    2  502    0 -0.49775077571E+02  0.60968631456E+02  0.46407850376E+02  0.91465257586E+02  0.41800000000E+01 0.  1.
         -5    1    1    2    0  502 -0.30774206392E+02 -0.62526199093E+02  0.33778616522E+02  0.77556719156E+02  0.41800000000E+01 0.  1.
        -11    1    3    3    0    0  0.45416907947E+02  0.15938993224E+02  0.24039442548E+02  0.53801875715E+02  0.00000000000E+00 0. -1.
         11    1    3    3    0    0  0.35132376017E+02 -0.14381425587E+02 -0.49292635804E+02  0.62216341832E+02  0.00000000000E+00 0.  1.
</event>
<event>
 7    1  0.5831876E-006  0.1109927E+03  0.7561462E-02  0.1258743E+00
          2   -1    0    0  501    0  0.00000000000E+00  0.00000000000E+00  0.11903385327E+04  0.11903385327E+04  0.00000000000E+00 0. -1.
         -2   -1    0    0    0  501 -0.00000000000E+00 -0.00000000000E+00 -0.31597834378E+02  0.31597834378E+02  0.00000000000E+00 0.  1.
         23    2    1    2    0    0  0.39482284115E+02 -0.72529653461E+02  0.13028886904E+03  0.17944365353E+03  0.91681154043E+02 0.  0.
          5    1    1    2  502    0 -0.30588747040E+02  0.10192131098E+03  0.97427700356E+03  0.98007998507E+03  0.41800000000E+01 0. -1.
         -5    1    1    2    0  502 -0.88935370747E+01 -0.29391657517E+02  0.54174825714E+02  0.62412728464E+02  0.41800000000E+01 0.  1.
        -11    1    3    3    0    0  0.19735483846E+02 -0.53711071113E+02  0.12544659754E+02  0.58581029105E+02  0.00000000000E+00 0.  1.
         11    1    3    3    0    0  0.19746800269E+02 -0.18818582349E+02  0.11774420929E+03  0.12086262443E+03  0.00000000000E+00 0. -1.
</event>
<event>
 7    1  0.6305726E-006  0.1718885E+03  0.7561462E-02  0.1175893E+00
          1   -1    0    0  501    0  0.00000000000E+00  0.00000000000E+00  0.91883936721E+03  0.91883936721E+03  0.00000000000E+00 0. -1.
         -1   -1    0    0    0  501 -0.00000000000E+00 -0.00000000000E+00 -0.43530086316E+02  0.43530086316E+02  0.00000000000E+00 0.  1.
         23    2    1    2    0    0  0.17686857010E+02  0.16536955200E+03  0.36917205929E+03  0.41511940146E+03  0.91521551918E+02 0.  0.
          5    1    1    2  502    0  0.66731694895E+01 -0.30764979228E+02  0.28793975269E+03  0.28968567226E+03  0.41800000000E+01 0. -1.
         -5    1    1    2    0  502 -0.24360026500E+02 -0.13460457277E+03  0.21819746892E+03  0.25756437980E+03  0.41800000000E+01 0. -1.
        -11    1    3    3    0    0 -0.17304380725E+02  0.95147135423E+02  0.12133332966E+03  0.15515861516E+03  0.00000000000E+00 0.  1.
         11    1    3    3    0    0  0.34991237735E+02  0.70222416577E+02  0.24783872963E+03  0.25996078630E+03  0.00000000000E+00 0. -1.
</event>
<event>
 7    1  0.5831876E-006  0.9492616E+02  0.7561462E-02  0.1291342E+00
         -2   -1    0    0    0  501 -0.00000000000E+00  0.00000000000E+00  0.36459758761E+02  0.36459758761E+02  0.00000000000E+00 0.  1.
          2   -1    0    0  501    0  0.00000000000E+00 -0.00000000000E+00 -0.42764185674E+03  0.42764185674E+03  0.00000000000E+00 0. -1.
         23    2    1    2    0    0  0.84921985232E+01  0.58839630483E+02 -0.11819926223E+03  0.15799532348E+03  0.86355295729E+02 0.  0.
          5    1    1    2  502    0  0.18577091964E+02 -0.65256465513E+02 -0.26928495028E+03  0.27773255388E+03  0.41800000000E+01 0. -1.
         -5    1    1    2    0  502 -0.27069290488E+02  0.64168350295E+01 -0.36978854798E+01  0.28373738145E+02  0.41800000000E+01 0. -1.
        -11    1    3    3    0    0  0.29156320051E+02 -0.22595832433E+01 -0.74642214974E+02  0.80166432948E+02  0.00000000000E+00 0. -1.
         11    1    3    3    0    0 -0.20664121528E+02  0.61099213727E+02 -0.43557047252E+02  0.77828890535E+02  0.00000000000E+00 0.  1.
</event>
<event>
 7    1  0.5831876E-006  0.1122782E+03  0.7561462E-02  0.1256408E+00
         -1   -1    0    0    0  501 -0.00000000000E+00  0.00000000000E+00  0.18000090235E+02  0.18000090235E+02  0.00000000000E+00 0.  1.
          1   -1    0    0  501    0  0.00000000000E+00 -0.00000000000E+00 -0.12205054647E+04  0.12205054647E+04  0.00000000000E+00 0. -1.
         23    2    1    2    0    0  0.56425901554E+02 -0.65312457663E+02 -0.33884756474E+03  0.36157806939E+03  0.92040364215E+02 0.  0.
          5    1    1    2  502    0  0.16817936485E+02 -0.75246703294E+01 -0.22234551557E+02  0.29177240002E+02  0.41800000000E+01 0. -1.
         -5    1    1    2    0  502 -0.73243838040E+02  0.72837127993E+02 -0.84142325814E+03  0.84775024552E+03  0.41800000000E+01 0. -1.
        -11    1    3    3    0    0 -0.11143046740E+02 -0.88685886477E+01 -0.32281353374E+01  0.14602746763E+02  0.00000000000E+00 0.  1.
         11    1    3    3    0    0  0.67568948295E+02 -0.56443869016E+02 -0.33561942940E+03  0.34697532263E+03  0.00000000000E+00 0. -1.
</event>
<event>
 7    1  0.5831876E-006  0.1026377E+03  0.7561462E-02  0.1274845E+00
          2   -1    0    0  501    0  0.00000000000E+00  0.00000000000E+00  0.65767160271E+03  0.65767160271E+03  0.00000000000E+00 0. -1.
         -2   -1    0    0    0  501 -0.00000000000E+00 -0.00000000000E+00 -0.21435566773E+02  0.21435566773E+02  0.00000000000E+00 0.  1.
         23    2    1    2    0    0 -0.29636768557E+02  0.24495626243E+02  0.18638258914E+03  0.21060536439E+03  0.90209623751E+02 0.  0.
          5    1    1    2  502    0  0.47582012139E+02  0.29916772220E+02  0.10766685877E+03  0.12152648278E+03  0.41800000000E+01 0. -1.
         -5    1    1    2    0  502 -0.17945243582E+02 -0.54412398463E+02  0.34218658803E+03  0.34697532232E+03  0.41800000000E+01 0. -1.
        -11    1    3    3    0    0  0.22103776291E+02  0.32302293218E+02  0.11912352561E+03  0.12538911208E+03  0.00000000000E+00 0. -1.
         11    1    3    3    0    0 -0.51740544848E+02 -0.78066669750E+01  0.67259063528E+02  0.85216252306E+02  0.00000000000E+00 0.  1.
</event>
<event>
 7    1  0.9963813E-006  0.1913120E+03  0.7561462E-02  0.1157283E+00
         -2   -1    0    0    0  501 -0.00000000000E+00  0.00000000000E+00  0.50845044755E+02  0.50845044755E+02  0.00000000000E+00 0.  1.
          2   -1    0    0  501    0  0.00000000000E+00 -0.00000000000E+00 -0.91160722642E+03  0.91160722642E+03  0.00000000000E+00 0. -1.
         23    2    1    2    0    0  0.16224848527E+03 -0.89349228042E+02 -0.43651612609E+03  0.48293145158E+03  0.91480069235E+02 0.  0.
          5    1    1    2  502    0 -0.11890130202E+03  0.88398964636E+02 -0.18855356175E+03  0.23983705848E+03  0.41800000000E+01 0. -1.
         -5    1    1    2    0  502 -0.43347183244E+02  0.95026340601E+00 -0.23569249383E+03  0.23968376112E+03  0.41800000000E+01 0. -1.
        -11    1    3    3    0    0  0.29844398950E+02 -0.39185568870E+02 -0.21083406038E+03  0.21651142689E+03  0.00000000000E+00 0.  1.
         11    1    3    3    0    0  0.13240408632E+03 -0.50163659171E+02 -0.22568206571E+03  0.26642002469E+03  0.00000000000E+00 0. -1.
</event>
<event>
 7    1  0.5831876E-006  0.1489683E+03  0.7561462E-02  0.1201747E+00
         -2   -1    0    0    0  501 -0.00000000000E+00  0.00000000000E+00  0.31993021570E+03  0.31993021570E+03  0.00000000000E+00 0.  1.
          2   -1    0    0  501    0  0.00000000000E+00 -0.00000000000E+00 -0.87734495901E+02  0.87734495901E+02  0.00000000000E+00 0. -1.
         23    2    1    2    0    0  0.44379052551E+02 -0.10362660584E+03  0.17949468565E+03  0.23121863445E+03  0.92389074008E+02 0.  0.
          5    1    1    2  502    0  0.68422084366E+01 -0.21070909500E+02  0.33258412766E+02  0.40179515467E+02  0.41800000000E+01 0. -1.
         -5    1    1    2    0  502 -0.51221260988E+02  0.12469751534E+03  0.19442621383E+02  0.13626656169E+03  0.41800000000E+01 0. -1.
        -11    1    3    3    0    0 -0.48481938690E+01 -0.89046359788E+02  0.82561677124E+02  0.12152855510E+03  0.00000000000E+00 0.  1.
         11    1    3    3    0    0  0.49227246420E+02 -0.14580246048E+02  0.96933008528E+02  0.10969007935E+03  0.00000000000E+00 0. -1.
</event>
<event>
 7    1  0.5831876E-006  0.1054934E+03  0.7561462E-02  0.1269151E+00
         -2   -1    0    0    0  501 -0.00000000000E+00  0.00000000000E+00  0.15232624381E+02  0.15232624381E+02  0.00000000000E+00 0.  1.
          2   -1    0    0  501    0  0.00000000000E+00 -0.00000000000E+00 -0.13384816228E+04  0.13384816228E+04  0.00000000000E+00 0. -1.
         23    2    1    2    0    0  0.49532365201E+02 -0.36002845387E+02 -0.27381881297E+03  0.29508256298E+03  0.91363650101E+02 0.  0.
          5    1    1    2  502    0  0.14675226362E+02 -0.28165779691E+02 -0.10343055215E+03  0.10827753660E+03  0.41800000000E+01 0.  1.
         -5    1    1    2    0  502 -0.64207591564E+02  0.64168625079E+02 -0.94599963330E+03  0.95035414760E+03  0.41800000000E+01 0.  1.
        -11    1    3    3    0    0  0.29729637735E+02  0.15050350887E+02 -0.28874573696E+02  0.44092010929E+02  0.00000000000E+00 0.  1.
         11    1    3    3    0    0  0.19802727467E+02 -0.51053196274E+02 -0.24494423927E+03  0.25099055205E+03  0.00000000000E+00 0. -1.
</event>
<event>
 7    1  0.5831876E-006  0.1028068E+03  0.7561462E-02  0.1274502E+00
         -1   -1    0    0    0  501 -0.00000000000E+00  0.00000000000E+00  0.31545039416E+02  0.31545039416E+02  0.00000000000E+00 0.  1.
          1   -1    0    0  501    0  0.00000000000E+00 -0.00000000000E+00 -0.52230654829E+03  0.52230654829E+03  0.00000000000E+00 0. -1.
         23    2    1    2    0    0 -0.24690628208E+02 -0.11371618549E+02 -0.82846487661E+02  0.12632256815E+03  0.91405196113E+02 0.  0.
          5    1    1    2  502    0  0.63088939469E+02  0.26842943999E+02 -0.34717018371E+03  0.35390022151E+03  0.41800000000E+01 0.  1.
         -5    1    1    2    0  502 -0.38398311261E+02 -0.15471325450E+02 -0.60744837500E+02  0.73628798046E+02  0.41800000000E+01 0.  1.
        -11    1    3    3    0    0 -0.59603124311E+02 -0.94774154350E+01 -0.50556811218E+02  0.78729568724E+02  0.00000000000E+00 0. -1.
         11    1    3    3    0    0  0.34912496103E+02 -0.18942031136E+01 -0.32289676444E+02  0.47592999426E+02  0.00000000000E+00 0.  1.
</event>
<event>
 7    1  0.5831876E-006  0.9699630E+02  0.7561462E-02  0.1286742E+00
         -1   -1    0    0    0  501 -0.00000000000E+00  0.00000000000E+00  0.17260990732E+03  0.17260990732E+03  0.00000000000E+00 0.  1.
          1   -1    0    0  501    0  0.00000000000E+00 -0.00000000000E+00 -0.61928375087E+02  0.61928375087E+02  0.00000000000E+00 0. -1.
         23    2    1    2    0    0 -0.16900405517E+02  0.18080138885E+00  0.58163150684E+02  0.97822269081E+02  0.76815283863E+02 0.  0.
          5    1    1    2  502    0  0.66899978974E+02  0.22359421305E+02  0.23116532203E+02  0.74346468436E+02  0.41800000000E+01 0.  1.
         -5    1    1    2    0  502 -0.49999573457E+02 -0.22540222694E+02  0.29401849349E+02  0.62369544892E+02  0.41800000000E+01 0.  1.
        -11    1    3    3    0    0  0.10953646035E+02  0.27322056124E+02  0.19940716425E+01  0.29503447832E+02  0.00000000000E+00 0. -1.
         11    1    3    3    0    0 -0.27854051552E+02 -0.27141254735E+02  0.56169079041E+02  0.68318821249E+02  0.00000000000E+00 0.  1.
</event>
<event>
 7    1  0.5831876E-006  0.1130326E+03  0.7561462E-02  0.1255055E+00
          1   -1    0    0  501    0  0.00000000000E+00  0.00000000000E+00  0.39286860493E+02  0.39286860493E+02  0.00000000000E+00 0. -1.
         -1   -1    0    0    0  501 -0.00000000000E+00 -0.00000000000E+00 -0.55520414205E+03  0.55520414205E+03  0.00000000000E+00 0.  1.
         23    2    1    2    0    0 -0.10170241202E+01 -0.93186888580E+02 -0.21362793252E+03  0.25432603233E+03  0.10178411775E+03 0.  0.
          5    1    1    2  502    0 -0.32875825270E+00  0.22237362471E+02  0.63033762295E+01  0.23490707174E+02  0.41800000000E+01 0. -1.
         -5    1    1    2    0  502  0.13457823729E+01  0.70949526110E+02 -0.30859272527E+03  0.31667426304E+03  0.41800000000E+01 0. -1.
        -11    1    3    3    0    0  0.46123504024E+02 -0.37921142616E+02 -0.61354451138E+02  0.85614013778E+02  0.00000000000E+00 0. -1.
         11    1    3    3    0    0 -0.47140528144E+02 -0.55265745964E+02 -0.15227348139E+03  0.16871201855E+03  0.00000000000E+00 0.  1.
</event>
<event>
 7    1  0.5831876E-006  0.1176897E+03  0.7561462E-02  0.1246958E+00
          2   -1    0    0  501    0  0.00000000000E+00  0.00000000000E+00  0.56364296249E+03  0.56364296249E+03  0.00000000000E+00 0. -1.
         -2   -1    0    0    0  501 -0.00000000000E+00 -0.00000000000E+00 -0.13488177569E+03  0.13488177569E+03  0.00000000000E+00 0.  1.
         23    2    1    2    0    0 -0.22044815527E+02 -0.63415761809E+02 -0.71840455975E+01  0.12207280111E+03  0.10169869971E+03 0.  0.
          5    1    1    2  502    0  0.33355544683E+02 -0.23501321708E+02  0.47757152840E+03  0.47932967947E+03  0.41800000000E+01 0. -1.
         -5    1    1    2    0  502 -0.11310729155E+02  0.86917083517E+02 -0.41626295999E+02  0.97122257592E+02  0.41800000000E+01 0.  1.
        -11    1    3    3    0    0 -0.37045913582E+02 -0.77586509560E+02  0.19677055415E+02  0.88200071931E+02  0.00000000000E+00 0.  1.
         11    1    3    3    0    0  0.15001098055E+02  0.14170747751E+02 -0.26861101013E+02  0.33872729183E+02  0.00000000000E+00 0. -1.
</event>
<event>
 7    1  0.5831876E-006  0.1075620E+03  0.7561462E-02  0.1265152E+00
         -2   -1    0    0    0  501 -0.00000000000E+00  0.00000000000E+00  0.64909166976E+02  0.64909166976E+02  0.00000000000E+00 0.  1.
          2   -1    0    0  501    0  0.00000000000E+00 -0.00000000000E+00 -0.24609336571E+03  0.24609336571E+03  0.00000000000E+00 0. -1.
         23    2    1    2    0    0  0.39352523514E+02 -0.48474645901E+02 -0.72530751289E+02  0.13393913769E+03  0.93704697432E+02 0.  0.
          5    1    1    2  502    0 -0.56122036236E+02  0.61597149231E+02 -0.12472572649E+03  0.15005955815E+03  0.41800000000E+01 0. -1.
         -5    1    1    2    0  502  0.16769512722E+02 -0.13122503330E+02  0.16072279043E+02  0.27003836843E+02  0.41800000000E+01 0. -1.
        -11    1    3    3    0    0 -0.13858073822E+02 -0.54688498039E+02 -0.51496066037E+02  0.76385357530E+02  0.00000000000E+00 0.  1.
         11    1    3    3    0    0  0.53210597336E+02  0.62138521377E+01 -0.21034685253E+02  0.57553780162E+02  0.00000000000E+00 0. -1.
</event>
<event>
 7    1  0.5831876E-006  0.1270823E+03  0.7561462E-02  0.1231850E+00
          1   -1    0    0  501    0  0.00000000000E+00  0.00000000000E+00  0.12291849320E+03  0.12291849320E+03  0.00000000000E+00 0. -1.
         -1   -1    0    0    0  501 -0.00000000000E+00 -0.00000000000E+00 -0.18284185887E+03  0.18284185887E+03  0.00000000000E+00 0.  1.
         23    2    1    2    0    0 -0.17924618281E+02 -0.10254830075E+03 -0.33395572299E+02  0.14087182766E+03  0.88837839073E+02 0.  0.
          5    1    1    2  502    0 -0.14049434752E+02  0.71411621812E+02  0.41149720929E+02  0.83712473857E+02  0.41800000000E+01 0.  1.
         -5    1    1    2    0  502  0.31974053033E+02  0.31136678941E+02 -0.67677514301E+02  0.81176050561E+02  0.41800000000E+01 0.  1.
        -11    1    3    3    0    0 -0.45314556945E+02 -0.98925670967E+02 -0.30997504057E+02  0.11313948340E+03  0.00000000000E+00 0. -1.
         11    1    3    3    0    0  0.27389938664E+02 -0.36226297861E+01 -0.23980682417E+01  0.27732344255E+02  0.00000000000E+00 0.  1.
</event>
<event>
 7    1  0.5831876E-006  0.1172369E+03  0.7561462E-02  0.1247726E+00
          1   -1    0    0  501    0  0.00000000000E+00  0.00000000000E+00  0.10243233659E+03  0.10243233659E+03  0.00000000000E+00 0. -1.
         -1   -1    0    0    0  501 -0.00000000000E+00 -0.00000000000E+00 -0.15747885319E+03  0.15747885319E+03  0.00000000000E+00 0.  1.
         23    2    1    2    0    0 -0.32800872665E+02 -0.45306372138E+02 -0.63638925807E+02  0.12262021118E+03  0.88641066715E+02 0.  0.
          5    1    1    2  502    0 -0.17904898450E+02  0.75541023872E+02  0.73693020694E+01  0.78094882605E+02  0.41800000000E+01 0.  1.
         -5    1    1    2    0  502  0.50705771115E+02 -0.30234651735E+02  0.12231071309E+01  0.59196095994E+02  0.41800000000E+01 0.  1.
        -11    1    3    3    0    0  0.25406633456E+02 -0.29939839319E+01 -0.38834963488E+02  0.46503928355E+02  0.00000000000E+00 0.  1.
         11    1    3    3    0    0 -0.58207506121E+02 -0.42312388206E+02 -0.24803962319E+02  0.76116282826E+02  0.00000000000E+00 0. -1.
</event>
<event>
 7    1  0.5831876E-006  0.1075489E+03  0.7561462E-02  0.1265177E+00
         -1   -1    0    0    0  501 -0.00000000000E+00  0.00000000000E+00  0.25005874139E+02  0.25005874139E+02  0.00000000000E+00 0.  1.
          1   -1    0    0  501    0  0.00000000000E+00 -0.00000000000E+00 -0.55141165251E+03  0.55141165251E+03  0.00000000000E+00 0. -1.
         23    2    1    2    0    0 -0.19658635215E+02 -0.14402098727E+02 -0.14360387156E+03  0.17296122718E+03  0.93271816722E+02 0.  0.
          5    1    1    2  502    0 -0.87596620732E+00 -0.53270169350E+02 -0.12174452761E+03  0.13295743929E+03  0.41800000000E+01 0.  1.
         -5    1    1    2    0  502  0.20534601423E+02  0.67672268077E+02 -0.26105737920E+03  0.27049886018E+03  0.41800000000E+01 0.  1.
        -11    1    3    3    0    0 -0.52294607323E+02  0.55085832376E+01 -0.53178894665E+02  0.74786798850E+02  0.00000000000E+00 0.  1.
         11    1    3    3    0    0  0.32635972108E+02 -0.19910681965E+02 -0.90424976893E+02  0.98174428330E+02  0.00000000000E+00 0. -1.
</event>
<event>
 7    1  0.5831876E-006  0.1354708E+03  0.7561462E-02  0.1219557E+00
          1   -1    0    0  501    0  0.00000000000E+00  0.00000000000E+00  0.37826247427E+03  0.37826247427E+03  0.00000000000E+00 0. -1.
         -1   -1    0    0    0  501 -0.00000000000E+00 -0.00000000000E+00 -0.67801197524E+02  0.67801197524E+02  0.00000000000E+00 0.  1.
         23    2    1    2    0    0  0.89934066072E+02  0.93093580269E+01  0.40820438170E+02  0.13537129354E+03  0.92110143608E+02 0.  0.
          5    1    1    2  502    0 -0.83359088110E+02  0.46108766236E+02  0.13892285880E+03  0.16849863202E+03  0.41800000000E+01 0. -1.
         -5    1    1    2    0  502 -0.65749779620E+01 -0.55418124263E+02  0.13071797978E+03  0.14219374624E+03  0.41800000000E+01 0. -1.
        -11    1    3    3    0    0  0.92557304799E+01  0.34012708473E+02 -0.10292501821E+02  0.36721498854E+02  0.00000000000E+00 0.  1.
         11    1    3    3    0    0  0.80678335592E+02 -0.24703350446E+02  0.51112939991E+02  0.98649794686E+02  0.00000000000E+00 0. -1.
</event>
<event>
 7    1  0.5831876E-006  0.1254137E+03  0.7561462E-02  0.1234424E+00
          2   -1    0    0  501    0  0.00000000000E+00  0.00000000000E+00  0.21349128611E+04  0.21349128611E+04  0.00000000000E+00 0. -1.
         -2   -1    0    0    0  501 -0.00000000000E+00 -0.00000000000E+00 -0.25055251072E+02  0.25055251072E+02  0.00000000000E+00 0.  1.
         23    2    1    2    0    0 -0.21045206280E+02 -0.27943188820E+02  0.14357508076E+03  0.17368551595E+03  0.91264079058E+02 0.  0.
          5    1    1    2  502    0 -0.81624332773E+01  0.87237470409E+02  0.18528907643E+04  0.18549659453E+04  0.41800000000E+01 0. -1.
         -5    1    1    2    0  502  0.29207639557E+02 -0.59294281589E+02  0.11339176502E+03  0.13131665093E+03  0.41800000000E+01 0.  1.
        -11    1    3    3    0    0 -0.55581715210E+01  0.33273305459E+02  0.39418394769E+02  0.51882713624E+02  0.00000000000E+00 0.  1.
         11    1    3    3    0    0 -0.15487034759E+02 -0.61216494279E+02  0.10415668599E+03  0.12180280233E+03  0.00000000000E+00 0. -1.
</event>
<event>
 7    1  0.5831876E-006  0.1594744E+03  0.7561462E-02  0.1189291E+00
          2   -1    0    0  501    0  0.00000000000E+00  0.00000000000E+00  0.18382875505E+04  0.18382875505E+04  0.00000000000E+00 0. -1.
         -2   -1    0    0    0  501 -0.00000000000E+00 -0.00000000000E+00 -0.18831128234E+02  0.18831128234E+02  0.00000000000E+00 0.  1.
         23    2    1    2    0    0  0.66850910476E+02 -0.13397285574E+03  0.75193153568E+03  0.77191188296E+03  0.89605526669E+02 0.  0.
          5    1    1    2  502    0 -0.64785095562E+02  0.68143687774E+02  0.90371893434E+03  0.90860665608E+03  0.41800000000E+01 0. -1.
         -5    1    1    2    0  502 -0.20658149145E+01  0.65829167963E+02  0.16380595224E+03  0.17660013968E+03  0.41800000000E+01 0. -1.
        -11    1    3    3    0    0  0.43214743095E+02 -0.30993696667E+02  0.12066247311E+03  0.13186188104E+03  0.00000000000E+00 0.  1.
         11    1    3    3    0    0  0.23636167381E+02 -0.10297915907E+03  0.63126906257E+03  0.64005000193E+03  0.00000000000E+00 0. -1.
</event>
<event>
 7    1  0.5831876E-006  0.1277919E+03  0.7561462E-02  0.1230769E+00
          2   -1    0    0  501    0  0.00000000000E+00  0.00000000000E+00  0.93589846227E+03  0.93589846227E+03  0.00000000000E+00 0. -1.
         -2   -1    0    0    0  501 -0.00000000000E+00 -0.00000000000E+00 -0.21738569087E+02  0.21738569087E+02  0.00000000000E+00 0.  1.
         23    2    1    2    0    0 -0.58264302922E+02  0.44640116291E+02  0.26876750118E+03  0.29614831844E+03  0.10040113468E+03 0.  0.
          5    1    1    2  502    0  0.50922740871E+02  0.28115192872E+02  0.15409212701E+03  0.16475874973E+03  0.41800000000E+01 0. -1.
         -5    1    1    2    0  502  0.73415620511E+01 -0.72755309163E+02  0.49130026499E+03  0.49672996319E+03  0.41800000000E+01 0. -1.
        -11    1    3    3    0    0 -0.36879490844E+02  0.76917831089E+02  0.19485077307E+03  0.21270466227E+03  0.00000000000E+00 0.  1.
         11    1    3    3    0    0 -0.21384812077E+02 -0.32277714798E+02  0.73916728110E+02  0.83443656168E+02  0.00000000000E+00 0. -1.
</event>
<event>
 7    1  0.5831876E-006  0.2855959E+03  0.7561462E-02  0.1092671E+00
          1   -1    0    0  501    0  0.00000000000E+00  0.00000000000E+00  0.41936726444E+03  0.41936726444E+03  0.00000000000E+00 0. -1.
         -1   -1    0    0    0  501 -0.00000000000E+00 -0.00000000000E+00 -0.22693102143E+03  0.22693102143E+03  0.00000000000E+00 0.  1.
         23    2    1    2    0    0 -0.39350588599E+02  0.28154159273E+03  0.43904979162E+02  0.30203126851E+03  0.92092902568E+02 0.  0.
          5    1    1    2  502    0  0.36540409518E+02 -0.15726379041E+03  0.15661060052E+02  0.16226472970E+03  0.41800000000E+01 0.  1.
         -5    1    1    2    0  502  0.28101790801E+01 -0.12427780232E+03  0.13287020380E+03  0.18200228766E+03  0.41800000000E+01 0.  1.
        -11    1    3    3    0    0 -0.25593081553E+02  0.99312569122E+02  0.59588536418E+02  0.11861191290E+03  0.00000000000E+00 0. -1.
         11    1    3    3    0    0 -0.13757507046E+02  0.18222902361E+03 -0.15683557256E+02  0.18341935561E+03  0.00000000000E+00 0.  1.
</event>
<event>
 7    1  0.5831876E-006  0.1186381E+03  0.7561462E-02  0.1245361E+00
         -2   -1    0    0    0  501 -0.00000000000E+00  0.00000000000E+00  0.43838625641E+02  0.43838625641E+02  0.00000000000E+00 0. -1.
          2   -1    0    0  501    0  0.00000000000E+00 -0.00000000000E+00 -0.40591518842E+03  0.40591518842E+03  0.00000000000E+00 0.  1.
         23    2    1    2    0    0 -0.47710674522E+02 -0.34218594020E+02 -0.81765117714E+02  0.13723332045E+03  0.93275018778E+02 0.  0.
          5    1    1    2  502    0 -0.31287060389E+02  0.40571829860E+02 -0.16277670388E+03  0.17070056020E+03  0.41800000000E+01 0. -1.
         -5    1    1    2    0  502  0.78997734911E+02 -0.63532358403E+01 -0.11753474118E+03  0.14181993341E+03  0.41800000000E+01 0. -1.
        -11    1    3    3    0    0  0.10681644426E+01 -0.53898856403E+02 -0.58996494776E+02  0.79917545587E+02  0.00000000000E+00 0.  1.
         11    1    3    3    0    0 -0.48778838964E+02  0.19680262383E+02 -0.22768622938E+02  0.57315774867E+02  0.00000000000E+00 0. -1.
</event>
<event>
 7    1  0.5831876E-006  0.6731954E+02  0.7561462E-02  0.1369453E+00
         -2   -1    0    0    0  501 -0.00000000000E+00  0.00000000000E+00  0.19739321992E+02  0.19739321992E+02  0.00000000000E+00 0. -1.
          2   -1    0    0  501    0  0.00000000000E+00 -0.00000000000E+00 -0.77811512426E+03  0.77811512426E+03  0.00000000000E+00 0.  1.
         23    2    1    2    0    0 -0.50564655058E+02  0.65788606961E+00 -0.24426999802E+03  0.26633814680E+03  0.93332520345E+02 0.  0.
          5    1    1    2  502    0  0.46656778624E+02 -0.85218662043E+01 -0.51861519795E+03  0.52079619155E+03  0.41800000000E+01 0.  1.
         -5    1    1    2    0  502  0.39078764343E+01  0.78639801346E+01  0.45093936991E+01  0.10720107897E+02  0.41800000000E+01 0.  1.
        -11    1    3    3    0    0 -0.55803234202E+02 -0.17436219728E+02 -0.24000640003E+03  0.24702448211E+03  0.00000000000E+00 0.  1.
         11    1    3    3    0    0  0.52385791437E+01  0.18094105798E+02 -0.42635979904E+01  0.19313664694E+02  0.00000000000E+00 0. -1.
</event>
<event>
 7    1  0.5831876E-006  0.1211849E+03  0.7561462E-02  0.1241155E+00
          1   -1    0    0  501    0  0.00000000000E+00  0.00000000000E+00  0.10557792718E+04  0.10557792718E+04  0.00000000000E+00 0. -1.
         -1   -1    0    0    0  501 -0.00000000000E+00 -0.00000000000E+00 -0.20848355360E+02  0.20848355360E+02  0.00000000000E+00 0.  1.
         23    2    1    2    0    0 -0.86355139787E+02  0.52207450511E+02  0.43541615611E+03  0.45594288701E+03  0.90076962416E+02 0.  0.
          5    1    1    2  502    0  0.66086216225E+02 -0.58356677921E+02  0.59087440814E+03  0.59743027077E+03  0.41800000000E+01 0. -1.
         -5    1    1    2    0  502  0.20268923563E+02  0.61492274105E+01  0.86403521852E+01  0.23254469377E+02  0.41800000000E+01 0. -1.
        -11    1    3    3    0    0 -0.62170786617E+02 -0.12520232984E+02  0.16307364595E+03  0.17497136036E+03  0.00000000000E+00 0. -1.
         11    1    3    3    0    0 -0.24184353170E+02  0.64727683495E+02  0.27234251016E+03  0.28097152665E+03  0.00000000000E+00 0.  1.
</event>
<event>
 7    1  0.5831876E-006  0.6527551E+02  0.7561462E-02  0.1376938E+00
          1   -1    0    0  501    0  0.00000000000E+00  0.00000000000E+00  0.28101416690E+03  0.28101416690E+03  0.00000000000E+00 0. -1.
         -1   -1    0    0    0  501 -0.00000000000E+00 -0.00000000000E+00 -0.12505596036E+03  0.12505596036E+03  0.00000000000E+00 0.  1.
         23    2    1    2    0    0  0.34347078397E+02  0.25973740175E+02 -0.88784175027E+02  0.13291970126E+03  0.89054254666E+02 0.  0.
          5    1    1    2  502    0 -0.10652699187E+02 -0.18714707466E+02  0.24694985948E+03  0.24792221718E+03  0.41800000000E+01 0. -1.
         -5    1    1    2    0  502 -0.23694379210E+02 -0.72590327088E+01 -0.22074779116E+01  0.25228208829E+02  0.41800000000E+01 0.  1.
        -11    1    3    3    0    0 -0.22460150753E+02  0.89807759604E+01  0.22331947892E+01  0.24291971259E+02  0.00000000000E+00 0. -1.
         11    1    3    3    0    0  0.56807229149E+02  0.16992964214E+02 -0.91017369817E+02  0.10862773000E+03  0.00000000000E+00 0.  1.
</event>
<event>
 7    1  0.5831876E-006  0.1162533E+03  0.7561462E-02  0.1249409E+00
          2   -1    0    0  501    0  0.00000000000E+00  0.00000000000E+00  0.20756315729E+03  0.20756315729E+03  0.00000000000E+00 0.  1.
         -2   -1    0    0    0  501 -0.00000000000E+00 -0.00000000000E+00 -0.73527208402E+02  0.73527208402E+02  0.00000000000E+00 0. -1.
         23    2    1    2    0    0  0.18401182122E+02  0.57837324109E+02  0.47840598368E+02  0.11750304178E+03  0.88512611595E+02 0.  0.
          5    1    1    2  502    0 -0.47824069973E+02  0.11953058632E+02  0.70499893424E+02  0.86126213503E+02  0.41800000000E+01 0.  1.
         -5    1    1    2    0  502  0.29422887852E+02 -0.69790382741E+02  0.15695457095E+02  0.77461110411E+02  0.41800000000E+01 0.  1.
        -11    1    3    3    0    0 -0.35916373236E+02  0.23314197325E+02  0.22095756104E+02  0.48184645906E+02  0.00000000000E+00 0.  1.
         11    1    3    3    0    0  0.54317555358E+02  0.34523126784E+02  0.25744842264E+02  0.69318395872E+02  0.00000000000E+00 0. -1.
</event>
<event>
 7    1  0.5831876E-006  0.1160401E+03  0.7561462E-02  0.1249776E+00
          2   -1    0    0  501    0  0.00000000000E+00  0.00000000000E+00  0.20271729870E+04  0.20271729870E+04  0.00000000000E+00 0. -1.
         -2   -1    0    0    0  501 -0.00000000000E+00 -0.00000000000E+00 -0.11626566180E+02  0.11626566180E+02  0.00000000000E+00 0.  1.
         23    2    1    2    0    0 -0.50502809761E+02 -0.83397813685E+02  0.61386162557E+03  0.62817807454E+03  0.90971802576E+02 0.  0.
          5    1    1    2  502    0  0.34304078418E+02  0.43768577135E+02  0.12858307822E+04  0.12870395219E+04  0.41800000000E+01 0. -1.
         -5    1    1    2    0  502  0.16198731342E+02  0.39629236551E+02  0.11585401309E+03  0.12358195676E+03  0.41800000000E+01 0. -1.
        -11    1    3    3    0    0  0.15241275467E+02 -0.62471228169E+02  0.30471810089E+03  0.31142907994E+03  0.00000000000E+00 0.  1.
         11    1    3    3    0    0 -0.65744085228E+02 -0.20926585516E+02  0.30914352468E+03  0.31674899460E+03  0.00000000000E+00 0. -1.
</event>
<event>
 7    1  0.5831876E-006  0.1667384E+03  0.7561462E-02  0.1181293E+00
         -2   -1    0    0    0  501 -0.00000000000E+00  0.00000000000E+00  0.64975027070E+02  0.64975027070E+02  0.00000000000E+00 0.  1.
          2   -1    0    0  501    0  0.00000000000E+00 -0.00000000000E+00 -0.99185803100E+03  0.99185803100E+03  0.00000000000E+00 0. -1.
         23    2    1    2    0    0  0.12055763507E+03  0.11372528946E+03 -0.12157637382E+03  0.22518691630E+03  0.91982323118E+02 0.  0.
          5    1    1    2  502    0 -0.46443474080E+02 -0.28722800229E+02 -0.76100430114E+02  0.93758964377E+02  0.41800000000E+01 0.  1.
         -5    1    1    2    0  502 -0.74114160993E+02 -0.85002489236E+02 -0.72920620000E+03  0.73788717739E+03  0.41800000000E+01 0.  1.
        -11    1    3    3    0    0  0.63618444805E+02  0.55627089441E+02 -0.11617438837E+03  0.14365990433E+03  0.00000000000E+00 0. -1.
         11    1    3    3    0    0  0.56939190267E+02  0.58098200024E+02 -0.54019854435E+01  0.81527011972E+02  0.00000000000E+00 0.  1.
</event>
<event>
 7    1  0.5831876E-006  0.6359566E+02  0.7561462E-02  0.1383333E+00
          2   -1    0    0  501    0  0.00000000000E+00  0.00000000000E+00  0.18725134462E+03  0.18725134462E+03  0.00000000000E+00 0. -1.
         -2   -1    0    0    0  501 -0.00000000000E+00 -0.00000000000E+00 -0.80981284242E+02  0.80981284242E+02  0.00000000000E+00 0.  1.
         23    2    1    2    0    0  0.94632614255E+00 -0.25711361584E+02 -0.11467849179E+02  0.94530493672E+02  0.90235985180E+02 0.  0.
          5    1    1    2  502    0  0.94265222629E+01 -0.73546143998E+01 -0.24318963352E+02  0.27419592511E+02  0.41800000000E+01 0. -1.
         -5    1    1    2    0  502 -0.10372848405E+02  0.33065975984E+02  0.14205687291E+03  0.14628254268E+03  0.41800000000E+01 0. -1.
        -11    1    3    3    0    0  0.71513106961E+01 -0.52060652454E+02 -0.31125614704E+02  0.61075827210E+02  0.00000000000E+00 0.  1.
         11    1    3    3    0    0 -0.62049845535E+01  0.26349290870E+02  0.19657765525E+02  0.33454666462E+02  0.00000000000E+00 0. -1.
</event>
<event>
 7    1  0.5831876E-006  0.1845699E+03  0.7561462E-02  0.1163452E+00
         -2   -1    0    0    0  501 -0.00000000000E+00  0.00000000000E+00  0.31030958212E+03  0.31030958212E+03  0.00000000000E+00 0. -1.
          2   -1    0    0  501    0  0.00000000000E+00 -0.00000000000E+00 -0.17790367947E+03  0.17790367947E+03  0.00000000000E+00 0.  1.
         23    2    1    2    0    0  0.10257916045E+03  0.13931516843E+03  0.17328531537E+03  0.27084186475E+03  0.11574245058E+03 0.  0.
          5    1    1    2  502    0  0.13644056351E+01 -0.42346359184E+02 -0.60324226820E+02  0.73834683451E+02  0.41800000000E+01 0. -1.
         -5    1    1    2    0  502 -0.10394356609E+03 -0.96968809241E+02  0.19444814096E+02  0.14353671339E+03  0.41800000000E+01 0. -1.
        -11    1    3    3    0    0  0.15619710399E+02  0.73907389852E+02  0.13644904400E+03  0.15596351893E+03  0.00000000000E+00 0.  1.
         11    1    3    3    0    0  0.86959450051E+02  0.65407778573E+02  0.36836271372E+02  0.11487834583E+03  0.00000000000E+00 0. -1.
</event>
<event>
 7    1  0.5831876E-006  0.1113647E+03  0.7561462E-02  0.1258063E+00
          1   -1    0    0  501    0  0.00000000000E+00  0.00000000000E+00  0.14161807517E+03  0.14161807517E+03  0.00000000000E+00 0. -1.
         -1   -1    0    0    0  501 -0.00000000000E+00 -0.00000000000E+00 -0.11538330567E+03  0.11538330567E+03  0.00000000000E+00 0.  1.
         23    2    1    2    0    0 -0.40723470406E+02 -0.49648298475E+02 -0.43305935905E+01  0.11308998115E+03  0.92990511407E+02 0.  0.
          5    1    1    2  502    0 -0.17911430827E+02  0.69915895050E+02 -0.46644987202E+01  0.72445025248E+02  0.41800000000E+01 0. -1.
         -5    1    1    2    0  502  0.58634901233E+02 -0.20267596574E+02  0.35229861806E+02  0.71466374445E+02  0.41800000000E+01 0. -1.
        -11    1    3    3    0    0  0.12328301815E+02 -0.28666299031E+02 -0.36158701001E+02  0.47761861185E+02  0.00000000000E+00 0.  1.
         11    1    3    3    0    0 -0.53051772221E+02 -0.20981999445E+02  0.31828107411E+02  0.65328119963E+02  0.00000000000E+00 0. -1.
</event>
<event>
 7    1  0.5831876E-006  0.1575244E+03  0.7561462E-02  0.1191520E+00
          2   -1    0    0  501    0  0.00000000000E+00  0.00000000000E+00  0.40103058198E+03  0.40103058198E+03  0.00000000000E+00 0.  1.
         -2   -1    0    0    0  501 -0.00000000000E+00 -0.00000000000E+00 -0.87125770648E+02  0.87125770648E+02  0.00000000000E+00 0. -1.
         23    2    1    2    0    0 -0.11226113400E+03  0.10270299414E+03  0.15468870880E+03  0.23488171929E+03  0.89946418586E+02 0.  0.
          5    1    1    2  502    0  0.89821651832E+02 -0.47607665201E+02  0.22620999430E+02  0.10422859943E+03  0.41800000000E+01 0.  1.
         -5    1    1    2    0  502  0.22439482171E+02 -0.55095328938E+02  0.13659510311E+03  0.14904603391E+03  0.41800000000E+01 0.  1.
        -11    1    3    3    0    0 -0.98505456054E+02  0.98453565623E+02  0.16591867073E+03  0.21662279371E+03  0.00000000000E+00 0.  1.
         11    1    3    3    0    0 -0.13755677949E+02  0.42494285159E+01 -0.11229961934E+02  0.18258925587E+02  0.00000000000E+00 0. -1.
</event>
<event>
 7    1  0.5831876E-006  0.1289988E+03  0.7561462E-02  0.1228949E+00
          2   -1    0    0  501    0  0.00000000000E+00  0.00000000000E+00  0.55446468609E+03  0.55446468609E+03  0.00000000000E+00 0. -1.
         -2   -1    0    0    0  501 -0.00000000000E+00 -0.00000000000E+00 -0.33608674012E+02  0.33608674012E+02  0.00000000000E+00 0.  1.
         23    2    1    2    0    0 -0.58881226626E+02  0.52949939035E+02  0.18711865212E+03  0.22297297681E+03  0.91830624084E+02 0.  0.
          5    1    1    2  502    0  0.63101059373E+02 -0.84493954287E+02  0.18544229103E+03  0.21337124387E+03  0.41800000000E+01 0.  1.
         -5    1    1    2    0  502 -0.42198327466E+01  0.31544015252E+02  0.14829506892E+03  0.15172913943E+03  0.41800000000E+01 0.  1.
        -11    1    3    3    0    0  0.22183062403E+02 -0.22348168543E+01  0.24958549814E+02  0.33466578444E+02  0.00000000000E+00 0.  1.
         11    1    3    3    0    0 -0.81064289029E+02  0.55184755889E+02  0.16216010231E+03  0.18950639836E+03  0.00000000000E+00 0. -1.
</event>
<event>
 7    1  0.5831876E-006  0.1009329E+03  0.7561462E-02  0.1278346E+00
          2   -1    0    0  501    0  0.00000000000E+00  0.00000000000E+00  0.18388894257E+03  0.18388894257E+03  0.00000000000E+00 0. -1.
         -2   -1    0    0    0  501 -0.00000000000E+00 -0.00000000000E+00 -0.75647671650E+02  0.75647671650E+02  0.00000000000E+00 0.  1.
         23    2    1    2    0    0 -0.20866766490E+02 -0.42380849193E+02  0.39886194126E+02  0.10935804664E+03  0.90203744711E+02 0.  0.
          5    1    1    2  502    0 -0.46927990910E+02  0.20510697802E+01  0.50687870983E+02  0.69232765963E+02  0.41800000000E+01 0. -1.
         -5    1    1    2    0  502  0.67794757400E+02  0.40329779413E+02  0.17667205808E+02  0.80945801618E+02  0.41800000000E+01 0. -1.
        -11    1    3    3    0    0 -0.31192111967E+02  0.91249406492E+00 -0.18242812785E+02  0.36146655622E+02  0.00000000000E+00 0.  1.
         11    1    3    3    0    0  0.10325345476E+02 -0.43293343258E+02  0.58129006911E+02  0.73211391013E+02  0.00000000000E+00 0. -1.
</event>
<event>
 7    1  0.5831876E-006  0.1330629E+03  0.7561462E-02  0.1222980E+00
         -1   -1    0    0    0  501 -0.00000000000E+00  0.00000000000E+00  0.27750919846E+02  0.27750919846E+02  0.00000000000E+00 0.  1.
          1   -1    0    0  501    0  0.00000000000E+00 -0.00000000000E+00 -0.80142832661E+03  0.80142832661E+03  0.00000000000E+00 0. -1.
         23    2    1    2    0    0  0.10132649290E+03 -0.39845441847E+01 -0.25766294483E+03  0.29134929361E+03  0.90616129846E+02 0.  0.
          5    1    1    2  502    0  0.24654440331E+02  0.53064791136E+01 -0.85428996872E+02  0.89171666213E+02  0.41800000000E+01 0. -1.
         -5    1    1    2    0  502 -0.12598093323E+03 -0.13219349290E+01 -0.43058546506E+03  0.44865828664E+03  0.41800000000E+01 0.  1.
        -11    1    3    3    0    0  0.54912969498E+02  0.24411593324E+02 -0.54843964105E+02  0.81358592088E+02  0.00000000000E+00 0.  1.
         11    1    3    3    0    0  0.46413523400E+02 -0.28396137509E+02 -0.20281898073E+03  0.20999070152E+03  0.00000000000E+00 0. -1.
</event>
<event>
 7    1  0.5831876E-006  0.2469480E+03  0.7561462E-02  0.1115249E+00
          2   -1    0    0  501    0  0.00000000000E+00  0.00000000000E+00  0.58091948452E+03  0.58091948452E+03  0.00000000000E+00 0. -1.
         -2   -1    0    0    0  501 -0.00000000000E+00 -0.00000000000E+00 -0.15176091427E+03  0.15176091427E+03  0.00000000000E+00 0.  1.
         23    2    1    2    0    0  0.24119260375E+03  0.66094779385E+01  0.44110408626E+02  0.26137681920E+03  0.90302581169E+02 0.  0.
          5    1    1    2  502    0 -0.92942332831E+02  0.65855506385E+01  0.52703832594E+02  0.10712988882E+03  0.41800000000E+01 0.  1.
         -5    1    1    2    0  502 -0.14825027092E+03 -0.13195028577E+02  0.33234432904E+03  0.36417369077E+03  0.41800000000E+01 0.  1.
        -11    1    3    3    0    0  0.20495540727E+03  0.32063497405E+02  0.57217078964E+02  0.21519428654E+03  0.00000000000E+00 0. -1.
         11    1    3    3    0    0  0.36237196480E+02 -0.25454019467E+02 -0.13106670338E+02  0.46182532662E+02  0.00000000000E+00 0.  1.
</event>
<event>
 7    1  0.5831876E-006  0.1077163E+03  0.7561462E-02  0.1264858E+00
          2   -1    0    0  501    0  0.00000000000E+00  0.00000000000E+00  0.21766925668E+04  0.21766925668E+04  0.00000000000E+00 0. -1.
         -2   -1    0    0    0  501 -0.00000000000E+00 -0.00000000000E+00 -0.20374171737E+02  0.20374171737E+02  0.00000000000E+00 0.  1.
         23    2    1    2    0    0 -0.82677393363E+02 -0.61776904695E+02  0.25609027132E+03  0.28993132709E+03  0.88464738933E+02 0.  0.
          5    1    1    2  502    0  0.46150788594E+02  0.34334833265E+02  0.26233448042E+03  0.26859938213E+03  0.41800000000E+01 0.  1.
         -5    1    1    2    0  502  0.36526604769E+02  0.27442071431E+02  0.16378936433E+04  0.16385360293E+04  0.41800000000E+01 0.  1.
        -11    1    3    3    0    0 -0.51148746055E+02 -0.61970269041E+02  0.89057815176E+02  0.11994916803E+03  0.00000000000E+00 0.  1.
         11    1    3    3    0    0 -0.31528647308E+02  0.19336434582E+00  0.16703245614E+03  0.16998215905E+03  0.00000000000E+00 0. -1.
</event>
<event>
 7    1  0.5831876E-006  0.3035036E+03  0.7561462E-02  0.1083502E+00
         -2   -1    0    0    0  501 -0.00000000000E+00  0.00000000000E+00  0.12160723273E+03  0.12160723273E+03  0.00000000000E+00 0.  1.
          2   -1    0    0  501    0  0.00000000000E+00 -0.00000000000E+00 -0.92986775718E+03  0.92986775718E+03  0.00000000000E+00 0. -1.
         23    2    1    2    0    0  0.13136569838E+03  0.25420525629E+03 -0.17984149078E+03  0.34973685824E+03  0.89975825483E+02 0.  0.
          5    1    1    2  502    0 -0.20125542241E+02 -0.16164379241E+03 -0.27250705942E+03  0.31750798873E+03  0.41800000000E+01 0.  1.
         -5    1    1    2    0  502 -0.11124015613E+03 -0.92561463878E+02 -0.35591197425E+03  0.38423014295E+03  0.41800000000E+01 0.  1.
        -11    1    3    3    0    0  0.12567812205E+03  0.15334187575E+03 -0.10798139459E+03  0.22576249201E+03  0.00000000000E+00 0.  1.
         11    1    3    3    0    0  0.56875763271E+01  0.10086338054E+03 -0.71860096197E+02  0.12397436623E+03  0.00000000000E+00 0. -1.
</event>
<event>
 7    1  0.5831876E-006  0.1202065E+03  0.7561462E-02  0.1242757E+00
          1   -1    0    0  501    0  0.00000000000E+00  0.00000000000E+00  0.23033543314E+03  0.23033543314E+03  0.00000000000E+00 0. -1.
         -1   -1    0    0    0  501 -0.00000000000E+00 -0.00000000000E+00 -0.10501651664E+03  0.10501651664E+03  0.00000000000E+00 0.  1.
         23    2    1    2    0    0 -0.10253872874E+03 -0.22426839473E+02  0.62520053589E+02  0.16039937849E+03  0.10393290863E+03 0.  0.
          5    1    1    2  502    0  0.53811726732E+02  0.53786945402E+02  0.83719149526E+02  0.11320382426E+03  0.41800000000E+01 0.  1.
         -5    1    1    2    0  502  0.48727002010E+02 -0.31360105929E+02 -0.20920286614E+02  0.61748747038E+02  0.41800000000E+01 0.  1.
        -11    1    3    3    0    0 -0.31415751981E+02 -0.14348145641E+02 -0.28378134826E+02  0.44700528991E+02  0.00000000000E+00 0.  1.
         11    1    3    3    0    0 -0.71122976761E+02 -0.80786938326E+01  0.90898188414E+02  0.11569884949E+03  0.00000000000E+00 0. -1.
</event>
<event>
 7    1  0.5831876E-006  0.1138715E+03  0.7561462E-02  0.1253564E+00
          3   -1    0    0  501    0  0.00000000000E+00  0.00000000000E+00  0.65080396094E+02  0.65080396094E+02  0.00000000000E+00 0. -1.
         -3   -1    0    0    0  501 -0.00000000000E+00 -0.00000000000E+00 -0.26860922975E+03  0.26860922975E+03  0.00000000000E+00 0.  1.
         23    2    1    2    0    0  0.65056514184E+02 -0.22946644650E+02 -0.12937963176E+03  0.17274023373E+03  0.91330174082E+02 0.  0.
          5    1    1    2  502    0 -0.61529077909E+02  0.63603239187E+02 -0.80176458721E+02  0.11948613475E+03  0.41800000000E+01 0. -1.
         -5    1    1    2    0  502 -0.35274362752E+01 -0.40656594537E+02  0.60272568283E+01  0.41463257360E+02  0.41800000000E+01 0. -1.
        -11    1    3    3    0    0  0.62407343313E+01  0.22785226175E+02 -0.79860718014E+02  0.83281736165E+02  0.00000000000E+00 0.  1.
         11    1    3    3    0    0  0.58815779852E+02 -0.45731870825E+02 -0.49518913744E+02  0.89458497569E+02  0.00000000000E+00 0. -1.
</event>
<event>
 7    1  0.5831876E-006  0.1058172E+03  0.7561462E-02  0.1268518E+00
         -1   -1    0    0    0  501 -0.00000000000E+00  0.00000000000E+00  0.33250413310E+03  0.33250413310E+03  0.00000000000E+00 0.  1.
          1   -1    0    0  501    0  0.00000000000E+00 -0.00000000000E+00 -0.62941046791E+02  0.62941046791E+02  0.00000000000E+00 0. -1.
         23    2    1    2    0    0  0.72081142686E+02  0.59240778120E+02  0.13987772168E+03  0.19253884686E+03  0.93809752177E+02 0.  0.
          5    1    1    2  502    0 -0.58583726203E+02 -0.23870962669E+02  0.14773088513E+03  0.16075995352E+03  0.41800000000E+01 0. -1.
         -5    1    1    2    0  502 -0.13497416483E+02 -0.35369815451E+02 -0.18045520495E+02  0.42146379520E+02  0.41800000000E+01 0. -1.
        -11    1    3    3    0    0  0.16964049612E+02  0.51829707945E+02  0.12279635250E+03  0.13436160833E+03  0.00000000000E+00 0.  1.
         11    1    3    3    0    0  0.55117093074E+02  0.74110701746E+01  0.17081369183E+02  0.58177238532E+02  0.00000000000E+00 0. -1.
</event>
<event>
 7    1  0.5831876E-006  0.9750546E+02  0.7561462E-02  0.1285631E+00
         -1   -1    0    0    0  501 -0.00000000000E+00  0.00000000000E+00  0.16611864651E+02  0.16611864651E+02  0.00000000000E+00 0. -1.
          1   -1    0    0  501    0  0.00000000000E+00 -0.00000000000E+00 -0.75568372624E+03  0.75568372624E+03  0.00000000000E+00 0.  1.
         23    2    1    2    0    0 -0.10186662068E+02 -0.22159407945E+02 -0.25194828571E+03  0.26877706073E+03  0.90378992345E+02 0.  0.
          5    1    1    2  502    0 -0.34796099740E+02 -0.30520615583E+02 -0.30683570082E+03  0.31033513535E+03  0.41800000000E+01 0. -1.
         -5    1    1    2    0  502  0.44982761808E+02  0.52680023528E+02 -0.18028787505E+03  0.19318339481E+03  0.41800000000E+01 0. -1.
        -11    1    3    3    0    0 -0.43029663216E+02 -0.10539025056E+02 -0.20815348997E+03  0.21281564405E+03  0.00000000000E+00 0.  1.
         11    1    3    3    0    0  0.32843001148E+02 -0.11620382889E+02 -0.43794795742E+02  0.55961416681E+02  0.00000000000E+00 0. -1.
</event>
<event>
 7    1  0.5831876E-006  0.2270248E+03  0.7561462E-02  0.1128752E+00
          1   -1    0    0  501    0  0.00000000000E+00  0.00000000000E+00  0.12646345554E+04  0.12646345554E+04  0.00000000000E+00 0. -1.
         -1   -1    0    0    0  501 -0.00000000000E+00 -0.00000000000E+00 -0.96398741175E+02  0.96398741175E+02  0.00000000000E+00 0.  1.
         23    2    1    2    0    0  0.49506585656E+02 -0.99835553247E+02 -0.81131061973E+01  0.14409788370E+03  0.90996361901E+02 0.  0.
          5    1    1    2  502    0 -0.98658884856E+02  0.18688979136E+03  0.77616971763E+03  0.80443661816E+03  0.41800000000E+01 0. -1.
         -5    1    1    2    0  502  0.49152299200E+02 -0.87054238113E+02  0.40017920276E+03  0.41249879468E+03  0.41800000000E+01 0.  1.
        -11    1    3    3    0    0  0.32091769336E+02 -0.11508070137E+03 -0.13795947628E+02  0.12026544665E+03  0.00000000000E+00 0.  1.
         11    1    3    3    0    0  0.17414816319E+02  0.15245148127E+02  0.56828414310E+01  0.23832437047E+02  0.00000000000E+00 0. -1.
</event>
<event>
 7    1  0.5831876E-006  0.2538743E+03  0.7561462E-02  0.1110881E+00
         -1   -1    0    0    0  501 -0.00000000000E+00  0.00000000000E+00  0.40605675288E+03  0.40605675288E+03  0.00000000000E+00 0.  1.
          1   -1    0    0  501    0  0.00000000000E+00 -0.00000000000E+00 -0.17403994621E+03  0.17403994621E+03  0.00000000000E+00 0. -1.
         23    2    1    2    0    0  0.23758134489E+03 -0.21877705733E+02  0.64005048631E+02  0.26260755239E+03  0.89120990090E+02 0.  0.
          5    1    1    2  502    0 -0.22649015145E+03  0.46482578578E+02  0.17415915720E+03  0.28949491058E+03  0.41800000000E+01 0.  1.
         -5    1    1    2    0  502 -0.11091193444E+02 -0.24604872845E+02 -0.61473991564E+01  0.27994236123E+02  0.41800000000E+01 0. -1.
        -11    1    3    3    0    0  0.97511621410E+02 -0.44705997000E+02  0.54628633098E+02  0.12038035567E+03  0.00000000000E+00 0.  1.
         11    1    3    3    0    0  0.14006972348E+03  0.22828291267E+02  0.93764155325E+01  0.14222719672E+03  0.00000000000E+00 0. -1.
</event>
<event>
 7    1  0.5831876E-006  0.9542952E+02  0.7561462E-02  0.1290212E+00
          1   -1    0    0  501    0  0.00000000000E+00  0.00000000000E+00  0.17650607932E+03  0.17650607932E+03  0.00000000000E+00 0. -1.
         -1   -1    0    0    0  501 -0.00000000000E+00 -0.00000000000E+00 -0.11511895406E+03  0.11511895406E+03  0.00000000000E+00 0.  1.
         23    2    1    2    0    0  0.72523066900E+02 -0.30119588241E+02 -0.19451657303E+02  0.12326529841E+03  0.93000978440E+02 0.  0.
          5    1    1    2  502    0 -0.39421464319E+02  0.16176265549E+02  0.11245277740E+03  0.12032798079E+03  0.41800000000E+01 0. -1.
         -5    1    1    2    0  502 -0.33101602581E+02  0.13943322692E+02 -0.31613994836E+02  0.48031754191E+02  0.41800000000E+01 0. -1.
        -11    1    3    3    0    0  0.50453819541E+02  0.22182430291E+02  0.14667731932E+02  0.57033240131E+02  0.00000000000E+00 0. -1.
         11    1    3    3    0    0  0.22069247359E+02 -0.52302018532E+02 -0.34119389234E+02  0.66232058274E+02  0.00000000000E+00 0.  1.
</event>
<event>
 7    1  0.5831876E-006  0.1185157E+03  0.7561462E-02  0.1245566E+00
         -1   -1    0    0    0  501 -0.00000000000E+00  0.00000000000E+00  0.92717652712E+02  0.92717652712E+02  0.00000000000E+00 0.  1.
          1   -1    0    0  501    0  0.00000000000E+00 -0.00000000000E+00 -0.22953267150E+03  0.22953267150E+03  0.00000000000E+00 0. -1.
         23    2    1    2    0    0 -0.56918239259E+02  0.68345200885E+02 -0.21322749645E+02  0.13016373600E+03  0.92613098825E+02 0.  0.
          5    1    1    2  502    0  0.37730651023E+02  0.29519634101E+02 -0.14822880147E+02  0.50320979719E+02  0.41800000000E+01 0. -1.
         -5    1    1    2    0  502  0.19187588236E+02 -0.97864834986E+02 -0.10066938900E+03  0.14176560849E+03  0.41800000000E+01 0. -1.
        -11    1    3    3    0    0 -0.15689314016E+02  0.22994137293E+02 -0.53965837230E+02  0.60722290076E+02  0.00000000000E+00 0. -1.
         11    1    3    3    0    0 -0.41228925243E+02  0.45351063593E+02  0.32643087585E+02  0.69441445929E+02  0.00000000000E+00 0.  1.
</event>
<event>
 7    1  0.5831876E-006  0.1284101E+03  0.7561462E-02  0.1229834E+00
          1   -1    0    0  501    0  0.00000000000E+00  0.00000000000E+00  0.34062978925E+03  0.34062978925E+03  0.00000000000E+00 0.  1.
         -1   -1    0    0    0  501 -0.00000000000E+00 -0.00000000000E+00 -0.11989652680E+03  0.11989652680E+03  0.00000000000E+00 0. -1.
         23    2    1    2    0    0  0.11813888209E+01  0.87182272447E+02 -0.61053523769E+02  0.14013114012E+03  0.91143070824E+02 0.  0.
          5    1    1    2  502    0  0.39284686027E+02 -0.97893823061E+02  0.16128192249E+03  0.19275844488E+03  0.41800000000E+01 0.  1.
         -5    1    1    2    0  502 -0.40466074847E+02  0.10711550614E+02  0.12050486373E+03  0.12763673105E+03  0.41800000000E+01 0.  1.
        -11    1    3    3    0    0 -0.25503573712E+02  0.97804554264E+01  0.12529462889E+02  0.30051239920E+02  0.00000000000E+00 0.  1.
         11    1    3    3    0    0  0.26684962533E+02  0.77401817020E+02 -0.73582986658E+02  0.11007990020E+03  0.00000000000E+00 0. -1.
</event>
<event>
 7    1  0.5831876E-006  0.1521192E+03  0.7561462E-02  0.1197893E+00
         -2   -1    0    0    0  501 -0.00000000000E+00  0.00000000000E+00  0.14004910289E+03  0.14004910289E+03  0.00000000000E+00 0.  1.
          2   -1    0    0  501    0  0.00000000000E+00 -0.00000000000E+00 -0.20660973007E+03  0.20660973007E+03  0.00000000000E+00 0. -1.
         23    2    1    2    0    0 -0.97375248228E+02  0.45444912757E+02  0.44676019288E+02  0.14773957594E+03  0.91015693901E+02 0.  0.
          5    1    1    2  502    0 -0.36072980851E+01  0.34381854780E+02 -0.13948134250E+02  0.37511963246E+02  0.41800000000E+01 0.  1.
         -5    1    1    2    0  502  0.10098254631E+03 -0.79826767537E+02 -0.97288512220E+02  0.16140729378E+03  0.41800000000E+01 0.  1.
        -11    1    3    3    0    0 -0.21778377209E+02  0.59830579594E+02  0.16333136826E+02  0.65732543896E+02  0.00000000000E+00 0. -1.
         11    1    3    3    0    0 -0.75596871020E+02 -0.14385666837E+02  0.28342882462E+02  0.82007032043E+02  0.00000000000E+00 0.  1.
</event>
<event>
 7    1  0.5831876E-006  0.9578159E+02  0.7561462E-02  0.1289425E+00
          2   -1    0    0  501    0  0.00000000000E+00  0.00000000000E+00  0.10451098655E+03  0.10451098655E+03  0.00000000000E+00 0. -1.
         -2   -1    0    0    0  501 -0.00000000000E+00 -0.00000000000E+00 -0.12830009176E+03  0.12830009176E+03  0.00000000000E+00 0.  1.
         23    2    1    2    0    0  0.35255910551E+02 -0.12841892340E+02 -0.40945714200E+02  0.10103660573E+03  0.84403499683E+02 0.  0.
          5    1    1    2  502    0 -0.56246574453E+02 -0.20172299355E+02 -0.32714399112E+02  0.68251762675E+02  0.41800000000E+01 0.  1.
         -5    1    1    2    0  502  0.20990663902E+02  0.33014191694E+02  0.49871008100E+02  0.63522709901E+02  0.41800000000E+01 0.  1.
        -11    1    3    3    0    0 -0.22042550985E+02  0.16885538784E+02 -0.13851216870E+02  0.31029851478E+02  0.00000000000E+00 0. -1.
         11    1    3    3    0    0  0.57298461536E+02 -0.29727431124E+02 -0.27094497330E+02  0.70006754254E+02  0.00000000000E+00 0.  1.
</event>
<event>
 7    1  0.5831876E-006  0.9951624E+02  0.7561462E-02  0.1281317E+00
         -1   -1    0    0    0  501 -0.00000000000E+00  0.00000000000E+00  0.98999944937E+02  0.98999944937E+02  0.00000000000E+00 0.  1.
          1   -1    0    0  501    0  0.00000000000E+00 -0.00000000000E+00 -0.13512273162E+03  0.13512273162E+03  0.00000000000E+00 0. -1.
         23    2    1    2    0    0  0.75392149046E+01 -0.36269917160E+02  0.41727476925E+01  0.97581800261E+02  0.90180093517E+02 0.  0.
          5    1    1    2  502    0  0.35147529221E+02 -0.12970278253E+02 -0.57734274954E+02  0.68951401964E+02  0.41800000000E+01 0. -1.
         -5    1    1    2    0  502 -0.42686744126E+02  0.49240195413E+02  0.17438740574E+02  0.67589474337E+02  0.41800000000E+01 0. -1.
        -11    1    3    3    0    0  0.44381491108E+02 -0.66495273338E-01  0.10315974193E+02  0.45564684770E+02  0.00000000000E+00 0.  1.
         11    1    3    3    0    0 -0.36842276204E+02 -0.36203421887E+02 -0.61432265009E+01  0.52017115491E+02  0.00000000000E+00 0. -1.
</event>
<event>
 7    1  0.5831876E-006  0.1446974E+03  0.7561462E-02  0.1207144E+00
         -3   -1    0    0    0  501 -0.00000000000E+00  0.00000000000E+00  0.27704302066E+03  0.27704302066E+03  0.00000000000E+00 0.  1.
          3   -1    0    0  501    0  0.00000000000E+00 -0.00000000000E+00 -0.92518962440E+02  0.92518962440E+02  0.00000000000E+00 0. -1.
         23    2    1    2    0    0 -0.10597709234E+03  0.51679405172E+02  0.84789131783E+02  0.17082478668E+03  0.89944459835E+02 0.  0.
          5    1    1    2  502    0  0.13356232123E+03 -0.39659954745E+02  0.93160651170E+02  0.16765495814E+03  0.41800000000E+01 0. -1.
         -5    1    1    2    0  502 -0.27585228887E+02 -0.12019450427E+02  0.65742752617E+01  0.31082238281E+02  0.41800000000E+01 0. -1.
        -11    1    3    3    0    0 -0.43563184688E+02  0.32439907534E+02 -0.10481168036E+02  0.55316846840E+02  0.00000000000E+00 0. -1.
         11    1    3    3    0    0 -0.62413907651E+02  0.19239497638E+02  0.95270299819E+02  0.11550793984E+03  0.00000000000E+00 0.  1.
</event>
<event>
 7    1  0.5831876E-006  0.9976380E+02  0.7561462E-02  0.1280793E+00
          2   -1    0    0  501    0  0.00000000000E+00  0.00000000000E+00  0.14702814918E+03  0.14702814918E+03  0.00000000000E+00 0. -1.
         -2   -1    0    0    0  501 -0.00000000000E+00 -0.00000000000E+00 -0.82158466423E+02  0.82158466423E+02  0.00000000000E+00 0.  1.
         23    2    1    2    0    0 -0.25812638152E+02 -0.99757301226E+01  0.37124036978E+02  0.98101486664E+02  0.86486415606E+02 0.  0.
          5    1    1    2  502    0  0.56579426817E+02 -0.32154651719E+02 -0.10781776530E+02  0.66097445271E+02  0.41800000000E+01 0. -1.
         -5    1    1    2    0  502 -0.30766788666E+02  0.42130381841E+02  0.38527422311E+02  0.64987683670E+02  0.41800000000E+01 0. -1.
        -11    1    3    3    0    0 -0.52927685556E+02 -0.13537846684E+02  0.34770854651E+01  0.54742152995E+02  0.00000000000E+00 0.  1.
         11    1    3    3    0    0  0.27115047405E+02  0.35621165614E+01  0.33646951513E+02  0.43359333670E+02  0.00000000000E+00 0. -1.
</event>
<event>
 6    1  0.5831876E-006  0.1030170E+03  0.7561462E-02  0.1274077E+00
          1   -1    0    0  501    0  0.00000000000E+00  0.00000000000E+00  0.65046864210E+03  0.65046864210E+03  0.00000000000E+00 0. -1.
         -1   -1    0    0    0  501 -0.00000000000E+00 -0.00000000000E+00 -0.11766763193E+03  0.11766763193E+03  0.00000000000E+00 0.  1.
          5    1    1    2  502    0  0.48580327785E+02 -0.34887566467E+02  0.32628488926E+03  0.33174763285E+03  0.41800000000E+01 0. -1.
         -5    1    1    2    0  502 -0.31945934095E+02  0.37253104741E+02  0.10789426571E+03  0.11860430637E+03  0.41800000000E+01 0.  1.
        -11    1    1    2    0    0  0.35432388697E+02  0.19396853982E+02 -0.10182536481E+03  0.10954495439E+03  0.00000000000E+00 0.  1.
         11    1    1    2    0    0 -0.52066782387E+02 -0.21762392256E+02  0.20044722002E+03  0.20823938042E+03  0.00000000000E+00 0. -1.
</event>
<event>
 7    1  0.5831876E-006  0.9107744E+02  0.7561462E-02  0.1300263E+00
          2   -1    0    0  501    0  0.00000000000E+00  0.00000000000E+00  0.12449176212E+03  0.12449176212E+03  0.00000000000E+00 0. -1.
         -2   -1    0    0    0  501 -0.00000000000E+00 -0.00000000000E+00 -0.35841967133E+03  0.35841967133E+03  0.00000000000E+00 0.  1.
         23    2    1    2    0    0 -0.84841012349E+02 -0.12328209288E+02 -0.29374981222E+03  0.31988820226E+03  0.93217635908E+02 0.  0.
          5    1    1    2  502    0  0.17135075004E+02  0.76210081881E+01  0.87517207977E+02  0.89601476848E+02  0.41800000000E+01 0. -1.
         -5    1    1    2    0  502  0.67705937345E+02  0.47072010995E+01 -0.27695304957E+02  0.73421754342E+02  0.41800000000E+01 0. -1.
        -11    1    3    3    0    0 -0.72450112792E+01 -0.15682153299E+02 -0.13259639545E+01  0.17325654416E+02  0.00000000000E+00 0. -1.
         11    1    3    3    0    0 -0.77596001070E+02  0.33539440115E+01 -0.29242384827E+03  0.30256254784E+03  0.00000000000E+00 0.  1.
</event>
<event>
 7    1  0.5831876E-006  0.1067191E+03  0.7561462E-02  0.1266769E+00
         -1   -1    0    0    0  501 -0.00000000000E+00  0.00000000000E+00  0.79743748774E+02  0.79743748774E+02  0.00000000000E+00 0.  1.
          1   -1    0    0  501    0  0.00000000000E+00 -0.00000000000E+00 -0.36707857901E+03  0.36707857901E+03  0.00000000000E+00 0. -1.
         23    2    1    2    0    0  0.87322754096E+01  0.67633938195E+02  0.93007071756E+01  0.11774685689E+03  0.95536469075E+02 0.  0.
          5    1    1    2  502    0 -0.60287107606E+02 -0.48111377733E+01 -0.11354609149E+03  0.12871623706E+03  0.41800000000E+01 0. -1.
         -5    1    1    2    0  502  0.51554832197E+02 -0.62822800422E+02 -0.18308944592E+03  0.20035923384E+03  0.41800000000E+01 0. -1.
        -11    1    3    3    0    0 -0.69826944762E+01  0.15778724976E+02  0.48101627196E+02  0.51102766294E+02  0.00000000000E+00 0.  1.
         11    1    3    3    0    0  0.15714969886E+02  0.51855213219E+02 -0.38800920021E+02  0.66644090593E+02  0.00000000000E+00 0. -1.
</event>
<event>
 7    1  0.5831876E-006  0.1353692E+03  0.7561462E-02  0.1219699E+00
          3   -1    0    0  501    0  0.00000000000E+00  0.00000000000E+00  0.15334519872E+03  0.15334519872E+03  0.00000000000E+00 0. -1.
         -3   -1    0    0    0  501 -0.00000000000E+00 -0.00000000000E+00 -0.18854704556E+03  0.18854704556E+03  0.00000000000E+00 0.  1.
         23    2    1    2    0    0 -0.52999230603E+02  0.90313538199E+02 -0.92660857281E+02  0.16893455742E+03  0.94801880746E+02 0.  0.
          5    1    1    2  502    0  0.42548100455E+02 -0.45516122951E+01 -0.28044605458E+02  0.51332546421E+02  0.41800000000E+01 0.  1.
         -5    1    1    2    0  502  0.10451130148E+02 -0.85761925903E+02  0.85503615898E+02  0.12162514044E+03  0.41800000000E+01 0.  1.
        -11    1    3    3    0    0 -0.42106118751E+02 -0.75507864929E+01 -0.28894479540E+02  0.51621996870E+02  0.00000000000E+00 0. -1.
         11    1    3    3    0    0 -0.10893111851E+02  0.97864324691E+02 -0.63766377740E+02  0.11731256055E+03  0.00000000000E+00 0.  1.
</event>
<event>
 7    1  0.5831876E-006  0.1372786E+03  0.7561462E-02  0.1217038E+00
          2   -1    0    0  501    0  0.00000000000E+00  0.00000000000E+00  0.97113948580E+03  0.97113948580E+03  0.00000000000E+00 0. -1.
         -2   -1    0    0    0  501 -0.00000000000E+00 -0.00000000000E+00 -0.55363628663E+02  0.55363628663E+02  0.00000000000E+00 0.  1.
         23    2    1    2    0    0 -0.88103012044E+02  0.85853267434E+02  0.10546496882E+03  0.18339581211E+03  0.85896682068E+02 0.  0.
          5    1    1    2  502    0  0.84210357735E+02 -0.62525231275E+02  0.81225704030E+03  0.81901145341E+03  0.41800000000E+01 0. -1.
         -5    1    1    2    0  502  0.38926543083E+01 -0.23328036158E+02 -0.19461519910E+01  0.24095848940E+02  0.41800000000E+01 0.  1.
        -11    1    3    3    0    0 -0.96263972153E+02  0.49367062114E+02  0.57297565583E+02  0.12242087313E+03  0.00000000000E+00 0.  1.
         11    1    3    3    0    0  0.81609601095E+01  0.36486205320E+02  0.48167403240E+02  0.60974938979E+02  0.00000000000E+00 0. -1.
</event>
<event>
 7    1  0.7917023E-006  0.1840994E+03  0.7561462E-02  0.1163894E+00
          2   -1    0    0  501    0  0.00000000000E+00  0.00000000000E+00  0.79876844744E+03  0.79876844744E+03  0.00000000000E+00 0. -1.
         -2   -1    0    0    0  501 -0.00000000000E+00 -0.00000000000E+00 -0.47322364864E+02  0.47322364864E+02  0.00000000000E+00 0.  1.
         23    2    1    2    0    0 -0.12636529751E+03 -0.84995452940E+02  0.24604649614E+03  0.30362557106E+03  0.91963001823E+02 0.  0.
          5    1    1    2  502    0  0.24631220898E+01 -0.28534014525E+02  0.70784722915E+02  0.76473566371E+02  0.41800000000E+01 0.  1.
         -5    1    1    2    0  502  0.12390217542E+03  0.11352946746E+03  0.43461486352E+03  0.46599167487E+03  0.41800000000E+01 0.  1.
        -11    1    3    3    0    0 -0.32960558925E+02  0.13312880781E+02  0.22207816591E+02  0.41914417055E+02  0.00000000000E+00 0.  1.
         11    1    3    3    0    0 -0.93404738584E+02 -0.98308333720E+02  0.22383867955E+03  0.26171115401E+03  0.00000000000E+00 0. -1.
</event>
<event>
 7    1  0.5831876E-006  0.2154564E+03  0.7561462E-02  0.1137317E+00
         -1   -1    0    0    0  501 -0.00000000000E+00  0.00000000000E+00  0.20915657185E+03  0.20915657185E+03  0.00000000000E+00 0.  1.
          1   -1    0    0  501    0  0.00000000000E+00 -0.00000000000E+00 -0.22582134071E+03  0.22582134071E+03  0.00000000000E+00 0. -1.
         23    2    1    2    0    0 -0.47885757338E+02  0.17897888670E+03  0.20116789962E+02  0.20842389610E+03  0.93323885413E+02 0.  0.
          5    1    1    2  502    0  0.85283837557E+02 -0.77809855410E+02 -0.22153185570E+02  0.11762628354E+03  0.41800000000E+01 0.  1.
         -5    1    1    2    0  502 -0.37398080219E+02 -0.10116903129E+03 -0.14628373253E+02  0.10892773292E+03  0.41800000000E+01 0.  1.
        -11    1    3    3    0    0 -0.75560487485E+02  0.14603427736E+03  0.16098351401E+02  0.16521063632E+03  0.00000000000E+00 0.  1.
         11    1    3    3    0    0  0.27674730147E+02  0.32944609334E+02  0.40184385601E+01  0.43213259786E+02  0.00000000000E+00 0. -1.
</event>
<event>
 6    1  0.5831876E-006  0.1588608E+03  0.7561462E-02  0.1189989E+00
          1   -1    0    0  501    0  0.00000000000E+00  0.00000000000E+00  0.79750592431E+02  0.79750592431E+02  0.00000000000E+00 0. -1.
         -1   -1    0    0    0  501 -0.00000000000E+00 -0.00000000000E+00 -0.33994669123E+03  0.33994669123E+03  0.00000000000E+00 0.  1.
          5    1    1    2  502    0 -0.12065811283E+03  0.21430812139E+02 -0.56194471699E+02  0.13488124758E+03  0.41800000000E+01 0. -1.
         -5    1    1    2    0  502  0.24675700763E+02 -0.17551488631E+02 -0.38221913125E+02  0.48942129135E+02  0.41800000000E+01 0. -1.
        -11    1    1    2    0    0  0.65785619488E+02 -0.67411847298E+02 -0.11732467679E+03  0.15045658733E+03  0.00000000000E+00 0.  1.
         11    1    1    2    0    0  0.30196792576E+02  0.63532523791E+02 -0.48455037186E+02  0.85417319613E+02  0.00000000000E+00 0. -1.
</event>
<event>
 7    1  0.5831876E-006  0.1257971E+03  0.7561462E-02  0.1233829E+00
         -2   -1    0    0    0  501 -0.00000000000E+00  0.00000000000E+00  0.12177094009E+03  0.12177094009E+03  0.00000000000E+00 0.  1.
          2   -1    0    0  501    0  0.00000000000E+00 -0.00000000000E+00 -0.33133159040E+03  0.33133159040E+03  0.00000000000E+00 0. -1.
         23    2    1    2    0    0  0.13666475098E+02 -0.86251695425E+02  0.46558918381E+02  0.15499371499E+03  0.11928617397E+03 0.  0.
          5    1    1    2  502    0 -0.37877148372E+02  0.36170378885E+02 -0.21198077044E+02  0.56655145820E+02  0.41800000000E+01 0.  1.
         -5    1    1    2    0  502  0.24210673274E+02  0.50081316540E+02 -0.23492149165E+03  0.24145366968E+03  0.41800000000E+01 0.  1.
        -11    1    3    3    0    0 -0.49200020819E+02 -0.52369282665E+02  0.42383366975E+01  0.71980186950E+02  0.00000000000E+00 0.  1.
         11    1    3    3    0    0  0.62866495918E+02 -0.33882412760E+02  0.42320581683E+02  0.83013528038E+02  0.00000000000E+00 0. -1.
</event>
<event>
 7    1  0.5831876E-006  0.1451864E+03  0.7561462E-02  0.1206516E+00
         -2   -1    0    0    0  501 -0.00000000000E+00  0.00000000000E+00  0.14504495806E+02  0.14504495806E+02  0.00000000000E+00 0.  1.
          2   -1    0    0  501    0  0.00000000000E+00 -0.00000000000E+00 -0.31216197370E+04  0.31216197370E+04  0.00000000000E+00 0. -1.
         23    2    1    2    0    0 -0.11863738218E+03  0.27464213513E+02 -0.50506438744E+03  0.52750896725E+03  0.91359529271E+02 0.  0.
          5    1    1    2  502    0  0.12193365733E+03 -0.12279577433E+02 -0.25682941172E+04  0.25712197008E+04  0.41800000000E+01 0. -1.
         -5    1    1    2    0  502 -0.32962751487E+01 -0.15184636081E+02 -0.33756736533E+02  0.37395564765E+02  0.41800000000E+01 0.  1.
        -11    1    3    3    0    0  0.11612281613E+01  0.31763381337E+02 -0.12563949746E+03  0.12959762408E+03  0.00000000000E+00 0. -1.
         11    1    3    3    0    0 -0.11979861034E+03 -0.42991678238E+01 -0.37942488998E+03  0.39791134316E+03  0.00000000000E+00 0.  1.
</event>
<event>
 7    1  0.5831876E-006  0.2103366E+03  0.7561462E-02  0.1141300E+00
         -1   -1    0    0    0  501 -0.00000000000E+00  0.00000000000E+00  0.21277593467E+03  0.21277593467E+03  0.00000000000E+00 0.  1.
          1   -1    0    0  501    0  0.00000000000E+00 -0.00000000000E+00 -0.27551772984E+03  0.27551772984E+03  0.00000000000E+00 0. -1.
         23    2    1    2    0    0 -0.15629145158E+03  0.13174591649E+03  0.42626848240E+02  0.22650528412E+03  0.87770104229E+02 0.  0.
          5    1    1    2  502    0  0.42549930957E+02 -0.10552221665E+01  0.20667125909E+02  0.47499606437E+02  0.41800000000E+01 0. -1.
         -5    1    1    2    0  502  0.11374152062E+03 -0.13069069433E+03 -0.12603576932E+03  0.21428877396E+03  0.41800000000E+01 0. -1.
        -11    1    3    3    0    0 -0.80260752603E+02  0.73394363623E+02  0.66835345732E+02  0.12765376790E+03  0.00000000000E+00 0.  1.
         11    1    3    3    0    0 -0.76030698972E+02  0.58351552870E+02 -0.24208497492E+02  0.98851516222E+02  0.00000000000E+00 0. -1.
</event>
<event>
 7    1  0.5831876E-006  0.1302142E+03  0.7561462E-02  0.1227138E+00
         -2   -1    0    0    0  501 -0.00000000000E+00  0.00000000000E+00  0.97198555722E+02  0.97198555722E+02  0.00000000000E+00 0.  1.
          2   -1    0    0  501    0  0.00000000000E+00 -0.00000000000E+00 -0.30376044862E+03  0.30376044862E+03  0.00000000000E+00 0. -1.
         23    2    1    2    0    0  0.10376211681E+03  0.10981588600E+02 -0.22893706711E+01  0.13969645397E+03  0.92858418369E+02 0.  0.
          5    1    1    2  502    0 -0.11462695801E+03 -0.20951170414E+02 -0.93566714183E+02  0.14950081420E+03  0.41800000000E+01 0.  1.
         -5    1    1    2    0  502  0.10864841205E+02  0.99695818141E+01 -0.11070580804E+03  0.11176173616E+03  0.41800000000E+01 0.  1.
        -11    1    3    3    0    0  0.54900640918E+02 -0.31896016425E+02 -0.28509650440E+02  0.69600548886E+02  0.00000000000E+00 0.  1.
         11    1    3    3    0    0  0.48861475889E+02  0.42877605025E+02  0.26220279769E+02  0.70095905086E+02  0.00000000000E+00 0. -1.
</event>
<event>
 7    1  0.5831876E-006  0.2378393E+03  0.7561462E-02  0.1121241E+00
         -2   -1    0    0    0  501 -0.00000000000E+00  0.00000000000E+00  0.13516124700E+03  0.13516124700E+03  0.00000000000E+00 0.  1.
          2   -1    0    0  501    0  0.00000000000E+00 -0.00000000000E+00 -0.50616629938E+03  0.50616629938E+03  0.00000000000E+00 0. -1.
         23    2    1    2    0    0  0.21696511080E+03 -0.15900188940E+02 -0.62956381090E+02  0.24400270340E+03  0.90813754657E+02 0.  0.
          5    1    1    2  502    0 -0.18015979639E+02  0.43387339038E+02 -0.84556777636E+02  0.96821267061E+02  0.41800000000E+01 0. -1.
         -5    1    1    2    0  502 -0.19894913116E+03 -0.27487150098E+02 -0.22349189365E+03  0.30050357592E+03  0.41800000000E+01 0. -1.
        -11    1    3    3    0    0  0.13877515711E+03  0.22389410468E+02 -0.69273504634E+02  0.15671199180E+03  0.00000000000E+00 0. -1.
         11    1    3    3    0    0  0.78189953697E+02 -0.38289599408E+02  0.63171235434E+01  0.87290711602E+02  0.00000000000E+00 0.  1.
</event>
<event>
 7    1  0.5831876E-006  0.8975826E+02  0.7561462E-02  0.1303438E+00
          1   -1    0    0  501    0  0.00000000000E+00  0.00000000000E+00  0.37045084436E+03  0.37045084436E+03  0.00000000000E+00 0. -1.
         -1   -1    0    0    0  501 -0.00000000000E+00 -0.00000000000E+00 -0.36447234464E+02  0.36447234464E+02  0.00000000000E+00 0.  1.
         23    2    1    2    0    0 -0.36374643328E+02 -0.11230442994E+02  0.10528379780E+03  0.14343901295E+03  0.89670702191E+02 0.  0.
          5    1    1    2  502    0 -0.16398741036E+02  0.44788354252E+02  0.17330263897E+03  0.17979486216E+03  0.41800000000E+01 0. -1.
         -5    1    1    2    0  502  0.52773384364E+02 -0.33557911259E+02  0.55417173125E+02  0.83664203710E+02  0.41800000000E+01 0. -1.
        -11    1    3    3    0    0 -0.18457184198E+02 -0.34776381592E+02  0.10678633349E+03  0.11381294032E+03  0.00000000000E+00 0. -1.
         11    1    3    3    0    0 -0.17917459130E+02  0.23545938598E+02 -0.15025356883E+01  0.29626072633E+02  0.00000000000E+00 0.  1.
</event>
<event>
 7    1  0.5831876E-006  0.2139959E+03  0.7561462E-02  0.1138440E+00
         -1   -1    0    0    0  501 -0.00000000000E+00  0.00000000000E+00  0.36617244883E+03  0.36617244883E+03  0.00000000000E+00 0.  1.
          1   -1    0    0  501    0  0.00000000000E+00 -0.00000000000E+00 -0.18485503357E+03  0.18485503357E+03  0.00000000000E+00 0. -1.
         23    2    1    2    0    0  0.20020280520E+03 -0.33293350141E+02  0.21603012552E+03  0.31010884585E+03  0.91153007459E+02 0.  0.
          5    1    1    2  502    0 -0.39002623405E+02 -0.66881975858E+01  0.42060339501E+02  0.57900614663E+02  0.41800000000E+01 0. -1.
         -5    1    1    2    0  502 -0.16120018180E+03  0.39981547727E+02 -0.76773049752E+02  0.18301802189E+03  0.41800000000E+01 0. -1.
        -11    1    3    3    0    0  0.67884048209E+02  0.31378148862E+02  0.81887875484E+02  0.11089840566E+03  0.00000000000E+00 0.  1.
         11    1    3    3    0    0  0.13231875699E+03 -0.64671499003E+02  0.13414225003E+03  0.19921044019E+03  0.00000000000E+00 0. -1.
</event>
<event>
 7    1  0.5831876E-006  0.1116006E+03  0.7561462E-02  0.1257634E+00
         -1   -1    0    0    0  501 -0.00000000000E+00  0.00000000000E+00  0.16928710247E+02  0.16928710247E+02  0.00000000000E+00 0.  1.
          1   -1    0    0  501    0  0.00000000000E+00 -0.00000000000E+00 -0.95223577551E+03  0.95223577551E+03  0.00000000000E+00 0. -1.
         23    2    1    2    0    0  0.20606131482E+02  0.45075337992E+02 -0.26324205638E+03  0.28376389746E+03  0.93643849242E+02 0.  0.
          5    1    1    2  502    0 -0.67322577943E+02  0.11948436865E+01 -0.38556724936E+03  0.39142474798E+03  0.41800000000E+01 0.  1.
         -5    1    1    2    0  502  0.46716446461E+02 -0.46270181678E+02 -0.28649775952E+03  0.29397584032E+03  0.41800000000E+01 0.  1.
        -11    1    3    3    0    0 -0.14767573970E+02 -0.14417520542E+02 -0.13629487408E+02  0.24732752911E+02  0.00000000000E+00 0.  1.
         11    1    3    3    0    0  0.35373705452E+02  0.59492858534E+02 -0.24961256898E+03  0.25903114454E+03  0.00000000000E+00 0. -1.
</event>
<event>
 7    1  0.5831876E-006  0.1335520E+03  0.7561462E-02  0.1222278E+00
          1   -1    0    0  501    0  0.00000000000E+00  0.00000000000E+00  0.81885746062E+02  0.81885746062E+02  0.00000000000E+00 0. -1.
         -1   -1    0    0    0  501 -0.00000000000E+00 -0.00000000000E+00 -0.31317469895E+03  0.31317469895E+03  0.00000000000E+00 0.  1.
         23    2    1    2    0    0  0.60902912172E+02  0.75911039945E+02 -0.18825991008E+03  0.23083377939E+03  0.91492017522E+02 0.  0.
          5    1    1    2  502    0 -0.17607167518E+02  0.31681452199E+02  0.81590782557E+01  0.37386758611E+02  0.41800000000E+01 0. -1.
         -5    1    1    2    0  502 -0.43295744654E+02 -0.10759249214E+03 -0.51188121064E+02  0.12683990700E+03  0.41800000000E+01 0. -1.
        -11    1    3    3    0    0 -0.83493070379E+01  0.30812796852E+02 -0.11837541176E+03  0.12260455736E+03  0.00000000000E+00 0.  1.
         11    1    3    3    0    0  0.69252219210E+02  0.45098243093E+02 -0.69884498320E+02  0.10822922203E+03  0.00000000000E+00 0. -1.
</event>
<event>
 7    1  0.5831876E-006  0.1683079E+03  0.7561462E-02  0.1179624E+00
         -3   -1    0    0    0  501 -0.00000000000E+00  0.00000000000E+00  0.23231939451E+02  0.23231939451E+02  0.00000000000E+00 0.  1.
          3   -1    0    0  501    0  0.00000000000E+00 -0.00000000000E+00 -0.14184249451E+04  0.14184249451E+04  0.00000000000E+00 0. -1.
         23    2    1    2    0    0 -0.10605313676E+03 -0.98118930320E+02 -0.63351779958E+03  0.65637420108E+03  0.92777675981E+02 0.  0.
          5    1    1    2  502    0  0.36926448172E+02  0.87525146243E+02 -0.22807508472E+03  0.24710307661E+03  0.41800000000E+01 0.  1.
         -5    1    1    2    0  502  0.69126688585E+02  0.10593784077E+02 -0.53360012136E+03  0.53817960687E+03  0.41800000000E+01 0.  1.
        -11    1    3    3    0    0 -0.63193544732E+02  0.12985532472E+01 -0.25030419606E+03  0.25816138538E+03  0.00000000000E+00 0. -1.
         11    1    3    3    0    0 -0.42859592024E+02 -0.99417483567E+02 -0.38321360351E+03  0.39821281569E+03  0.00000000000E+00 0.  1.
</event>
<event>
 7    1  0.5831876E-006  0.2984176E+03  0.7561462E-02  0.1086034E+00
         -2   -1    0    0    0  501 -0.00000000000E+00  0.00000000000E+00  0.45135177713E+02  0.45135177713E+02  0.00000000000E+00 0.  1.
          2   -1    0    0  501    0  0.00000000000E+00 -0.00000000000E+00 -0.21677024231E+04  0.21677024231E+04  0.00000000000E+00 0. -1.
         23    2    1    2    0    0 -0.15414200451E+03  0.24254353043E+03 -0.83268116584E+03  0.88543282906E+03  0.89700886960E+02 0.  0.
          5    1    1    2  502    0  0.14275222589E+01  0.10235474259E+02 -0.13097412316E+03  0.13144769336E+03  0.41800000000E+01 0.  1.
         -5    1    1    2    0  502  0.15271448225E+03 -0.25277900469E+03 -0.11589119564E+04  0.11959570784E+04  0.41800000000E+01 0.  1.
        -11    1    3    3    0    0 -0.35030997735E+02  0.27632015390E+02 -0.60990591654E+02  0.75568190048E+02  0.00000000000E+00 0.  1.
         11    1    3    3    0    0 -0.11911100678E+03  0.21491151504E+03 -0.77169057419E+03  0.80986463901E+03  0.00000000000E+00 0. -1.
</event>
<event>
 7    1  0.5831876E-006  0.1101349E+03  0.7561462E-02  0.1260320E+00
          1   -1    0    0  501    0  0.00000000000E+00  0.00000000000E+00  0.10373483624E+04  0.10373483624E+04  0.00000000000E+00 0. -1.
         -1   -1    0    0    0  501 -0.00000000000E+00 -0.00000000000E+00 -0.15065721658E+02  0.15065721658E+02  0.00000000000E+00 0.  1.
         23    2    1    2    0    0  0.27356388715E+02 -0.39108396263E+02  0.29897452155E+03  0.31682023303E+03  0.93335185520E+02 0.  0.
          5    1    1    2  502    0 -0.16259204430E+02  0.80585949435E+02  0.58360892871E+03  0.58938553685E+03  0.41800000000E+01 0.  1.
         -5    1    1    2    0  502 -0.11097184285E+02 -0.41477553172E+02  0.13969919053E+03  0.14620831423E+03  0.41800000000E+01 0.  1.
        -11    1    3    3    0    0  0.39814250939E+02  0.12494660913E+02  0.20201354378E+03  0.20627836290E+03  0.00000000000E+00 0. -1.
         11    1    3    3    0    0 -0.12457862224E+02 -0.51603057176E+02  0.96960977774E+02  0.11054187013E+03  0.00000000000E+00 0.  1.
</event>
<event>
 7    1  0.5831876E-006  0.1146886E+03  0.7561462E-02  0.1252126E+00
         -2   -1    0    0    0  501 -0.00000000000E+00  0.00000000000E+00  0.73571495502E+02  0.73571495502E+02  0.00000000000E+00 0.  1.
          2   -1    0    0  501    0  0.00000000000E+00 -0.00000000000E+00 -0.34045751933E+03  0.34045751933E+03  0.00000000000E+00 0. -1.
         23    2    1    2    0    0 -0.86190624450E+02 -0.31355550344E+02 -0.66097901461E+02  0.16030557851E+03  0.11365276787E+03 0.  0.
          5    1    1    2  502    0  0.10829063659E+03  0.16926011312E+02 -0.96586414926E+02  0.14614978543E+03  0.41800000000E+01 0.  1.
         -5    1    1    2    0  502 -0.22100012140E+02  0.14429539032E+02 -0.10420170744E+03  0.10757365090E+03  0.41800000000E+01 0.  1.
        -11    1    3    3    0    0 -0.61962900067E+02 -0.15045718274E+02  0.22031880467E+02  0.67462421984E+02  0.00000000000E+00 0.  1.
         11    1    3    3    0    0 -0.24227724383E+02 -0.16309832071E+02 -0.88129781929E+02  0.92843156526E+02  0.00000000000E+00 0. -1.
</event>
<event>
 7    1  0.5831876E-006  0.2164131E+03  0.7561462E-02  0.1136586E+00
          2   -1    0    0  501    0  0.00000000000E+00  0.00000000000E+00  0.37231242888E+03  0.37231242888E+03  0.00000000000E+00 0. -1.
         -2   -1    0    0    0  501 -0.00000000000E+00 -0.00000000000E+00 -0.13331361000E+03  0.13331361000E+03  0.00000000000E+00 0.  1.
         23    2    1    2    0    0  0.42585801021E+02 -0.86170550285E+02  0.57243653811E+02  0.14510695160E+03  0.92413620836E+02 0.  0.
          5    1    1    2  502    0 -0.53026080728E+02 -0.10581718660E+03  0.80219795881E+02  0.14304450450E+03  0.41800000000E+01 0. -1.
         -5    1    1    2    0  502  0.10440279707E+02  0.19198773688E+03  0.10153536919E+03  0.21747458277E+03  0.41800000000E+01 0.  1.
        -11    1    3    3    0    0  0.63474615167E+02 -0.52132241631E+02  0.92314673930E+01  0.82656018403E+02  0.00000000000E+00 0.  1.
         11    1    3    3    0    0 -0.20888814146E+02 -0.34038308654E+02  0.48012186418E+02  0.62450933197E+02  0.00000000000E+00 0. -1.
</event>
<event>
 7    1  0.5831876E-006  0.1248258E+03  0.7561462E-02  0.1235342E+00
          2   -1    0    0  501    0  0.00000000000E+00  0.00000000000E+00  0.36408776851E+02  0.36408776851E+02  0.00000000000E+00 0. -1.
         -2   -1    0    0    0  501 -0.00000000000E+00 -0.00000000000E+00 -0.59310483688E+03  0.59310483688E+03  0.00000000000E+00 0.  1.
         23    2    1    2    0    0  0.86640861436E+02  0.24957028641E+02 -0.34505695770E+03  0.36765843080E+03  0.89324831521E+02 0.  0.
          5    1    1    2  502    0 -0.59869129697E+02  0.47125049394E+02 -0.91328639264E+02  0.11901040173E+03  0.41800000000E+01 0.  1.
         -5    1    1    2    0  502 -0.26771731739E+02 -0.72082078035E+02 -0.12031046306E+03  0.14284478120E+03  0.41800000000E+01 0.  1.
        -11    1    3    3    0    0  0.56608291195E+02 -0.10397922301E+01 -0.30857395648E+03  0.31372514470E+03  0.00000000000E+00 0.  1.
         11    1    3    3    0    0  0.30032570241E+02  0.25996820871E+02 -0.36483001224E+02  0.53933286095E+02  0.00000000000E+00 0. -1.
</event>
<event>
 7    1  0.5831876E-006  0.9592434E+02  0.7561462E-02  0.1289108E+00
          4   -1    0    0  501    0  0.00000000000E+00  0.00000000000E+00  0.45318384715E+03  0.45318384715E+03  0.00000000000E+00 0. -1.
         -4   -1    0    0    0  501 -0.00000000000E+00 -0.00000000000E+00 -0.32025930473E+02  0.32025930473E+02  0.00000000000E+00 0.  1.
         23    2    1    2    0    0  0.85845784294E+01 -0.88528741390E+01  0.78911716699E+02  0.12061194860E+03  0.90377623029E+02 0.  0.
          5    1    1    2  502    0 -0.57468292535E+02  0.31636077819E+02  0.13142194185E+03  0.14694436113E+03  0.41800000000E+01 0.  1.
         -5    1    1    2    0  502  0.48883714106E+02 -0.22783203680E+02  0.21082425813E+03  0.21765346790E+03  0.41800000000E+01 0.  1.
        -11    1    3    3    0    0  0.36712352213E+02  0.10133131546E+02  0.77841833609E+02  0.86659265053E+02  0.00000000000E+00 0. -1.
         11    1    3    3    0    0 -0.28127773784E+02 -0.18986005685E+02  0.10698830895E+01  0.33952683542E+02  0.00000000000E+00 0.  1.
</event>
<event>
 7    1  0.5831876E-006  0.2093958E+03  0.7561462E-02  0.1142045E+00
          1   -1    0    0  501    0  0.00000000000E+00  0.00000000000E+00  0.47658931109E+02  0.47658931109E+02  0.00000000000E+00 0. -1.
         -1   -1    0    0    0  501 -0.00000000000E+00 -0.00000000000E+00 -0.10047597242E+04  0.10047597242E+04  0.00000000000E+00 0.  1.
         23    2    1    2    0    0 -0.18404148753E+03  0.87670172506E+01 -0.56811527401E+03  0.60419397436E+03  0.91363364458E+02 0.  0.
          5    1    1    2  502    0  0.14580532115E+03  0.48248374182E+02 -0.25800662784E+03  0.30028651268E+03  0.41800000000E+01 0. -1.
         -5    1    1    2    0  502  0.38236166376E+02 -0.57015391432E+02 -0.13097889121E+03  0.14793816824E+03  0.41800000000E+01 0. -1.
        -11    1    3    3    0    0 -0.15288794969E+03 -0.19730266658E+02 -0.35641026809E+03  0.38831982667E+03  0.00000000000E+00 0. -1.
         11    1    3    3    0    0 -0.31153537836E+02  0.28497283908E+02 -0.21170500591E+03  0.21587414768E+03  0.00000000000E+00 0.  1.
</event>
<event>
 7    1  0.5831876E-006  0.7475651E+02  0.7561462E-02  0.1344627E+00
         -1   -1    0    0    0  501 -0.00000000000E+00  0.00000000000E+00  0.97533660601E+02  0.97533660601E+02  0.00000000000E+00 0.  1.
          1   -1    0    0  501    0  0.00000000000E+00 -0.00000000000E+00 -0.20010493800E+03  0.20010493800E+03  0.00000000000E+00 0. -1.
         23    2    1    2    0    0  0.15867322616E+02 -0.41804241632E+02  0.34171805453E+02  0.10696922709E+03  0.90968877704E+02 0.  0.
          5    1    1    2  502    0 -0.27998249183E+02  0.39475281550E+02 -0.15823898454E+03  0.16552718338E+03  0.41800000000E+01 0. -1.
         -5    1    1    2    0  502  0.12130926567E+02  0.23289600825E+01  0.21495901688E+02  0.25142188127E+02  0.41800000000E+01 0. -1.
        -11    1    3    3    0    0  0.36646603459E+02 -0.52889360508E+02  0.47435526535E+02  0.79939897284E+02  0.00000000000E+00 0.  1.
         11    1    3    3    0    0 -0.20779280843E+02  0.11085118876E+02 -0.13263721081E+02  0.27029329806E+02  0.00000000000E+00 0. -1.
</event>
<event>
 7    1  0.5831876E-006  0.1566776E+03  0.7561462E-02  0.1192500E+00
         -2   -1    0    0    0  501 -0.00000000000E+00  0.00000000000E+00  0.84436050174E+02  0.84436050174E+02  0.00000000000E+00 0.  1.
          2   -1    0    0  501    0  0.00000000000E+00 -0.00000000000E+00 -0.54162226314E+03  0.54162226314E+03  0.00000000000E+00 0. -1.
         23    2    1    2    0    0 -0.72110094302E+02  0.12191033430E+03 -0.47891408949E+02  0.17523610678E+03  0.91389883239E+02 0.  0.
          5    1    1    2  502    0  0.11133285859E+02 -0.76849396447E+02 -0.75094932320E+02  0.10810412133E+03  0.41800000000E+01 0.  1.
         -5    1    1    2    0  502  0.60976808443E+02 -0.45060937849E+02 -0.33419987169E+03  0.34271808520E+03  0.41800000000E+01 0.  1.
        -11    1    3    3    0    0  0.15487806443E+02  0.18945411543E+02  0.12145290764E+02  0.27318653969E+02  0.00000000000E+00 0.  1.
         11    1    3    3    0    0 -0.87597900745E+02  0.10296492275E+03 -0.60036699713E+02  0.14791745281E+03  0.00000000000E+00 0. -1.
</event>
<event>
 7    1  0.5831876E-006  0.7976480E+02  0.7561462E-02  0.1329720E+00
          1   -1    0    0  501    0  0.00000000000E+00  0.00000000000E+00  0.20806140738E+03  0.20806140738E+03  0.00000000000E+00 0. -1.
         -1   -1    0    0    0  501 -0.00000000000E+00 -0.00000000000E+00 -0.66602775782E+02  0.66602775782E+02  0.00000000000E+00 0.  1.
         23    2    1    2    0    0 -0.45804173895E+02 -0.74359131231E+01  0.58052560022E+02  0.11732234112E+03  0.90780597325E+02 0.  0.
          5    1    1    2  502    0  0.32599215422E+02  0.43750370553E+02 -0.10492993868E+02  0.55716955139E+02  0.41800000000E+01 0.  1.
         -5    1    1    2    0  502  0.13204958473E+02 -0.36314457430E+02  0.93899065443E+02  0.10162488690E+03  0.41800000000E+01 0.  1.
        -11    1    3    3    0    0 -0.11955285461E+02 -0.25071358896E+02 -0.17392727524E+02  0.32772074363E+02  0.00000000000E+00 0.  1.
         11    1    3    3    0    0 -0.33848888434E+02  0.17635445772E+02  0.75445287546E+02  0.84550266757E+02  0.00000000000E+00 0. -1.
</event>
<event>
 7    1  0.5831876E-006  0.1049777E+03  0.7561462E-02  0.1270164E+00
          4   -1    0    0  501    0  0.00000000000E+00  0.00000000000E+00  0.10295505601E+03  0.10295505601E+03  0.00000000000E+00 0. -1.
         -4   -1    0    0    0  501 -0.00000000000E+00 -0.00000000000E+00 -0.20851384910E+03  0.20851384910E+03  0.00000000000E+00 0.  1.
         23    2    1    2    0    0 -0.51101458320E+02 -0.83847549099E+02 -0.51911342789E+02  0.14363878950E+03  0.91079875969E+02 0.  0.
          5    1    1    2  502    0  0.29695870300E+02  0.72221092217E+02 -0.92908168475E+02  0.12143776613E+03  0.41800000000E+01 0.  1.
         -5    1    1    2    0  502  0.21405588020E+02  0.11626456881E+02  0.39260718181E+02  0.46392349479E+02  0.41800000000E+01 0.  1.
        -11    1    3    3    0    0  0.68210531468E+01 -0.18499185531E+02  0.21778424211E+02  0.29377651242E+02  0.00000000000E+00 0. -1.
         11    1    3    3    0    0 -0.57922511467E+02 -0.65348363567E+02 -0.73689767000E+02  0.11426113826E+03  0.00000000000E+00 0.  1.
</event>
<event>
 7    1  0.5831876E-006  0.1071398E+03  0.7561462E-02  0.1265960E+00
         -2   -1    0    0    0  501 -0.00000000000E+00  0.00000000000E+00  0.10928978947E+02  0.10928978947E+02  0.00000000000E+00 0. -1.
          2   -1    0    0  501    0  0.00000000000E+00 -0.00000000000E+00 -0.12061210712E+04  0.12061210712E+04  0.00000000000E+00 0.  1.
         23    2    1    2    0    0  0.20162139207E+02  0.25648852264E+02 -0.36933832599E+03  0.38113695274E+03  0.88262122236E+02 0.  0.
          5    1    1    2  502    0  0.15487945819E+02  0.42796520054E+02 -0.44195698534E+03  0.44431392943E+03  0.41800000000E+01 0.  1.
         -5    1    1    2    0  502 -0.35650085026E+02 -0.68445372318E+02 -0.38389678093E+03  0.39159916798E+03  0.41800000000E+01 0.  1.
        -11    1    3    3    0    0 -0.23785455667E+02  0.38716912899E+02 -0.23011078552E+03  0.23455430257E+03  0.00000000000E+00 0.  1.
         11    1    3    3    0    0  0.43947594873E+02 -0.13068060635E+02 -0.13922754047E+03  0.14658265017E+03  0.00000000000E+00 0. -1.
</event>
<event>
 7    1  0.5831876E-006  0.2940272E+03  0.7561462E-02  0.1088265E+00
         -3   -1    0    0    0  501 -0.00000000000E+00  0.00000000000E+00  0.27427415472E+03  0.27427415472E+03  0.00000000000E+00 0.  1.
          3   -1    0    0  501    0  0.00000000000E+00 -0.00000000000E+00 -0.40632002537E+03  0.40632002537E+03  0.00000000000E+00 0. -1.
         23    2    1    2    0    0 -0.14742661243E+03  0.25009480488E+03  0.61632199172E+02  0.30986364545E+03  0.89078242660E+02 0.  0.
          5    1    1    2  502    0  0.10779127889E+03 -0.19619495518E+03 -0.78111253582E+02  0.23712920650E+03  0.41800000000E+01 0. -1.
         -5    1    1    2    0  502  0.39635333544E+02 -0.53899849706E+02 -0.11556681624E+03  0.13360132813E+03  0.41800000000E+01 0. -1.
        -11    1    3    3    0    0 -0.53463454614E+02  0.39355229130E+02 -0.12409742327E+02  0.67536484538E+02  0.00000000000E+00 0.  1.
         11    1    3    3    0    0 -0.93963157818E+02  0.21073957575E+03  0.74041941498E+02  0.24232716091E+03  0.00000000000E+00 0. -1.
</event>
<event>
 7    1  0.5831876E-006  0.1213999E+03  0.7561462E-02  0.1240805E+00
          2   -1    0    0  501    0  0.00000000000E+00  0.00000000000E+00  0.84424858043E+03  0.84424858043E+03  0.00000000000E+00 0.  1.
         -2   -1    0    0    0  501 -0.00000000000E+00 -0.00000000000E+00 -0.23279103272E+02  0.23279103272E+02  0.00000000000E+00 0. -1.
         23    2    1    2    0    0  0.66109797456E+02 -0.42480365648E+02  0.24179886668E+03  0.26981430882E+03  0.90321550767E+02 0.  0.
          5    1    1    2  502    0 -0.10079435616E+02  0.69886716269E+02  0.43294917989E+03  0.43868919852E+03  0.41800000000E+01 0.  1.
         -5    1    1    2    0  502 -0.56030361841E+02 -0.27406350621E+02  0.14622143059E+03  0.15902417636E+03  0.41800000000E+01 0.  1.
        -11    1    3    3    0    0  0.80894123997E+02 -0.21174326423E+02  0.12653014194E+03  0.15166439337E+03  0.00000000000E+00 0. -1.
         11    1    3    3    0    0 -0.14784326541E+02 -0.21306039225E+02  0.11526872474E+03  0.11814991545E+03  0.00000000000E+00 0.  1.
</event>
<event>
 7    1  0.5831876E-006  0.1016749E+03  0.7561462E-02  0.1276813E+00
          2   -1    0    0  501    0  0.00000000000E+00  0.00000000000E+00  0.64953649023E+03  0.64953649023E+03  0.00000000000E+00 0. -1.
         -2   -1    0    0    0  501 -0.00000000000E+00 -0.00000000000E+00 -0.32056136157E+02  0.32056136157E+02  0.00000000000E+00 0.  1.
         23    2    1    2    0    0 -0.84638795735E+02  0.24806122255E+02  0.19492561232E+03  0.23217163770E+03  0.90158779761E+02 0.  0.
          5    1    1    2  502    0  0.66584508367E+02 -0.21692879980E+02  0.80209428345E+02  0.10656032372E+03  0.41800000000E+01 0.  1.
         -5    1    1    2    0  502  0.18054287367E+02 -0.31132422746E+01  0.34234531341E+03  0.34286066497E+03  0.41800000000E+01 0.  1.
        -11    1    3    3    0    0 -0.22584563521E+02  0.43993213591E+02  0.13509738583E+03  0.14386371679E+03  0.00000000000E+00 0. -1.
         11    1    3    3    0    0 -0.62054232213E+02 -0.19187091336E+02  0.59828226492E+02  0.88307920906E+02  0.00000000000E+00 0.  1.
</event>
<event>
 7    1  0.5831876E-006  0.2249060E+03  0.7561462E-02  0.1130277E+00
         -1   -1    0    0    0  501 -0.00000000000E+00  0.00000000000E+00  0.92073197528E+02  0.92073197528E+02  0.00000000000E+00 0.  1.
          1   -1    0    0  501    0  0.00000000000E+00 -0.00000000000E+00 -0.74224585233E+03  0.74224585233E+03  0.00000000000E+00 0. -1.
         23    2    1    2    0    0 -0.14246041070E+03 -0.16705041524E+03 -0.14810998305E+03  0.27225553831E+03  0.63132410147E+02 0.  0.
          5    1    1    2  502    0  0.14324461090E+03  0.14108179117E+03 -0.49577543923E+03  0.53500826993E+03  0.41800000000E+01 0.  1.
         -5    1    1    2    0  502 -0.78420020486E+00  0.25968624076E+02 -0.62872325238E+01  0.27055241621E+02  0.41800000000E+01 0.  1.
        -11    1    3    3    0    0 -0.96007190274E+01 -0.30093699173E+02 -0.46111720562E+02  0.55893607049E+02  0.00000000000E+00 0.  1.
         11    1    3    3    0    0 -0.13285969167E+03 -0.13695671607E+03 -0.10199826249E+03  0.21636193126E+03  0.00000000000E+00 0. -1.
</event>
<event>
 6    1  0.5831876E-006  0.1710870E+03  0.7561462E-02  0.1176719E+00
         -2   -1    0    0    0  501 -0.00000000000E+00  0.00000000000E+00  0.38642584982E+02  0.38642584982E+02  0.00000000000E+00 0. -1.
          2   -1    0    0  501    0  0.00000000000E+00 -0.00000000000E+00 -0.11779270132E+04  0.11779270132E+04  0.00000000000E+00 0.  1.
          5    1    1    2  502    0  0.40470738146E+02  0.39548353041E+02 -0.23624340578E+03  0.24296166786E+03  0.41800000000E+01 0.  1.
         -5    1    1    2    0  502  0.83566017166E+02 -0.97758744936E+02 -0.58008877465E+03  0.59418895169E+03  0.41800000000E+01 0.  1.
        -11    1    1    2    0    0 -0.49826156404E+02 -0.15480002967E+02 -0.24091315429E+03  0.24649832507E+03  0.00000000000E+00 0.  1.
         11    1    1    2    0    0 -0.74210598909E+02  0.73690394862E+02 -0.82039093546E+02  0.13292065361E+03  0.00000000000E+00 0. -1.
</event>
<event>
 7    1  0.5831876E-006  0.1071792E+03  0.7561462E-02  0.1265885E+00
         -2   -1    0    0    0  501 -0.00000000000E+00  0.00000000000E+00  0.30990287013E+02  0.30990287013E+02  0.00000000000E+00 0.  1.
          2   -1    0    0  501    0  0.00000000000E+00 -0.00000000000E+00 -0.47435561036E+03  0.47435561036E+03  0.00000000000E+00 0. -1.
         23    2    1    2    0    0  0.12506134783E+02  0.38714594152E+02 -0.12144827632E+03  0.15758934442E+03  0.91812278293E+02 0.  0.
          5    1    1    2  502    0  0.49187464264E+02 -0.41838106820E+02 -0.11714533551E+03  0.13382950293E+03  0.41800000000E+01 0. -1.
         -5    1    1    2    0  502 -0.61693599047E+02  0.31235126685E+01 -0.20477171152E+03  0.21392705003E+03  0.41800000000E+01 0. -1.
        -11    1    3    3    0    0 -0.18832647227E+02 -0.15979813204E+02 -0.50375877513E+01  0.25207148232E+02  0.00000000000E+00 0.  1.
         11    1    3    3    0    0  0.31338782011E+02  0.54694407356E+02 -0.11641068857E+03  0.13238219619E+03  0.00000000000E+00 0. -1.
</event>
<event>
 7    1  0.5831876E-006  0.1302148E+03  0.7561462E-02  0.1227137E+00
          2   -1    0    0  501    0  0.00000000000E+00  0.00000000000E+00  0.32161119553E+03  0.32161119553E+03  0.00000000000E+00 0. -1.
         -2   -1    0    0    0  501 -0.00000000000E+00 -0.00000000000E+00 -0.15938405847E+03  0.15938405847E+03  0.00000000000E+00 0.  1.
         23    2    1    2    0    0 -0.62395025882E+02  0.90339813867E+02 -0.10097820790E+03  0.17472685123E+03  0.90986003571E+02 0.  0.
          5    1    1    2  502    0  0.17987049953E+02 -0.88199400421E+02  0.23911095711E+03  0.25552727919E+03  0.41800000000E+01 0. -1.
         -5    1    1    2    0  502  0.44407975929E+02 -0.21404134453E+01  0.24094387850E+02  0.50741123575E+02  0.41800000000E+01 0.  1.
        -11    1    3    3    0    0 -0.67890649992E+02  0.48431786366E+02 -0.10285820605E+03  0.13241823454E+03  0.00000000000E+00 0.  1.
         11    1    3    3    0    0  0.54956241105E+01  0.41908027501E+02  0.18799981461E+01  0.42308616692E+02  0.00000000000E+00 0. -1.
</event>
<event>
 7    1  0.5831876E-006  0.1139403E+03  0.7561462E-02  0.1253442E+00
         -2   -1    0    0    0  501 -0.00000000000E+00  0.00000000000E+00  0.32671280176E+02  0.32671280176E+02  0.00000000000E+00 0.  1.
          2   -1    0    0  501    0  0.00000000000E+00 -0.00000000000E+00 -0.99406310754E+03  0.99406310754E+03  0.00000000000E+00 0. -1.
         23    2    1    2    0    0  0.10775746335E+03 -0.18423314552E+02 -0.19231578248E+03  0.23991418351E+03  0.92856695123E+02 0.  0.
          5    1    1    2  502    0 -0.36555340723E+02  0.26500499010E+01 -0.41253538604E+02  0.55341146963E+02  0.41800000000E+01 0.  1.
         -5    1    1    2    0  502 -0.71202122631E+02  0.15773264651E+02 -0.72782250628E+03  0.73147905725E+03  0.41800000000E+01 0.  1.
        -11    1    3    3    0    0  0.77662624693E+02 -0.33146516266E+02 -0.60421634572E+02  0.10383134757E+03  0.00000000000E+00 0.  1.
         11    1    3    3    0    0  0.30094838661E+02  0.14723201714E+02 -0.13189414791E+03  0.13608283594E+03  0.00000000000E+00 0. -1.
</event>
<event>
 7    1  0.7601569E-006  0.3079330E+03  0.7561462E-02  0.1081341E+00
          2   -1    0    0  501    0  0.00000000000E+00  0.00000000000E+00  0.65290246135E+03  0.65290246135E+03  0.00000000000E+00 0. -1.
         -2   -1    0    0    0  501 -0.00000000000E+00 -0.00000000000E+00 -0.23136985314E+03  0.23136985314E+03  0.00000000000E+00 0.  1.
         23    2    1    2    0    0  0.29286331930E+03  0.94090481549E+02 -0.37607019508E+02  0.31763339796E+03  0.69676000706E+02 0.  0.
          5    1    1    2  502    0 -0.20025720998E+03 -0.57257245096E+02  0.19927377165E+03  0.28828605712E+03  0.41800000000E+01 0. -1.
         -5    1    1    2    0  502 -0.92606109325E+02 -0.36833236454E+02  0.25986585606E+03  0.27835285940E+03  0.41800000000E+01 0. -1.
        -11    1    3    3    0    0  0.12504024592E+03  0.34632364620E+02 -0.50254712409E+02  0.13914021668E+03  0.00000000000E+00 0.  1.
         11    1    3    3    0    0  0.16782307338E+03  0.59458116929E+02  0.12647692901E+02  0.17849318128E+03  0.00000000000E+00 0. -1.
</event>
<event>
 7    1  0.5831876E-006  0.1398198E+03  0.7561462E-02  0.1213572E+00
         -2   -1    0    0    0  501 -0.00000000000E+00  0.00000000000E+00  0.82679635817E+02  0.82679635817E+02  0.00000000000E+00 0.  1.
          2   -1    0    0  501    0  0.00000000000E+00 -0.00000000000E+00 -0.32313860197E+03  0.32313860197E+03  0.00000000000E+00 0. -1.
         23    2    1    2    0    0  0.83169625078E+02  0.79809594425E+02 -0.63673154243E+02  0.16049035038E+03  0.91739435883E+02 0.  0.
          5    1    1    2  502    0 -0.91088674579E+02 -0.55248665358E+02 -0.18859256963E+03  0.21664300446E+03  0.41800000000E+01 0.  1.
         -5    1    1    2    0  502  0.79190495004E+01 -0.24560929067E+02  0.11806757724E+02  0.28684882945E+02  0.41800000000E+01 0.  1.
        -11    1    3    3    0    0 -0.21884169826E+01  0.58976910873E+02 -0.31684701354E+02  0.66984964618E+02  0.00000000000E+00 0. -1.
         11    1    3    3    0    0  0.85358042061E+02  0.20832683552E+02 -0.31988452889E+02  0.93505385763E+02  0.00000000000E+00 0.  1.
</event>
<event>
 7    1  0.5831876E-006  0.1078916E+03  0.7561462E-02  0.1264525E+00
          4   -1    0    0  501    0  0.00000000000E+00  0.00000000000E+00  0.43852542912E+02  0.43852542912E+02  0.00000000000E+00 0. -1.
         -4   -1    0    0    0  501 -0.00000000000E+00 -0.00000000000E+00 -0.35132974282E+03  0.35132974282E+03  0.00000000000E+00 0.  1.
         23    2    1    2    0    0 -0.65113263486E+02  0.17524129516E+02 -0.17802114328E+03  0.21064207392E+03  0.90176070299E+02 0.  0.
          5    1    1    2  502    0 -0.28483755150E+02  0.12565832828E+02 -0.44906996501E+02  0.54802693335E+02  0.41800000000E+01 0. -1.
         -5    1    1    2    0  502  0.93597018636E+02 -0.30089962344E+02 -0.84549060129E+02  0.12973751848E+03  0.41800000000E+01 0.  1.
        -11    1    3    3    0    0 -0.62390730351E+02  0.32775214742E+02 -0.18155341541E+03  0.19475230572E+03  0.00000000000E+00 0.  1.
         11    1    3    3    0    0 -0.27225331355E+01 -0.15251085226E+02  0.35322721297E+01  0.15889768206E+02  0.00000000000E+00 0. -1.
</event>
<event>
 7    1  0.5831876E-006  0.1741944E+03  0.7561462E-02  0.1173543E+00
          1   -1    0    0  501    0  0.00000000000E+00  0.00000000000E+00  0.75311605457E+03  0.75311605457E+03  0.00000000000E+00 0. -1.
         -1   -1    0    0    0  501 -0.00000000000E+00 -0.00000000000E+00 -0.52436495013E+02  0.52436495013E+02  0.00000000000E+00 0.  1.
         23    2    1    2    0    0 -0.11804686894E+03 -0.10724668818E+03  0.23959598228E+03  0.30188393695E+03  0.91053617555E+02 0.  0.
          5    1    1    2  502    0 -0.80228294960E+01 -0.12162931355E+02  0.11952161456E+03  0.12047900830E+03  0.41800000000E+01 0.  1.
         -5    1    1    2    0  502  0.12606969844E+03  0.11940961953E+03  0.34156196271E+03  0.38318960434E+03  0.41800000000E+01 0.  1.
        -11    1    3    3    0    0 -0.35848116149E+02 -0.34986758950E+02  0.15692196052E+03  0.16472298694E+03  0.00000000000E+00 0. -1.
         11    1    3    3    0    0 -0.82198752791E+02 -0.72259929229E+02  0.82674021760E+02  0.13716095001E+03  0.00000000000E+00 0.  1.
</event>
<event>
 7    1  0.5831876E-006  0.9165042E+02  0.7561462E-02  0.1298903E+00
          2   -1    0    0  501    0  0.00000000000E+00  0.00000000000E+00  0.65953513640E+03  0.65953513640E+03  0.00000000000E+00 0. -1.
         -2   -1    0    0    0  501 -0.00000000000E+00 -0.00000000000E+00 -0.24182391188E+02  0.24182391188E+02  0.00000000000E+00 0.  1.
         23    2    1    2    0    0  0.49450365947E+02  0.30749743328E+02  0.32852224654E+03  0.34729040100E+03  0.96399537073E+02 0.  0.
          5    1    1    2  502    0  0.28791257092E+01  0.54713168280E+01  0.25259591809E+03  0.25270614340E+03  0.41800000000E+01 0. -1.
         -5    1    1    2    0  502 -0.52329491656E+02 -0.36221060156E+02  0.54234580573E+02  0.83720983187E+02  0.41800000000E+01 0. -1.
        -11    1    3    3    0    0  0.51954166829E+02  0.61896604952E+02  0.25177120280E+03  0.26442232076E+03  0.00000000000E+00 0.  1.
         11    1    3    3    0    0 -0.25038008825E+01 -0.31146861623E+02  0.76751043740E+02  0.82868080242E+02  0.00000000000E+00 0. -1.
</event>
<event>
 7    1  0.5831876E-006  0.1064947E+03  0.7561462E-02  0.1267202E+00
         -1   -1    0    0    0  501 -0.00000000000E+00  0.00000000000E+00  0.26034263628E+02  0.26034263628E+02  0.00000000000E+00 0.  1.
          1   -1    0    0  501    0  0.00000000000E+00 -0.00000000000E+00 -0.83641757041E+03  0.83641757041E+03  0.00000000000E+00 0. -1.
         23    2    1    2    0    0 -0.64013885052E+01  0.89937803843E+02 -0.24546506355E+03  0.27686686206E+03  0.90952600575E+02 0.  0.
          5    1    1    2  502    0 -0.11257077343E+02 -0.85696472780E+02 -0.17503962679E+03  0.19526123677E+03  0.41800000000E+01 0. -1.
         -5    1    1    2    0  502  0.17658465848E+02 -0.42413310636E+01 -0.38987861645E+03  0.39032373521E+03  0.41800000000E+01 0. -1.
        -11    1    3    3    0    0 -0.23316680017E+02  0.87746304750E+01 -0.93342829235E+01  0.26604333193E+02  0.00000000000E+00 0.  1.
         11    1    3    3    0    0  0.16915291511E+02  0.81163173368E+02 -0.23613078063E+03  0.25026252887E+03  0.00000000000E+00 0. -1.
</event>
<event>
 7    1  0.5831876E-006  0.8782318E+02  0.7561462E-02  0.1308210E+00
          1   -1    0    0  501    0  0.00000000000E+00  0.00000000000E+00  0.36936156445E+03  0.36936156445E+03  0.00000000000E+00 0. -1.
         -1   -1    0    0    0  501 -0.00000000000E+00 -0.00000000000E+00 -0.36225987255E+02  0.36225987255E+02  0.00000000000E+00 0.  1.
         23    2    1    2    0    0  0.76450975450E+01  0.64788921870E+01  0.76991021032E+02  0.12035459110E+03  0.91962963845E+02 0.  0.
          5    1    1    2  502    0  0.36582656138E+02 -0.11707947033E+02  0.23040982279E+03  0.23362689398E+03  0.41800000000E+01 0.  1.
         -5    1    1    2    0  502 -0.44227753683E+02  0.52290548461E+01  0.25734733374E+02  0.51606066623E+02  0.41800000000E+01 0.  1.
        -11    1    3    3    0    0 -0.32347160513E+02 -0.25405120556E+02  0.30124022754E+02  0.50982503770E+02  0.00000000000E+00 0.  1.
         11    1    3    3    0    0  0.39992258058E+02  0.31884012743E+02  0.46866998278E+02  0.69372087332E+02  0.00000000000E+00 0. -1.
</event>
<event>
 7    1  0.5831876E-006  0.1118278E+03  0.7561462E-02  0.1257222E+00
          2   -1    0    0  501    0  0.00000000000E+00  0.00000000000E+00  0.44599544048E+03  0.44599544048E+03  0.00000000000E+00 0. -1.
         -2   -1    0    0    0  501 -0.00000000000E+00 -0.00000000000E+00 -0.30884365019E+02  0.30884365019E+02  0.00000000000E+00 0.  1.
         23    2    1    2    0    0 -0.43274267823E+02  0.30110483365E+01  0.16692800439E+03  0.19559091218E+03  0.92244878514E+02 0.  0.
          5    1    1    2  502    0  0.33227232695E+02 -0.57301725151E+02  0.18865909379E+03  0.19999315680E+03  0.41800000000E+01 0. -1.
         -5    1    1    2    0  502  0.10047035128E+02  0.54290676814E+02  0.59523977284E+02  0.81295736515E+02  0.41800000000E+01 0. -1.
        -11    1    3    3    0    0 -0.58305252404E+02  0.33984618423E+02  0.10866208209E+03  0.12791366163E+03  0.00000000000E+00 0. -1.
         11    1    3    3    0    0  0.15030984581E+02 -0.30973570086E+02  0.58265922301E+02  0.67677250557E+02  0.00000000000E+00 0.  1.
</event>
<event>
 7    1  0.7822466E-006  0.1919544E+03  0.7561462E-02  0.1156710E+00
          1   -1    0    0  501    0  0.00000000000E+00  0.00000000000E+00  0.44724044245E+03  0.44724044245E+03  0.00000000000E+00 0. -1.
         -1   -1    0    0    0  501 -0.00000000000E+00 -0.00000000000E+00 -0.10409480276E+03  0.10409480276E+03  0.00000000000E+00 0.  1.
         23    2    1    2    0    0 -0.15834849213E+03  0.51982820442E+02  0.49491406312E+02  0.19125702089E+03  0.79708156157E+02 0.  0.
          5    1    1    2  502    0  0.11614535789E+03 -0.89372045141E+02  0.17253609548E+03  0.22641396436E+03  0.41800000000E+01 0.  1.
         -5    1    1    2    0  502  0.42203134240E+02  0.37389224698E+02  0.12111813790E+03  0.13366425996E+03  0.41800000000E+01 0.  1.
        -11    1    3    3    0    0 -0.13799474717E+03  0.68950587431E+02  0.55754319163E+02  0.16402828371E+03  0.00000000000E+00 0. -1.
         11    1    3    3    0    0 -0.20353744969E+02 -0.16967766988E+02 -0.62629128505E+01  0.27228737176E+02  0.00000000000E+00 0.  1.
</event>
<event>
 7    1  0.5831876E-006  0.1017420E+03  0.7561462E-02  0.1276675E+00
         -1   -1    0    0    0  501 -0.00000000000E+00  0.00000000000E+00  0.33624353108E+02  0.33624353108E+02  0.00000000000E+00 0.  1.
          1   -1    0    0  501    0  0.00000000000E+00 -0.00000000000E+00 -0.41819450232E+03  0.41819450232E+03  0.00000000000E+00 0. -1.
         23    2    1    2    0    0  0.42575007453E+02  0.10646232797E+02 -0.12314785833E+03  0.15870528272E+03  0.89977765143E+02 0.  0.
          5    1    1    2  502    0 -0.47901268004E+02  0.42394214268E+02 -0.20749283860E+03  0.21716940703E+03  0.41800000000E+01 0. -1.
         -5    1    1    2    0  502  0.53262605504E+01 -0.53040447066E+02 -0.53929452277E+02  0.75944165670E+02  0.41800000000E+01 0. -1.
        -11    1    3    3    0    0  0.57405064634E+02 -0.12185621503E+02 -0.11685381002E+03  0.13076178239E+03  0.00000000000E+00 0. -1.
         11    1    3    3    0    0 -0.14830057180E+02  0.22831854300E+02 -0.62940483089E+01  0.27943500333E+02  0.00000000000E+00 0.  1.
</event>
<event>
 7    1  0.5831876E-006  0.1391413E+03  0.7561462E-02  0.1214489E+00
         -1   -1    0    0    0  501 -0.00000000000E+00  0.00000000000E+00  0.15669190237E+02  0.15669190237E+02  0.00000000000E+00 0.  1.
          1   -1    0    0  501    0  0.00000000000E+00 -0.00000000000E+00 -0.12751824344E+04  0.12751824344E+04  0.00000000000E+00 0. -1.
         23    2    1    2    0    0  0.47413338591E+02  0.72624747404E+02 -0.48838665862E+03  0.50484758996E+03  0.93953084922E+02 0.  0.
          5    1    1    2  502    0 -0.68153064383E+02 -0.97686955253E+02 -0.62151322730E+03  0.63283785089E+03  0.41800000000E+01 0. -1.
         -5    1    1    2    0  502  0.20739725793E+02  0.25062207849E+02 -0.14961335825E+03  0.15316618378E+03  0.41800000000E+01 0. -1.
        -11    1    3    3    0    0  0.31530393493E+02 -0.16626738884E+02 -0.10487306951E+03  0.11076540466E+03  0.00000000000E+00 0.  1.
         11    1    3    3    0    0  0.15882945098E+02  0.89251486288E+02 -0.38351358910E+03  0.39408218531E+03  0.00000000000E+00 0. -1.
</event>
<event>
 7    1  0.5831876E-006  0.4272566E+03  0.7561462E-02  0.1034730E+00
          3   -1    0    0  501    0  0.00000000000E+00  0.00000000000E+00  0.50741739316E+03  0.50741739316E+03  0.00000000000E+00 0. -1.
         -3   -1    0    0    0  501 -0.00000000000E+00 -0.00000000000E+00 -0.37132987578E+03  0.37132987578E+03  0.00000000000E+00 0.  1.
         23    2    1    2    0    0 -0.12870205747E+03  0.39751312060E+03  0.22654048854E+02  0.42808345448E+03  0.90340120778E+02 0.  0.
          5    1    1    2  502    0  0.35890275893E+02 -0.29699268713E+03  0.73502210875E+02  0.30807923577E+03  0.41800000000E+01 0. -1.
         -5    1    1    2    0  502  0.92811781580E+02 -0.10052043347E+03  0.39931257646E+02  0.14258457870E+03  0.41800000000E+01 0. -1.
        -11    1    3    3    0    0 -0.10059753171E+03  0.27689840988E+03 -0.24366863492E+02  0.29561180088E+03  0.00000000000E+00 0.  1.
         11    1    3    3    0    0 -0.28104525759E+02  0.12061471071E+03  0.47020912347E+02  0.13247165360E+03  0.00000000000E+00 0. -1.
</event>
<event>
 7    1  0.5831876E-006  0.1161114E+03  0.7561462E-02  0.1249653E+00
         -2   -1    0    0    0  501 -0.00000000000E+00  0.00000000000E+00  0.18333394631E+03  0.18333394631E+03  0.00000000000E+00 0.  1.
          2   -1    0    0  501    0  0.00000000000E+00 -0.00000000000E+00 -0.13714111580E+03  0.13714111580E+03  0.00000000000E+00 0. -1.
         23    2    1    2    0    0  0.76524882890E+02 -0.47912000483E+02  0.93738981766E+02  0.15904524807E+03  0.91415407554E+02 0.  0.
          5    1    1    2  502    0 -0.59104340251E+02 -0.18484756081E+02 -0.65619020979E+02  0.90323516086E+02  0.41800000000E+01 0. -1.
         -5    1    1    2    0  502 -0.17420542639E+02  0.66396756564E+02  0.18072869722E+02  0.71106297949E+02  0.41800000000E+01 0. -1.
        -11    1    3    3    0    0  0.30687773597E+02  0.53096312295E+01  0.82151102417E+02  0.87856333070E+02  0.00000000000E+00 0.  1.
         11    1    3    3    0    0  0.45837109293E+02 -0.53221631713E+02  0.11587879349E+02  0.71188914996E+02  0.00000000000E+00 0. -1.
</event>
<event>
 7    1  0.5831876E-006  0.1602102E+03  0.7561462E-02  0.1188460E+00
         -2   -1    0    0    0  501 -0.00000000000E+00  0.00000000000E+00  0.78107714804E+02  0.78107714804E+02  0.00000000000E+00 0.  1.
          2   -1    0    0  501    0  0.00000000000E+00 -0.00000000000E+00 -0.39723849601E+03  0.39723849601E+03  0.00000000000E+00 0. -1.
         23    2    1    2    0    0  0.98774909058E+02 -0.96141497260E+02 -0.13701414411E+03  0.21493583455E+03  0.91787074982E+02 0.  0.
          5    1    1    2  502    0 -0.87289323220E+02  0.32429192297E+02 -0.17076756686E+03  0.19455105436E+03  0.41800000000E+01 0.  1.
         -5    1    1    2    0  502 -0.11485585839E+02  0.63712304963E+02 -0.11349070231E+02  0.65859321898E+02  0.41800000000E+01 0.  1.
        -11    1    3    3    0    0  0.50348424200E+02  0.45993030674E+01 -0.63427129656E+02  0.81111763540E+02  0.00000000000E+00 0.  1.
         11    1    3    3    0    0  0.48426484858E+02 -0.10074080033E+03 -0.73587014457E+02  0.13382407101E+03  0.00000000000E+00 0. -1.
</event>
<event>
 7    1  0.5831876E-006  0.6020258E+02  0.7561462E-02  0.1396984E+00
         -1   -1    0    0    0  501 -0.00000000000E+00  0.00000000000E+00  0.22866975785E+02  0.22866975785E+02  0.00000000000E+00 0.  1.
          1   -1    0    0  501    0  0.00000000000E+00 -0.00000000000E+00 -0.65648766611E+03  0.65648766611E+03  0.00000000000E+00 0. -1.
         23    2    1    2    0    0  0.27370014211E+02  0.38749475942E+02 -0.16679048597E+03  0.19373256584E+03  0.86386349002E+02 0.  0.
          5    1    1    2  502    0  0.10155231542E+02  0.19337772905E+01 -0.39348214602E+03  0.39364011465E+03  0.41800000000E+01 0.  1.
         -5    1    1    2    0  502 -0.37525245753E+02 -0.40683253232E+02 -0.73348058334E+02  0.91981961404E+02  0.41800000000E+01 0.  1.
        -11    1    3    3    0    0 -0.25623136027E+00  0.20806645820E+02  0.27790026562E+01  0.20992975505E+02  0.00000000000E+00 0.  1.
         11    1    3    3    0    0  0.27626245571E+02  0.17942830122E+02 -0.16956948862E+03  0.17273959033E+03  0.00000000000E+00 0. -1.
</event>
<event>
 7    1  0.5831876E-006  0.1348405E+03  0.7561462E-02  0.1220445E+00
         -2   -1    0    0    0  501 -0.00000000000E+00  0.00000000000E+00  0.11907949400E+03  0.11907949400E+03  0.00000000000E+00 0.  1.
          2   -1    0    0  501    0  0.00000000000E+00 -0.00000000000E+00 -0.23748184621E+03  0.23748184621E+03  0.00000000000E+00 0. -1.
         23    2    1    2    0    0  0.26596783859E+02 -0.10977756068E+03  0.75699021373E+01  0.14614570579E+03  0.92427064009E+02 0.  0.
          5    1    1    2  502    0  0.38485218591E+02  0.32477843031E+02 -0.22008793508E+01  0.50579033284E+02  0.41800000000E+01 0. -1.
         -5    1    1    2    0  502 -0.65082002451E+02  0.77299717652E+02 -0.12377137500E+03  0.15983660113E+03  0.41800000000E+01 0. -1.
        -11    1    3    3    0    0  0.19572540773E+01 -0.76918737411E+02  0.46211605559E+02  0.89754306286E+02  0.00000000000E+00 0.  1.
         11    1    3    3    0    0  0.24639529782E+02 -0.32858823272E+02 -0.38641703422E+02  0.56391399505E+02  0.00000000000E+00 0. -1.
</event>
<event>
 7    1  0.5831876E-006  0.8931146E+02  0.7561462E-02  0.1304528E+00
          2   -1    0    0  501    0  0.00000000000E+00  0.00000000000E+00  0.42480436621E+02  0.42480436621E+02  0.00000000000E+00 0. -1.
         -2   -1    0    0    0  501 -0.00000000000E+00 -0.00000000000E+00 -0.35868502023E+03  0.35868502023E+03  0.00000000000E+00 0.  1.
         23    2    1    2    0    0 -0.20137709631E+02 -0.47470097812E+02 -0.19179738144E+03  0.21735830197E+03  0.88314542259E+02 0.  0.
          5    1    1    2  502    0  0.38649250529E+02  0.58477802081E+02 -0.14461558539E+02  0.71693981463E+02  0.41800000000E+01 0. -1.
         -5    1    1    2    0  502 -0.18511540898E+02 -0.11007704269E+02 -0.10994564364E+03  0.11211317342E+03  0.41800000000E+01 0. -1.
        -11    1    3    3    0    0 -0.43953370780E+02 -0.15517853351E+02 -0.15916822207E+03  0.16585302376E+03  0.00000000000E+00 0.  1.
         11    1    3    3    0    0  0.23815661149E+02 -0.31952244461E+02 -0.32629159369E+02  0.51505278207E+02  0.00000000000E+00 0. -1.
</event>
<event>
 7    1  0.5831876E-006  0.1203575E+03  0.7561462E-02  0.1242508E+00
         -2   -1    0    0    0  501 -0.00000000000E+00  0.00000000000E+00  0.19172994907E+02  0.19172994907E+02  0.00000000000E+00 0. -1.
          2   -1    0    0  501    0  0.00000000000E+00 -0.00000000000E+00 -0.11066864310E+04  0.11066864310E+04  0.00000000000E+00 0.  1.
         23    2    1    2    0    0  0.45101625872E+02  0.25064749501E+02 -0.18405969256E+03  0.21232836401E+03  0.92428163551E+02 0.  0.
          5    1    1    2  502    0 -0.87400674173E+02 -0.29103587145E+02 -0.58365427617E+03  0.59089396944E+03  0.41800000000E+01 0.  1.
         -5    1    1    2    0  502  0.42299048301E+02  0.40388376440E+01 -0.31979946739E+03  0.32263709248E+03  0.41800000000E+01 0.  1.
        -11    1    3    3    0    0 -0.11339218035E+02 -0.26832934772E+02 -0.47780512121E+02  0.55960357331E+02  0.00000000000E+00 0.  1.
         11    1    3    3    0    0  0.56440843907E+02  0.51897684274E+02 -0.13627918044E+03  0.15636800668E+03  0.00000000000E+00 0. -1.
</event>
<event>
 7    1  0.5831876E-006  0.8357769E+02  0.7561462E-02  0.1319194E+00
         -1   -1    0    0    0  501 -0.00000000000E+00  0.00000000000E+00  0.58967652066E+02  0.58967652066E+02  0.00000000000E+00 0.  1.
          1   -1    0    0  501    0  0.00000000000E+00 -0.00000000000E+00 -0.25285169600E+03  0.25285169600E+03  0.00000000000E+00 0. -1.
         23    2    1    2    0    0  0.87837907113E-01 -0.56826872104E+02 -0.68078528263E+02  0.12552852546E+03  0.88844941244E+02 0.  0.
          5    1    1    2  502    0 -0.96799512010E+01  0.48816685778E+02 -0.15035267382E+03  0.15843032914E+03  0.41800000000E+01 0. -1.
         -5    1    1    2    0  502  0.95921132938E+01  0.80101863257E+01  0.24547158157E+02  0.27860493463E+02  0.41800000000E+01 0. -1.
        -11    1    3    3    0    0 -0.42960865551E+02 -0.36751800823E+02 -0.26658013620E+02  0.62505843909E+02  0.00000000000E+00 0. -1.
         11    1    3    3    0    0  0.43048703458E+02 -0.20075071281E+02 -0.41420514643E+02  0.63022681549E+02  0.00000000000E+00 0.  1.
</event>
<event>
 7    1  0.5831876E-006  0.1126530E+03  0.7561462E-02  0.1255734E+00
          4   -1    0    0  501    0  0.00000000000E+00  0.00000000000E+00  0.24228275224E+03  0.24228275224E+03  0.00000000000E+00 0. -1.
         -4   -1    0    0    0  501 -0.00000000000E+00 -0.00000000000E+00 -0.72987199742E+02  0.72987199742E+02  0.00000000000E+00 0.  1.
         23    2    1    2    0    0 -0.35747898774E+02 -0.24475604590E+01 -0.53152828172E+01  0.97503732693E+02  0.90525260776E+02 0.  0.
          5    1    1    2  502    0  0.36086795776E+02  0.61137509308E+02  0.10109784973E+03  0.12360541855E+03  0.41800000000E+01 0.  1.
         -5    1    1    2    0  502 -0.33889700180E+00 -0.58689948849E+02  0.73512985582E+02  0.94160800742E+02  0.41800000000E+01 0.  1.
        -11    1    3    3    0    0 -0.65403268103E+02 -0.49440346002E+01 -0.12775907945E+02  0.66822561912E+02  0.00000000000E+00 0.  1.
         11    1    3    3    0    0  0.29655369329E+02  0.24964741412E+01  0.74606251273E+01  0.30681170781E+02  0.00000000000E+00 0. -1.
</event>
<event>
 7    1  0.5831876E-006  0.9291792E+02  0.7561462E-02  0.1295936E+00
          1   -1    0    0  501    0  0.00000000000E+00  0.00000000000E+00  0.16028787554E+03  0.16028787554E+03  0.00000000000E+00 0. -1.
         -1   -1    0    0    0  501 -0.00000000000E+00 -0.00000000000E+00 -0.92674841827E+02  0.92674841827E+02  0.00000000000E+00 0.  1.
         23    2    1    2    0    0  0.39968143593E+02 -0.31293231032E+02  0.18226517260E+02  0.10921589859E+03  0.94969404350E+02 0.  0.
          5    1    1    2  502    0  0.15064668921E+02  0.66494954513E+02  0.34874914206E+02  0.76695862119E+02  0.41800000000E+01 0.  1.
         -5    1    1    2    0  502 -0.55032812515E+02 -0.35201723480E+02  0.14511602250E+02  0.67050956661E+02  0.41800000000E+01 0.  1.
        -11    1    3    3    0    0  0.85396931935E+01 -0.13431623577E+02 -0.38663898678E+02  0.41811863540E+02  0.00000000000E+00 0.  1.
         11    1    3    3    0    0  0.31428450400E+02 -0.17861607455E+02  0.56890415937E+02  0.67404035049E+02  0.00000000000E+00 0. -1.
</event>
<event>
 7    1  0.5831876E-006  0.1104913E+03  0.7561462E-02  0.1259663E+00
          2   -1    0    0  501    0  0.00000000000E+00  0.00000000000E+00  0.10621439700E+03  0.10621439700E+03  0.00000000000E+00 0. -1.
         -2   -1    0    0    0  501 -0.00000000000E+00 -0.00000000000E+00 -0.17940809862E+03  0.17940809862E+03  0.00000000000E+00 0.  1.
         23    2    1    2    0    0 -0.25249605048E+01  0.68360938695E+02 -0.88503748235E+02  0.14222985294E+03  0.87845456638E+02 0.  0.
          5    1    1    2  502    0  0.58676151123E+02 -0.62432967123E+02  0.57422597639E+01  0.85972158525E+02  0.41800000000E+01 0.  1.
         -5    1    1    2    0  502 -0.56151190618E+02 -0.59279715729E+01  0.95677868561E+01  0.57420484151E+02  0.41800000000E+01 0.  1.
        -11    1    3    3    0    0  0.17968055889E+02  0.27110663681E+02 -0.90458688988E+02  0.96128109994E+02  0.00000000000E+00 0.  1.
         11    1    3    3    0    0 -0.20493016394E+02  0.41250275014E+02  0.19549407529E+01  0.46101742950E+02  0.00000000000E+00 0. -1.
</event>
<event>
 7    1  0.5831876E-006  0.9043991E+02  0.7561462E-02  0.1301790E+00
         -2   -1    0    0    0  501 -0.00000000000E+00  0.00000000000E+00  0.13046980951E+03  0.13046980951E+03  0.00000000000E+00 0.  1.
          2   -1    0    0  501    0  0.00000000000E+00 -0.00000000000E+00 -0.10868476206E+03  0.10868476206E+03  0.00000000000E+00 0. -1.
         23    2    1    2    0    0  0.49016329326E+02  0.10245247283E+02  0.27910111776E+02  0.10426977493E+03  0.87095614077E+02 0.  0.
          5    1    1    2  502    0  0.25649221491E+02  0.12179177475E+02  0.36105655980E+02  0.46122724559E+02  0.41800000000E+01 0. -1.
         -5    1    1    2    0  502 -0.74665550818E+02 -0.22424424757E+02 -0.42230720304E+02  0.88762072092E+02  0.41800000000E+01 0. -1.
        -11    1    3    3    0    0 -0.31095784828E+01 -0.15613504309E+02 -0.22309642693E+02  0.27407501751E+02  0.00000000000E+00 0. -1.
         11    1    3    3    0    0  0.52125907809E+02  0.25858751592E+02  0.50219754469E+02  0.76862273176E+02  0.00000000000E+00 0.  1.
</event>
<event>
 7    1  0.5831876E-006  0.1492424E+03  0.7561462E-02  0.1201407E+00
         -1   -1    0    0    0  501 -0.00000000000E+00  0.00000000000E+00  0.34266318353E+02  0.34266318353E+02  0.00000000000E+00 0.  1.
          1   -1    0    0  501    0  0.00000000000E+00 -0.00000000000E+00 -0.10172918526E+04  0.10172918526E+04  0.00000000000E+00 0. -1.
         23    2    1    2    0    0 -0.13061455768E+02  0.10965036783E+03 -0.17267189967E+03  0.22420434058E+03  0.90874620252E+02 0.  0.
          5    1    1    2  502    0  0.20912652341E+02 -0.13608225710E+03 -0.63230408515E+03  0.64713340836E+03  0.41800000000E+01 0.  1.
         -5    1    1    2    0  502 -0.78511965732E+01  0.26431889274E+02 -0.17804954945E+03  0.18022042204E+03  0.41800000000E+01 0.  1.
        -11    1    3    3    0    0 -0.37356867459E+02  0.99932218320E+02 -0.16578501817E+03  0.19714628085E+03  0.00000000000E+00 0. -1.
         11    1    3    3    0    0  0.24295411692E+02  0.97181495106E+01 -0.68868814989E+01  0.27058059723E+02  0.00000000000E+00 0.  1.
</event>
<event>
 7    1  0.5831876E-006  0.2754133E+03  0.7561462E-02  0.1098221E+00
          2   -1    0    0  501    0  0.00000000000E+00  0.00000000000E+00  0.17406599649E+04  0.17406599649E+04  0.00000000000E+00 0. -1.
         -2   -1    0    0    0  501 -0.00000000000E+00 -0.00000000000E+00 -0.49251676833E+02  0.49251676833E+02  0.00000000000E+00 0.  1.
         23    2    1    2    0    0 -0.25721659114E+03  0.48006802250E+02  0.56471165207E+03  0.62648706023E+03  0.71566464424E+02 0.  0.
          5    1    1    2  502    0  0.45250470821E+01 -0.35370958999E+02  0.17629530371E+03  0.17991411090E+03  0.41800000000E+01 0.  1.
         -5    1    1    2    0  502  0.25269154406E+03 -0.12635843251E+02  0.95040133227E+03  0.98351047058E+03  0.41800000000E+01 0.  1.
        -11    1    3    3    0    0 -0.67312613270E+02  0.17417253254E+02  0.86098462069E+02  0.11066749201E+03  0.00000000000E+00 0.  1.
         11    1    3    3    0    0 -0.18990397787E+03  0.30589548996E+02  0.47861319000E+03  0.51581956822E+03  0.00000000000E+00 0. -1.
</event>
<event>
 7    1  0.5831876E-006  0.1789515E+03  0.7561462E-02  0.1168822E+00
         -2   -1    0    0    0  501 -0.00000000000E+00  0.00000000000E+00  0.28961368447E+02  0.28961368447E+02  0.00000000000E+00 0.  1.
          2   -1    0    0  501    0  0.00000000000E+00 -0.00000000000E+00 -0.18220160050E+04  0.18220160050E+04  0.00000000000E+00 0. -1.
         23    2    1    2    0    0  0.17306352624E+03 -0.33133064006E+02 -0.47100471065E+03  0.51138334276E+03  0.92836963237E+02 0.  0.
          5    1    1    2  502    0 -0.16509755931E+03  0.33817010659E+02 -0.80482513804E+03  0.82229056271E+03  0.41800000000E+01 0.  1.
         -5    1    1    2    0  502 -0.79659669272E+01 -0.68394665336E+00 -0.51722478790E+03  0.51730346803E+03  0.41800000000E+01 0.  1.
        -11    1    3    3    0    0  0.79492213420E+02 -0.34660513655E+02 -0.33670704685E+03  0.34769526687E+03  0.00000000000E+00 0. -1.
         11    1    3    3    0    0  0.93571312821E+02  0.15274496490E+01 -0.13429766380E+03  0.16368807589E+03  0.00000000000E+00 0.  1.
</event>
<event>
 7    1  0.5831876E-006  0.1552292E+03  0.7561462E-02  0.1194191E+00
          1   -1    0    0  501    0  0.00000000000E+00  0.00000000000E+00  0.79182717734E+03  0.79182717734E+03  0.00000000000E+00 0. -1.
         -1   -1    0    0    0  501 -0.00000000000E+00 -0.00000000000E+00 -0.32374938681E+02  0.32374938681E+02  0.00000000000E+00 0.  1.
         23    2    1    2    0    0 -0.11717437491E+03  0.82093719169E+00  0.35676021917E+03  0.38655293788E+03  0.91732282921E+02 0.  0.
          5    1    1    2  502    0  0.10705891720E+03  0.49422181530E+02  0.24806069263E+03  0.27469208836E+03  0.41800000000E+01 0.  1.
         -5    1    1    2    0  502  0.10115457713E+02 -0.50243118722E+02  0.15463132686E+03  0.16295708978E+03  0.41800000000E+01 0.  1.
        -11    1    3    3    0    0 -0.34557193985E+02 -0.36611995764E+02  0.19184181394E+03  0.19833789215E+03  0.00000000000E+00 0. -1.
         11    1    3    3    0    0 -0.82617180923E+02  0.37432932956E+02  0.16491840524E+03  0.18821504573E+03  0.00000000000E+00 0.  1.
</event>
<event>
 7    1  0.5831876E-006  0.1585317E+03  0.7561462E-02  0.1190364E+00
          1   -1    0    0  501    0  0.00000000000E+00  0.00000000000E+00  0.78156145990E+02  0.78156145990E+02  0.00000000000E+00 0. -1.
         -1   -1    0    0    0  501 -0.00000000000E+00 -0.00000000000E+00 -0.40184646750E+03  0.40184646750E+03  0.00000000000E+00 0.  1.
         23    2    1    2    0    0 -0.26430208237E+02 -0.27688634764E+02 -0.18779648363E+03  0.21252266872E+03  0.91832178754E+02 0.  0.
          5    1    1    2  502    0  0.97580697356E+02 -0.57943285354E+02 -0.39753564332E+02  0.12032138252E+03  0.41800000000E+01 0. -1.
         -5    1    1    2    0  502 -0.71150489118E+02  0.85631920117E+02 -0.96140273545E+02  0.14715856224E+03  0.41800000000E+01 0.  1.
        -11    1    3    3    0    0 -0.83107212126E+01 -0.57013204535E+02 -0.74995293097E+02  0.94572023163E+02  0.00000000000E+00 0. -1.
         11    1    3    3    0    0 -0.18119487025E+02  0.29324569771E+02 -0.11280119053E+03  0.11795064556E+03  0.00000000000E+00 0.  1.
</event>
<event>
 7    1  0.5831876E-006  0.1391139E+03  0.7561462E-02  0.1214526E+00
          2   -1    0    0  501    0  0.00000000000E+00  0.00000000000E+00  0.30017949254E+04  0.30017949254E+04  0.00000000000E+00 0. -1.
         -2   -1    0    0    0  501 -0.00000000000E+00 -0.00000000000E+00 -0.16252062606E+02  0.16252062606E+02  0.00000000000E+00 0.  1.
         23    2    1    2    0    0  0.97765751762E+02 -0.59203626883E+02  0.38612047828E+03  0.41310784215E+03  0.92227186051E+02 0.  0.
          5    1    1    2  502    0 -0.11526074705E+03  0.15719562389E+02  0.21258597173E+04  0.21290441880E+04  0.41800000000E+01 0.  1.
         -5    1    1    2    0  502  0.17494995283E+02  0.43484064494E+02  0.47356266724E+03  0.47589495788E+03  0.41800000000E+01 0.  1.
        -11    1    3    3    0    0  0.15606019027E+02 -0.52043573077E+01  0.19614802925E+01  0.16567455139E+02  0.00000000000E+00 0.  1.
         11    1    3    3    0    0  0.82159732735E+02 -0.53999269575E+02  0.38415899798E+03  0.39654038701E+03  0.00000000000E+00 0. -1.
</event>
<event>
 7    1  0.5831876E-006  0.1095664E+03  0.7561462E-02  0.1261375E+00
          1   -1    0    0  501    0  0.00000000000E+00  0.00000000000E+00  0.24006860032E+03  0.24006860032E+03  0.00000000000E+00 0. -1.
         -1   -1    0    0    0  501 -0.00000000000E+00 -0.00000000000E+00 -0.79018055073E+02  0.79018055073E+02  0.00000000000E+00 0.  1.
         23    2    1    2    0    0 -0.17165247579E+02 -0.72362667976E+02  0.68653810764E+01  0.10706945976E+03  0.76718539579E+02 0.  0.
          5    1    1    2  502    0  0.24283156717E+02  0.95948775054E+02  0.15825129273E+03  0.18669971394E+03  0.41800000000E+01 0.  1.
         -5    1    1    2    0  502 -0.71179091376E+01 -0.23586107078E+02 -0.40661285630E+01  0.25317481689E+02  0.41800000000E+01 0.  1.
        -11    1    3    3    0    0 -0.34626435774E+02 -0.69139446600E+02  0.25411198248E+02  0.81393993187E+02  0.00000000000E+00 0. -1.
         11    1    3    3    0    0  0.17461188195E+02 -0.32232213765E+01 -0.18545817172E+02  0.25675466574E+02  0.00000000000E+00 0.  1.
</event>
<event>
 7    1  0.5831876E-006  0.1239770E+03  0.7561462E-02  0.1236677E+00
         -2   -1    0    0    0  501 -0.00000000000E+00  0.00000000000E+00  0.27102893030E+02  0.27102893030E+02  0.00000000000E+00 0. -1.
          2   -1    0    0  501    0  0.00000000000E+00 -0.00000000000E+00 -0.94430763392E+03  0.94430763392E+03  0.00000000000E+00 0.  1.
         23    2    1    2    0    0 -0.10963702519E+03  0.20669722833E+02 -0.29281517599E+03  0.32491447411E+03  0.85913755942E+02 0.  0.
          5    1    1    2  502    0  0.39122970221E+02  0.55635391386E+01 -0.49628628683E+03  0.49787459331E+03  0.41800000000E+01 0.  1.
         -5    1    1    2    0  502  0.70514054970E+02 -0.26233261972E+02 -0.12810327807E+03  0.14862145954E+03  0.41800000000E+01 0.  1.
        -11    1    3    3    0    0 -0.49350813868E+02 -0.26777211568E+02 -0.17946127588E+03  0.18803954752E+03  0.00000000000E+00 0.  1.
         11    1    3    3    0    0 -0.60286211323E+02  0.47446934402E+02 -0.11335390011E+03  0.13687492659E+03  0.00000000000E+00 0. -1.
</event>
<event>
 7    1  0.5831876E-006  0.1099649E+03  0.7561462E-02  0.1260635E+00
         -1   -1    0    0    0  501 -0.00000000000E+00  0.00000000000E+00  0.45743615279E+02  0.45743615279E+02  0.00000000000E+00 0.  1.
          1   -1    0    0  501    0  0.00000000000E+00 -0.00000000000E+00 -0.36691100801E+03  0.36691100801E+03  0.00000000000E+00 0. -1.
         23    2    1    2    0    0 -0.48203680326E+02 -0.34978315078E+02 -0.13646776287E+03  0.18176900764E+03  0.10425662814E+03 0.  0.
          5    1    1    2  502    0  0.54994125300E+02  0.75498700587E+02 -0.10150042010E+03  0.13800078003E+03  0.41800000000E+01 0.  1.
         -5    1    1    2    0  502 -0.67904449749E+01 -0.40520385509E+02 -0.83199209756E+02  0.92884835623E+02  0.41800000000E+01 0.  1.
        -11    1    3    3    0    0  0.79967267213E+01 -0.27257186269E+02 -0.11910140922E+03  0.12244201697E+03  0.00000000000E+00 0. -1.
         11    1    3    3    0    0 -0.56200407047E+02 -0.77211288083E+01 -0.17366353654E+02  0.59326990667E+02  0.00000000000E+00 0.  1.
</event>
<event>
 7    1  0.5831876E-006  0.1185958E+03  0.7561462E-02  0.1245432E+00
         -1   -1    0    0    0  501 -0.00000000000E+00  0.00000000000E+00  0.58312582251E+02  0.58312582251E+02  0.00000000000E+00 0. -1.
          1   -1    0    0  501    0  0.00000000000E+00 -0.00000000000E+00 -0.35087405053E+03  0.35087405053E+03  0.00000000000E+00 0.  1.
         23    2    1    2    0    0 -0.73239248224E+02 -0.16740494389E+02 -0.54988141736E+02  0.13037792987E+03  0.91271448069E+02 0.  0.
          5    1    1    2  502    0 -0.12517330205E+02  0.51445115157E+02 -0.93774340845E+02  0.10777004607E+03  0.41800000000E+01 0. -1.
         -5    1    1    2    0  502  0.85756578429E+02 -0.34704620768E+02 -0.14379898570E+03  0.17103865685E+03  0.41800000000E+01 0. -1.
        -11    1    3    3    0    0 -0.51634117564E+02 -0.35663604517E+02  0.59260933093E+01  0.63032478658E+02  0.00000000000E+00 0. -1.
         11    1    3    3    0    0 -0.21605130660E+02  0.18923110128E+02 -0.60914235045E+02  0.67345451212E+02  0.00000000000E+00 0.  1.
</event>
<event>
 7    1  0.5831876E-006  0.1384139E+03  0.7561462E-02  0.1215479E+00
         -1   -1    0    0    0  501 -0.00000000000E+00  0.00000000000E+00  0.58677538715E+02  0.58677538715E+02  0.00000000000E+00 0.  1.
          1   -1    0    0  501    0  0.00000000000E+00 -0.00000000000E+00 -0.54420374034E+03  0.54420374034E+03  0.00000000000E+00 0. -1.
         23    2    1    2    0    0  0.69849150994E+02  0.10476679873E+03 -0.12110283004E+03  0.19753328808E+03  0.92187409372E+02 0.  0.
          5    1    1    2  502    0 -0.85843871563E+02 -0.69845951862E+02 -0.14451084120E+03  0.18206724829E+03  0.41800000000E+01 0.  1.
         -5    1    1    2    0  502  0.15994720569E+02 -0.34920846863E+02 -0.21991253039E+03  0.22328074268E+03  0.41800000000E+01 0.  1.
        -11    1    3    3    0    0  0.59673986289E+02  0.99407596077E+02 -0.13599945149E+03  0.17871403304E+03  0.00000000000E+00 0. -1.
         11    1    3    3    0    0  0.10175164705E+02  0.53592026486E+01  0.14896621452E+02  0.18819255046E+02  0.00000000000E+00 0.  1.
</event>
<event>
 7    1  0.5831876E-006  0.2534686E+03  0.7561462E-02  0.1111132E+00
         -3   -1    0    0    0  501 -0.00000000000E+00  0.00000000000E+00  0.63432114715E+03  0.63432114715E+03  0.00000000000E+00 0.  1.
          3   -1    0    0  501    0  0.00000000000E+00 -0.00000000000E+00 -0.14246688486E+03  0.14246688486E+03  0.00000000000E+00 0. -1.
         23    2    1    2    0    0 -0.12632688653E+03 -0.20468532850E+03  0.42752232544E+03  0.49814632672E+03  0.86717115465E+02 0.  0.
          5    1    1    2  502    0  0.66132148592E+02  0.19354705159E+03  0.25823017813E+02  0.20619947359E+03  0.41800000000E+01 0. -1.
         -5    1    1    2    0  502  0.60194737934E+02  0.11138276907E+02  0.38508919037E+02  0.72442231694E+02  0.41800000000E+01 0. -1.
        -11    1    3    3    0    0 -0.82085521305E+02 -0.14620640283E+03  0.21078961508E+03  0.26934477323E+03  0.00000000000E+00 0. -1.
         11    1    3    3    0    0 -0.44241365221E+02 -0.58478925670E+02  0.21673271036E+03  0.22880155350E+03  0.00000000000E+00 0.  1.
</event>
<event>
 7    1  0.5831876E-006  0.8063837E+02  0.7561462E-02  0.1327250E+00
          1   -1    0    0  501    0  0.00000000000E+00  0.00000000000E+00  0.29805000619E+02  0.29805000619E+02  0.00000000000E+00 0. -1.
         -1   -1    0    0    0  501 -0.00000000000E+00 -0.00000000000E+00 -0.48205771443E+03  0.48205771443E+03  0.00000000000E+00 0.  1.
         23    2    1    2    0    0 -0.91575693387E+01  0.49012030795E+02 -0.19924295195E+03  0.22524863932E+03  0.92483270798E+02 0.  0.
          5    1    1    2  502    0 -0.29727778917E+02 -0.57297324686E+01 -0.21461039472E+03  0.21677560885E+03  0.41800000000E+01 0.  1.
         -5    1    1    2    0  502  0.38885348255E+02 -0.43282298327E+02 -0.38399367144E+02  0.69838466868E+02  0.41800000000E+01 0.  1.
        -11    1    3    3    0    0  0.15814617690E+02  0.44206138548E+02 -0.19358423146E+03  0.19919623362E+03  0.00000000000E+00 0.  1.
         11    1    3    3    0    0 -0.24972187028E+02  0.48058922472E+01 -0.56587204827E+01  0.26052405700E+02  0.00000000000E+00 0. -1.
</event>
<event>
 7    1  0.5831876E-006  0.1065339E+03  0.7561462E-02  0.1267127E+00
         -2   -1    0    0    0  501 -0.00000000000E+00  0.00000000000E+00  0.11358427699E+02  0.11358427699E+02  0.00000000000E+00 0. -1.
          2   -1    0    0  501    0  0.00000000000E+00 -0.00000000000E+00 -0.13309035313E+04  0.13309035313E+04  0.00000000000E+00 0.  1.
         23    2    1    2    0    0  0.10293753521E+01 -0.31642262470E+02 -0.31334940445E+03  0.32782669402E+03  0.90995602383E+02 0.  0.
          5    1    1    2  502    0 -0.28354191412E+01  0.77627256765E+02 -0.75741143616E+03  0.76139581469E+03  0.41800000000E+01 0. -1.
         -5    1    1    2    0  502  0.18060437891E+01 -0.45984994295E+02 -0.24878426300E+03  0.25303945031E+03  0.41800000000E+01 0. -1.
        -11    1    3    3    0    0 -0.18633414249E+02  0.23808245578E+02 -0.17336343036E+03  0.17597987291E+03  0.00000000000E+00 0.  1.
         11    1    3    3    0    0  0.19662789601E+02 -0.55450508048E+02 -0.13998597409E+03  0.15184682111E+03  0.00000000000E+00 0. -1.
</event>
<event>
 7    1  0.5831876E-006  0.1410287E+03  0.7561462E-02  0.1211951E+00
         -2   -1    0    0    0  501 -0.00000000000E+00  0.00000000000E+00  0.46174493886E+02  0.46174493886E+02  0.00000000000E+00 0.  1.
          2   -1    0    0  501    0  0.00000000000E+00 -0.00000000000E+00 -0.53150256868E+03  0.53150256868E+03  0.00000000000E+00 0. -1.
         23    2    1    2    0    0  0.72258293402E+02 -0.84182756889E+02 -0.15600652042E+03  0.20834176791E+03  0.82220802240E+02 0.  0.
          5    1    1    2  502    0 -0.52964323307E+02 -0.22961580469E+02 -0.10272967573E+03  0.11791230808E+03  0.41800000000E+01 0. -1.
         -5    1    1    2    0  502 -0.19293970095E+02  0.10714433736E+03 -0.22659187865E+03  0.25142298657E+03  0.41800000000E+01 0. -1.
        -11    1    3    3    0    0  0.60563482867E+02 -0.48222056797E+02 -0.15166233847E+03  0.17027849872E+03  0.00000000000E+00 0. -1.
         11    1    3    3    0    0  0.11694810535E+02 -0.35960700092E+02 -0.43441819539E+01  0.38063269190E+02  0.00000000000E+00 0.  1.
</event>
<event>
 7    1  0.5831876E-006  0.1081272E+03  0.7561462E-02  0.1264078E+00
          3   -1    0    0  501    0  0.00000000000E+00  0.00000000000E+00  0.34867446417E+03  0.34867446417E+03  0.00000000000E+00 0. -1.
         -3   -1    0    0    0  501 -0.00000000000E+00 -0.00000000000E+00 -0.43159302212E+02  0.43159302212E+02  0.00000000000E+00 0.  1.
         23    2    1    2    0    0 -0.31514326706E+02  0.50149775218E+01  0.97379966468E+02  0.13722081261E+03  0.91260017301E+02 0.  0.
          5    1    1    2  502    0 -0.49132312943E+02 -0.91098763254E+01  0.14055447107E+03  0.14923138329E+03  0.41800000000E+01 0. -1.
         -5    1    1    2    0  502  0.80646639649E+02  0.40948988037E+01  0.67580724420E+02  0.10538157048E+03  0.41800000000E+01 0.  1.
        -11    1    3    3    0    0  0.26411471342E+02  0.68897604152E+01  0.43862208823E+01  0.27645497837E+02  0.00000000000E+00 0.  1.
         11    1    3    3    0    0 -0.57925798047E+02 -0.18747828934E+01  0.92993745586E+02  0.10957531478E+03  0.00000000000E+00 0. -1.
</event>
<event>
 7    1  0.5831876E-006  0.6891345E+02  0.7561462E-02  0.1363827E+00
         -1   -1    0    0    0  501 -0.00000000000E+00  0.00000000000E+00  0.84802752489E+02  0.84802752489E+02  0.00000000000E+00 0.  1.
          1   -1    0    0  501    0  0.00000000000E+00 -0.00000000000E+00 -0.15517748252E+03  0.15517748252E+03  0.00000000000E+00 0. -1.
         23    2    1    2    0    0  0.29855179207E+02 -0.20981370110E+02 -0.16900913393E+02  0.99124030771E+02  0.90600126852E+02 0.  0.
          5    1    1    2  502    0  0.98818917796E+01 -0.18317166638E+02  0.32147418520E+02  0.38524009349E+02  0.41800000000E+01 0. -1.
         -5    1    1    2    0  502 -0.39737070986E+02  0.39298536748E+02 -0.85621235157E+02  0.10233219489E+03  0.41800000000E+01 0. -1.
        -11    1    3    3    0    0 -0.12484119112E+02  0.15731854629E+01 -0.42797128471E+02  0.44608545682E+02  0.00000000000E+00 0. -1.
         11    1    3    3    0    0  0.42339298318E+02 -0.22554555573E+02  0.25896215078E+02  0.54515485089E+02  0.00000000000E+00 0.  1.
</event>
<event>
 7    1  0.5831876E-006  0.1183246E+03  0.7561462E-02  0.1245887E+00
         -1   -1    0    0    0  501 -0.00000000000E+00  0.00000000000E+00  0.74888267555E+02  0.74888267555E+02  0.00000000000E+00 0.  1.
          1   -1    0    0  501    0  0.00000000000E+00 -0.00000000000E+00 -0.18893833872E+03  0.18893833872E+03  0.00000000000E+00 0. -1.
         23    2    1    2    0    0  0.36410355417E+02 -0.11959484075E+02 -0.45337509730E+02  0.11604879865E+03  0.99715047201E+02 0.  0.
          5    1    1    2  502    0 -0.82339446189E+02  0.17394739057E+02 -0.41091673448E+02  0.93746249911E+02  0.41800000000E+01 0. -1.
         -5    1    1    2    0  502  0.45929090773E+02 -0.54352549822E+01 -0.27620887985E+02  0.54031557714E+02  0.41800000000E+01 0. -1.
        -11    1    3    3    0    0  0.48941533868E+01 -0.53547048800E+02 -0.15590599181E+02  0.55984872558E+02  0.00000000000E+00 0.  1.
         11    1    3    3    0    0  0.31516202030E+02  0.41587564725E+02 -0.29746910549E+02  0.60063926090E+02  0.00000000000E+00 0. -1.
</event>
<event>
 7    1  0.5831876E-006  0.1358216E+03  0.7561462E-02  0.1219065E+00
          1   -1    0    0  501    0  0.00000000000E+00  0.00000000000E+00  0.86803643050E+03  0.86803643050E+03  0.00000000000E+00 0. -1.
         -1   -1    0    0    0  501 -0.00000000000E+00 -0.00000000000E+00 -0.21891249675E+02  0.21891249675E+02  0.00000000000E+00 0.  1.
         23    2    1    2    0    0  0.61488612679E+01  0.84106466896E+02  0.34037375939E+03  0.36213602317E+03  0.90423984263E+02 0.  0.
          5    1    1    2  502    0  0.39876691014E+02  0.13640796195E+02  0.15994127466E+03  0.16545363564E+03  0.41800000000E+01 0. -1.
         -5    1    1    2    0  502 -0.46025552282E+02 -0.97747263091E+02  0.34583014678E+03  0.36233802137E+03  0.41800000000E+01 0. -1.
        -11    1    3    3    0    0  0.46487038171E+02  0.39229449150E+02  0.13478650325E+03  0.14787628565E+03  0.00000000000E+00 0. -1.
         11    1    3    3    0    0 -0.40338176903E+02  0.44877017745E+02  0.20558725613E+03  0.21425973752E+03  0.00000000000E+00 0.  1.
</event>
<event>
 7    1  0.5831876E-006  0.1307135E+03  0.7561462E-02  0.1226401E+00
          2   -1    0    0  501    0  0.00000000000E+00  0.00000000000E+00  0.77764694516E+03  0.77764694516E+03  0.00000000000E+00 0. -1.
         -2   -1    0    0    0  501 -0.00000000000E+00 -0.00000000000E+00 -0.46685671550E+02  0.46685671550E+02  0.00000000000E+00 0.  1.
         23    2    1    2    0    0  0.11150658270E+03  0.74669341326E+01  0.10816350856E+03  0.17934097798E+03  0.89299320860E+02 0.  0.
          5    1    1    2  502    0 -0.26788439927E+02  0.42047433523E+02  0.37688053101E+03  0.38018681491E+03  0.41800000000E+01 0.  1.
         -5    1    1    2    0  502 -0.84718142778E+02 -0.49514367656E+02  0.24591723404E+03  0.26480482382E+03  0.41800000000E+01 0.  1.
        -11    1    3    3    0    0  0.19955055515E+02  0.83329859775E+01 -0.14676371850E+02  0.26135010744E+02  0.00000000000E+00 0.  1.
         11    1    3    3    0    0  0.91551527190E+02 -0.86605184497E+00  0.12283988041E+03  0.15320596723E+03  0.00000000000E+00 0. -1.
</event>
<event>
 7    1  0.5831876E-006  0.2924115E+03  0.7561462E-02  0.1089097E+00
          2   -1    0    0  501    0  0.00000000000E+00  0.00000000000E+00  0.13285741941E+04  0.13285741941E+04  0.00000000000E+00 0.  1.
         -2   -1    0    0    0  501 -0.00000000000E+00 -0.00000000000E+00 -0.66456031604E+02  0.66456031604E+02  0.00000000000E+00 0. -1.
         23    2    1    2    0    0 -0.15557196857E+03  0.22735072946E+03  0.66172004803E+03  0.72270801433E+03  0.92425431660E+02 0.  0.
          5    1    1    2  502    0  0.12737803760E+03 -0.23932575431E+03  0.52649186309E+03  0.59221038106E+03  0.41800000000E+01 0. -1.
         -5    1    1    2    0  502  0.28193930971E+02  0.11975024854E+02  0.73906251371E+02  0.80111830310E+02  0.41800000000E+01 0. -1.
        -11    1    3    3    0    0 -0.71304811298E+02  0.52118410465E+02  0.13580008999E+03  0.16199496679E+03  0.00000000000E+00 0. -1.
         11    1    3    3    0    0 -0.84267157273E+02  0.17523231899E+03  0.52591995804E+03  0.56071304754E+03  0.00000000000E+00 0.  1.
</event>
<event>
 7    1  0.5831876E-006  0.9265080E+02  0.7561462E-02  0.1296556E+00
          1   -1    0    0  501    0  0.00000000000E+00  0.00000000000E+00  0.46750668624E+02  0.46750668624E+02  0.00000000000E+00 0. -1.
         -1   -1    0    0    0  501 -0.00000000000E+00 -0.00000000000E+00 -0.50770705236E+03  0.50770705236E+03  0.00000000000E+00 0.  1.
         23    2    1    2    0    0 -0.31581142561E+02  0.40262538369E+02 -0.39485696152E+03  0.40887000757E+03  0.92974310776E+02 0.  0.
          5    1    1    2  502    0  0.49012866336E+02 -0.20881722062E+02  0.18822089378E+02  0.56657310484E+02  0.41800000000E+01 0. -1.
         -5    1    1    2    0  502 -0.17431723774E+02 -0.19380816308E+02 -0.84921511593E+02  0.88930402932E+02  0.41800000000E+01 0.  1.
        -11    1    3    3    0    0  0.21363094068E+02  0.47445227580E+02 -0.17202517525E+03  0.17972226442E+03  0.00000000000E+00 0.  1.
         11    1    3    3    0    0 -0.52944236629E+02 -0.71826892108E+01 -0.22283178628E+03  0.22914774315E+03  0.00000000000E+00 0. -1.
</event>
<event>
 7    1  0.5831876E-006  0.1694226E+03  0.7561462E-02  0.1178451E+00
         -2   -1    0    0    0  501 -0.00000000000E+00  0.00000000000E+00  0.15111918513E+03  0.15111918513E+03  0.00000000000E+00 0. -1.
          2   -1    0    0  501    0  0.00000000000E+00 -0.00000000000E+00 -0.20518043599E+03  0.20518043599E+03  0.00000000000E+00 0.  1.
         23    2    1    2    0    0 -0.18392803756E+02  0.13748350627E+03 -0.19709212836E+02  0.16638556133E+03  0.89753508125E+02 0.  0.
          5    1    1    2  502    0  0.66938878333E+02 -0.54137852549E+02 -0.35869203679E+02  0.93358409818E+02  0.41800000000E+01 0.  1.
         -5    1    1    2    0  502 -0.48546074577E+02 -0.83345653723E+02  0.15171656590E+01  0.96555649980E+02  0.41800000000E+01 0.  1.
        -11    1    3    3    0    0  0.20063167736E+02  0.89922548882E+01  0.16467801162E+02  0.27469616356E+02  0.00000000000E+00 0. -1.
         11    1    3    3    0    0 -0.38455971492E+02  0.12849125138E+03 -0.36177013999E+02  0.13891594497E+03  0.00000000000E+00 0.  1.
</event>
<event>
 7    1  0.5831876E-006  0.1002143E+03  0.7561462E-02  0.1279846E+00
          1   -1    0    0  501    0  0.00000000000E+00  0.00000000000E+00  0.78451807613E+03  0.78451807613E+03  0.00000000000E+00 0. -1.
         -1   -1    0    0    0  501 -0.00000000000E+00 -0.00000000000E+00 -0.54384567773E+02  0.54384567773E+02  0.00000000000E+00 0.  1.
         23    2    1    2    0    0 -0.12849954738E+02  0.19350116693E+02 -0.41658052842E+01  0.95791073985E+02  0.92838718048E+02 0.  0.
          5    1    1    2  502    0  0.22932996451E+02 -0.59596020595E+02  0.57089725678E+03  0.57447259133E+03  0.41800000000E+01 0. -1.
         -5    1    1    2    0  502 -0.10083041713E+02  0.40245903902E+02  0.16340205687E+03  0.16863897859E+03  0.41800000000E+01 0.  1.
        -11    1    3    3    0    0  0.39941910769E+02  0.88238172890E+01  0.49159230190E+01  0.41199299588E+02  0.00000000000E+00 0. -1.
         11    1    3    3    0    0 -0.52791865507E+02  0.10526299404E+02 -0.90817283031E+01  0.54591774397E+02  0.00000000000E+00 0.  1.
</event>
<event>
 7    1  0.5831876E-006  0.1753175E+03  0.7561462E-02  0.1172413E+00
         -2   -1    0    0    0  501 -0.00000000000E+00  0.00000000000E+00  0.25675379232E+02  0.25675379232E+02  0.00000000000E+00 0.  1.
          2   -1    0    0  501    0  0.00000000000E+00 -0.00000000000E+00 -0.13996796611E+04  0.13996796611E+04  0.00000000000E+00 0. -1.
         23    2    1    2    0    0  0.51375494885E+02 -0.13793234867E+03 -0.47468901970E+03  0.50552907825E+03  0.92548415689E+02 0.  0.
          5    1    1    2  502    0 -0.16705328883E+02  0.14515959025E+03 -0.56459018349E+03  0.58320658634E+03  0.41800000000E+01 0.  1.
         -5    1    1    2    0  502 -0.34670166002E+02 -0.72272415733E+01 -0.33472507865E+03  0.33661937572E+03  0.41800000000E+01 0.  1.
        -11    1    3    3    0    0  0.73183111572E+02 -0.89002572151E+02 -0.26239287695E+03  0.28657851898E+03  0.00000000000E+00 0.  1.
         11    1    3    3    0    0 -0.21807616687E+02 -0.48929776524E+02 -0.21229614275E+03  0.21895055927E+03  0.00000000000E+00 0. -1.
</event>
<event>
 7    1  0.5831876E-006  0.7901143E+02  0.7561462E-02  0.1331880E+00
         -2   -1    0    0    0  501 -0.00000000000E+00  0.00000000000E+00  0.12938352422E+03  0.12938352422E+03  0.00000000000E+00 0. -1.
          2   -1    0    0  501    0  0.00000000000E+00 -0.00000000000E+00 -0.11128180080E+03  0.11128180080E+03  0.00000000000E+00 0.  1.
         23    2    1    2    0    0  0.38206461630E+02  0.12140064554E+02  0.42295254795E+02  0.10709518156E+03  0.89851958566E+02 0.  0.
          5    1    1    2  502    0  0.38530305080E+02  0.44777687172E+01  0.19502761461E+02  0.43617254921E+02  0.41800000000E+01 0.  1.
         -5    1    1    2    0  502 -0.76736766710E+02 -0.16617833272E+02 -0.43696292836E+02  0.89952888533E+02  0.41800000000E+01 0.  1.
        -11    1    3    3    0    0  0.17401739459E+02  0.80742318036E+01 -0.27849487804E+02  0.33817269646E+02  0.00000000000E+00 0.  1.
         11    1    3    3    0    0  0.20804722171E+02  0.40658327509E+01  0.70144742599E+02  0.73277911916E+02  0.00000000000E+00 0. -1.
</event>
<event>
 6    1  0.5831876E-006  0.5089493E+02  0.7561462E-02  0.1440573E+00
          2   -1    0    0  501    0  0.00000000000E+00  0.00000000000E+00  0.53271963315E+02  0.53271963315E+02  0.00000000000E+00 0. -1.
         -2   -1    0    0    0  501 -0.00000000000E+00 -0.00000000000E+00 -0.13786126276E+03  0.13786126276E+03  0.00000000000E+00 0.  1.
          5    1    1    2  502    0  0.18163892522E+02 -0.13238420268E+02  0.37401244345E+02  0.43835011593E+02  0.41800000000E+01 0. -1.
         -5    1    1    2    0  502 -0.88066443493E+01  0.37792352557E+02 -0.60376043748E+02  0.71892683600E+02  0.41800000000E+01 0.  1.
        -11    1    1    2    0    0 -0.11728673316E+02  0.31095630719E+01 -0.66749836582E+01  0.13848702722E+02  0.00000000000E+00 0.  1.
         11    1    1    2    0    0  0.23714251434E+01 -0.27663495360E+02 -0.54939516386E+02  0.61556828163E+02  0.00000000000E+00 0. -1.
</event>
<event>
 7    1  0.5831876E-006  0.1238257E+03  0.7561462E-02  0.1236916E+00
         -2   -1    0    0    0  501 -0.00000000000E+00  0.00000000000E+00  0.30381501427E+02  0.30381501427E+02  0.00000000000E+00 0.  1.
          2   -1    0    0  501    0  0.00000000000E+00 -0.00000000000E+00 -0.81575508235E+03  0.81575508235E+03  0.00000000000E+00 0. -1.
         23    2    1    2    0    0  0.36919383487E+02  0.62737157915E+02 -0.12712748995E+03  0.17216747504E+03  0.90450256501E+02 0.  0.
          5    1    1    2  502    0  0.27328810446E+02  0.18860789502E+02 -0.26940156577E+03  0.27147240983E+03  0.41800000000E+01 0.  1.
         -5    1    1    2    0  502 -0.64248193932E+02 -0.81597947417E+02 -0.38884452520E+03  0.40249669890E+03  0.41800000000E+01 0.  1.
        -11    1    3    3    0    0  0.63040592542E+02  0.53024678284E+02 -0.68055448216E+02  0.10685165814E+03  0.00000000000E+00 0.  1.
         11    1    3    3    0    0 -0.26121209055E+02  0.97124796316E+01 -0.59072041734E+02  0.65315816903E+02  0.00000000000E+00 0. -1.
</event>
<event>
 7    1  0.5831876E-006  0.1165994E+03  0.7561462E-02  0.1248815E+00
         -1   -1    0    0    0  501 -0.00000000000E+00  0.00000000000E+00  0.66240009429E+02  0.66240009429E+02  0.00000000000E+00 0. -1.
          1   -1    0    0  501    0  0.00000000000E+00 -0.00000000000E+00 -0.29027190430E+03  0.29027190430E+03  0.00000000000E+00 0.  1.
         23    2    1    2    0    0  0.48880544945E+02  0.12168746196E+02 -0.12944335745E+02  0.10602428289E+03  0.92391594185E+02 0.  0.
          5    1    1    2  502    0 -0.61250274395E+01  0.52424299184E+02 -0.11786024515E+03  0.12920655128E+03  0.41800000000E+01 0.  1.
         -5    1    1    2    0  502 -0.42755517506E+02 -0.64593045380E+02 -0.93227313971E+02  0.12128107956E+03  0.41800000000E+01 0.  1.
        -11    1    3    3    0    0  0.49963481632E+02  0.46545257176E+02 -0.19493513218E+02  0.71012727873E+02  0.00000000000E+00 0.  1.
         11    1    3    3    0    0 -0.10829366869E+01 -0.34376510980E+02  0.65491774729E+01  0.35011555015E+02  0.00000000000E+00 0. -1.
</event>
<event>
 7    1  0.5831876E-006  0.1083551E+03  0.7561462E-02  0.1263647E+00
         -1   -1    0    0    0  501 -0.00000000000E+00  0.00000000000E+00  0.22912158884E+02  0.22912158884E+02  0.00000000000E+00 0.  1.
          1   -1    0    0  501    0  0.00000000000E+00 -0.00000000000E+00 -0.11698314531E+04  0.11698314531E+04  0.00000000000E+00 0. -1.
         23    2    1    2    0    0 -0.94276084119E+02 -0.51271792807E+02 -0.32967841783E+03  0.35904860294E+03  0.93334148701E+02 0.  0.
          5    1    1    2  502    0  0.59148793736E+02  0.22129210174E+02 -0.12663980620E+03  0.14157469639E+03  0.41800000000E+01 0.  1.
         -5    1    1    2    0  502  0.35127290383E+02  0.29142582633E+02 -0.69060107022E+03  0.69212031269E+03  0.41800000000E+01 0.  1.
        -11    1    3    3    0    0 -0.32359928751E+02 -0.13538192216E+02 -0.18743634460E+02  0.39771490669E+02  0.00000000000E+00 0.  1.
         11    1    3    3    0    0 -0.61916155368E+02 -0.37733600591E+02 -0.31093478337E+03  0.31927711227E+03  0.00000000000E+00 0. -1.
</event>
<event>
 7    1  0.5831876E-006  0.9643781E+02  0.7561462E-02  0.1287970E+00
         -2   -1    0    0    0  501 -0.00000000000E+00  0.00000000000E+00  0.36556192067E+03  0.36556192067E+03  0.00000000000E+00 0. -1.
          2   -1    0    0  501    0  0.00000000000E+00 -0.00000000000E+00 -0.58737446648E+02  0.58737446648E+02  0.00000000000E+00 0.  1.
         23    2    1    2    0    0  0.35734917221E+02  0.10550265153E+02  0.27152843329E+03  0.28908883617E+03  0.91958537986E+02 0.  0.
          5    1    1    2  502    0  0.21446091155E+01  0.36023255014E+02 -0.29487268196E+02  0.46789375244E+02  0.41800000000E+01 0. -1.
         -5    1    1    2    0  502 -0.37879526336E+02 -0.46573520167E+02  0.64783308928E+02  0.88421155907E+02  0.41800000000E+01 0. -1.
        -11    1    3    3    0    0 -0.21562559756E+02 -0.21722902110E+02  0.12121626630E+03  0.12502084497E+03  0.00000000000E+00 0. -1.
         11    1    3    3    0    0  0.57297476977E+02  0.32273167263E+02  0.15031216698E+03  0.16406799120E+03  0.00000000000E+00 0.  1.
</event>
<event>
 7    1  0.5831876E-006  0.1047042E+03  0.7561462E-02  0.1270704E+00
         -1   -1    0    0    0  501 -0.00000000000E+00  0.00000000000E+00  0.46589044725E+02  0.46589044725E+02  0.00000000000E+00 0.  1.
          1   -1    0    0  501    0  0.00000000000E+00 -0.00000000000E+00 -0.25584867996E+03  0.25584867996E+03  0.00000000000E+00 0. -1.
         23    2    1    2    0    0  0.10002847581E+02 -0.24095405280E+02 -0.62924242440E+02  0.11593932915E+03  0.93818027275E+02 0.  0.
          5    1    1    2  502    0  0.37233873164E+02  0.47949011146E+02 -0.93833436246E+02  0.11183762845E+03  0.41800000000E+01 0. -1.
         -5    1    1    2    0  502 -0.47236720745E+02 -0.23853605866E+02 -0.52501956549E+02  0.74660767080E+02  0.41800000000E+01 0.  1.
        -11    1    3    3    0    0 -0.28596857450E+02  0.21467907659E+02 -0.34930150623E+02  0.49987665857E+02  0.00000000000E+00 0.  1.
         11    1    3    3    0    0  0.38599705031E+02 -0.45563312939E+02 -0.27994091817E+02  0.65951663293E+02  0.00000000000E+00 0. -1.
</event>
<event>
 7    1  0.5831876E-006  0.1206101E+03  0.7561462E-02  0.1242094E+00
         -1   -1    0    0    0  501 -0.00000000000E+00  0.00000000000E+00  0.23068111451E+02  0.23068111451E+02  0.00000000000E+00 0.  1.
          1   -1    0    0  501    0  0.00000000000E+00 -0.00000000000E+00 -0.64951043581E+03  0.64951043581E+03  0.00000000000E+00 0. -1.
         23    2    1    2    0    0  0.43563505184E+02 -0.34998743721E+02 -0.30909135151E+03  0.32691773734E+03  0.90636926028E+02 0.  0.
          5    1    1    2  502    0  0.18841196297E+02  0.63252500331E+02 -0.18695821688E+03  0.19830964862E+03  0.41800000000E+01 0.  1.
         -5    1    1    2    0  502 -0.62404701480E+02 -0.28253756610E+02 -0.13039275596E+03  0.14735116130E+03  0.41800000000E+01 0.  1.
        -11    1    3    3    0    0 -0.81600858856E+01  0.25552293580E+02 -0.80663503659E+02  0.85006514641E+02  0.00000000000E+00 0. -1.
         11    1    3    3    0    0  0.51723591069E+02 -0.60551037301E+02 -0.22842784786E+03  0.24191122270E+03  0.00000000000E+00 0.  1.
</event>
<event>
 7    1  0.5831876E-006  0.1854436E+03  0.7561462E-02  0.1162636E+00
         -1   -1    0    0    0  501 -0.00000000000E+00  0.00000000000E+00  0.12897930840E+03  0.12897930840E+03  0.00000000000E+00 0.  1.
          1   -1    0    0  501    0  0.00000000000E+00 -0.00000000000E+00 -0.29818874358E+03  0.29818874358E+03  0.00000000000E+00 0. -1.
         23    2    1    2    0    0 -0.13742018587E+03  0.79513391538E+02 -0.11721159799E+02  0.17093346184E+03  0.62242878080E+02 0.  0.
          5    1    1    2  502    0  0.14801032018E+03 -0.98770361394E+02 -0.14961633495E+03  0.23251915890E+03  0.41800000000E+01 0.  1.
         -5    1    1    2    0  502 -0.10590134308E+02  0.19256969857E+02 -0.78719404337E+01  0.23715431240E+02  0.41800000000E+01 0.  1.
        -11    1    3    3    0    0 -0.14012921475E+03  0.62734440042E+02 -0.10892618819E+02  0.15391704239E+03  0.00000000000E+00 0.  1.
         11    1    3    3    0    0  0.27090288788E+01  0.16778951496E+02 -0.82854098013E+00  0.17016419451E+02  0.00000000000E+00 0. -1.
</event>
<event>
 7    1  0.5831876E-006  0.1427056E+03  0.7561462E-02  0.1209734E+00
         -2   -1    0    0    0  501 -0.00000000000E+00  0.00000000000E+00  0.69441580440E+02  0.69441580440E+02  0.00000000000E+00 0.  1.
          2   -1    0    0  501    0  0.00000000000E+00 -0.00000000000E+00 -0.91301892044E+03  0.91301892044E+03  0.00000000000E+00 0. -1.
         23    2    1    2    0    0 -0.33855049196E+02  0.11931344778E+03 -0.71392914354E+02  0.16957438081E+03  0.90976146492E+02 0.  0.
          5    1    1    2  502    0  0.40715009236E+02 -0.11583609405E+03 -0.78653750491E+03  0.79607438829E+03  0.41800000000E+01 0. -1.
         -5    1    1    2    0  502 -0.68599600400E+01 -0.34773537338E+01  0.14353079268E+02  0.16811731773E+02  0.41800000000E+01 0.  1.
        -11    1    3    3    0    0  0.31492917084E+02  0.43683294905E+02 -0.24079193827E+02  0.58990182705E+02  0.00000000000E+00 0.  1.
         11    1    3    3    0    0 -0.65347966280E+02  0.75630152878E+02 -0.47313720527E+02  0.11058419811E+03  0.00000000000E+00 0. -1.
</event>
<event>
 7    1  0.5831876E-006  0.1091384E+03  0.7561462E-02  0.1262174E+00
         -2   -1    0    0    0  501 -0.00000000000E+00  0.00000000000E+00  0.30650023110E+02  0.30650023110E+02  0.00000000000E+00 0.  1.
          2   -1    0    0  501    0  0.00000000000E+00 -0.00000000000E+00 -0.41354719678E+03  0.41354719678E+03  0.00000000000E+00 0. -1.
         23    2    1    2    0    0  0.29584426078E+02  0.13174376074E+02 -0.15535404428E+03  0.18252280048E+03  0.90171454291E+02 0.  0.
          5    1    1    2  502    0 -0.65358950299E+02 -0.42617698359E+02 -0.17403163560E+03  0.19076829713E+03  0.41800000000E+01 0.  1.
         -5    1    1    2    0  502  0.35774524221E+02  0.29443322284E+02 -0.53511493786E+02  0.70906122286E+02  0.41800000000E+01 0.  1.
        -11    1    3    3    0    0 -0.84217565364E+01  0.43927759693E+02 -0.54984699442E+02  0.70879413284E+02  0.00000000000E+00 0.  1.
         11    1    3    3    0    0  0.38006182614E+02 -0.30753383619E+02 -0.10036934484E+03  0.11164338719E+03  0.00000000000E+00 0. -1.
</event>
<event>
 7    1  0.5831876E-006  0.1201528E+03  0.7561462E-02  0.1242845E+00
          2   -1    0    0  501    0  0.00000000000E+00  0.00000000000E+00  0.78503317963E+03  0.78503317963E+03  0.00000000000E+00 0. -1.
         -2   -1    0    0    0  501 -0.00000000000E+00 -0.00000000000E+00 -0.25484695567E+02  0.25484695567E+02  0.00000000000E+00 0.  1.
         23    2    1    2    0    0  0.77480020034E+02  0.36847830314E+02  0.28084939744E+03  0.30836175293E+03  0.94072687451E+02 0.  0.
          5    1    1    2  502    0  0.21654503420E+02 -0.31360795673E+02  0.24826265725E+03  0.25120556604E+03  0.41800000000E+01 0.  1.
         -5    1    1    2    0  502 -0.99134523454E+02 -0.54870346404E+01  0.23043642938E+03  0.25095055624E+03  0.41800000000E+01 0.  1.
        -11    1    3    3    0    0  0.57420512895E+02 -0.35063184472E+01  0.60630202184E+02  0.83578890799E+02  0.00000000000E+00 0.  1.
         11    1    3    3    0    0  0.20059507138E+02  0.40354148761E+02  0.22021919526E+03  0.22478286213E+03  0.00000000000E+00 0. -1.
</event>
<event>
 7    1  0.5831876E-006  0.1037720E+03  0.7561462E-02  0.1272558E+00
          3   -1    0    0  501    0  0.00000000000E+00  0.00000000000E+00  0.17590760406E+03  0.17590760406E+03  0.00000000000E+00 0. -1.
         -3   -1    0    0    0  501 -0.00000000000E+00 -0.00000000000E+00 -0.11190308210E+03  0.11190308210E+03  0.00000000000E+00 0.  1.
         23    2    1    2    0    0  0.57543344388E+00  0.79036313495E+02 -0.24415631291E+01  0.12560753158E+03  0.97592114352E+02 0.  0.
          5    1    1    2  502    0  0.16923301818E+02 -0.85563012385E+02  0.94228051788E+02  0.12846721518E+03  0.41800000000E+01 0. -1.
         -5    1    1    2    0  502 -0.17498735261E+02  0.65266988894E+01 -0.27781966695E+02  0.33735939406E+02  0.41800000000E+01 0. -1.
        -11    1    3    3    0    0  0.28413334783E+02  0.17054476104E+02 -0.36755064539E+02  0.49488458432E+02  0.00000000000E+00 0.  1.
         11    1    3    3    0    0 -0.27837901339E+02  0.61981837391E+02  0.34313501410E+02  0.76119073145E+02  0.00000000000E+00 0. -1.
</event>
<event>
 7    1  0.5831876E-006  0.7626112E+02  0.7561462E-02  0.1340010E+00
         -1   -1    0    0    0  501 -0.00000000000E+00  0.00000000000E+00  0.31946573546E+02  0.31946573546E+02  0.00000000000E+00 0.  1.
          1   -1    0    0  501    0  0.00000000000E+00 -0.00000000000E+00 -0.71586873616E+03  0.71586873616E+03  0.00000000000E+00 0. -1.
         23    2    1    2    0    0 -0.64908166047E+02  0.28857632535E+02 -0.12196686503E+03  0.16774018745E+03  0.90636754932E+02 0.  0.
          5    1    1    2  502    0  0.89014730676E+01 -0.14435611536E+01 -0.46254724282E+03  0.46265402228E+03  0.41800000000E+01 0. -1.
         -5    1    1    2    0  502  0.56006692979E+02 -0.27414071381E+02 -0.99408054763E+02  0.11742109998E+03  0.41800000000E+01 0. -1.
        -11    1    3    3    0    0 -0.67035221583E+02  0.18539470376E+02 -0.13446884901E+03  0.15139122910E+03  0.00000000000E+00 0. -1.
         11    1    3    3    0    0  0.21270555364E+01  0.10318162159E+02  0.12501983980E+02  0.16348958347E+02  0.00000000000E+00 0.  1.
</event>
<event>
 7    1  0.5831876E-006  0.1102839E+03  0.7561462E-02  0.1260045E+00
          2   -1    0    0  501    0  0.00000000000E+00  0.00000000000E+00  0.43876181101E+03  0.43876181101E+03  0.00000000000E+00 0. -1.
         -2   -1    0    0    0  501 -0.00000000000E+00 -0.00000000000E+00 -0.32151709138E+02  0.32151709138E+02  0.00000000000E+00 0.  1.
         23    2    1    2    0    0 -0.31926487777E+02 -0.30690384547E+02  0.13292874214E+03  0.16676000810E+03  0.90430357116E+02 0.  0.
          5    1    1    2  502    0  0.63725571504E+02 -0.19396185555E+02  0.97110306293E+02  0.11783481856E+03  0.41800000000E+01 0.  1.
         -5    1    1    2    0  502 -0.31799083727E+02  0.50086570102E+02  0.17657105344E+03  0.18631869349E+03  0.41800000000E+01 0.  1.
        -11    1    3    3    0    0 -0.60318125030E+02 -0.25501693690E+02  0.11624691439E+03  0.13342397720E+03  0.00000000000E+00 0.  1.
         11    1    3    3    0    0  0.28391637252E+02 -0.51886908570E+01  0.16681827756E+02  0.33336030897E+02  0.00000000000E+00 0. -1.
</event>
<event>
 7    1  0.5831876E-006  0.7721150E+02  0.7561462E-02  0.1337156E+00
         -2   -1    0    0    0  501 -0.00000000000E+00  0.00000000000E+00  0.18633775742E+02  0.18633775742E+02  0.00000000000E+00 0.  1.
          2   -1    0    0  501    0  0.00000000000E+00 -0.00000000000E+00 -0.91095261557E+03  0.91095261557E+03  0.00000000000E+00 0. -1.
         23    2    1    2    0    0 -0.15850014889E+01  0.30302506981E+02 -0.13861355115E+03  0.16497004036E+03  0.84146559619E+02 0.  0.
          5    1    1    2  502    0 -0.37418284173E+02 -0.32395689368E+02 -0.67328635584E+03  0.67511598859E+03  0.41800000000E+01 0.  1.
         -5    1    1    2    0  502  0.39003285662E+02  0.20931823871E+01 -0.80418932835E+02  0.89500362363E+02  0.41800000000E+01 0.  1.
        -11    1    3    3    0    0  0.23057289782E+02 -0.38292648006E+01 -0.37289710970E+01  0.23668694650E+02  0.00000000000E+00 0.  1.
         11    1    3    3    0    0 -0.24642291271E+02  0.34131771781E+02 -0.13488458005E+03  0.14130134571E+03  0.00000000000E+00 0. -1.
</event>
<event>
 7    1  0.5831876E-006  0.1789570E+03  0.7561462E-02  0.1168816E+00
         -1   -1    0    0    0  501 -0.00000000000E+00  0.00000000000E+00  0.16100127673E+03  0.16100127673E+03  0.00000000000E+00 0.  1.
          1   -1    0    0  501    0  0.00000000000E+00 -0.00000000000E+00 -0.25860365922E+03  0.25860365922E+03  0.00000000000E+00 0. -1.
         23    2    1    2    0    0 -0.15135153955E+03  0.23714154434E+02  0.27164320711E+02  0.18575673605E+03  0.10147913591E+03 0.  0.
          5    1    1    2  502    0 -0.13779176492E+02  0.20206752510E+02 -0.28086852797E+02  0.37476956278E+02  0.41800000000E+01 0.  1.
         -5    1    1    2    0  502  0.16513071604E+03 -0.43920906944E+02 -0.96679850405E+02  0.19637124362E+03  0.41800000000E+01 0.  1.
        -11    1    3    3    0    0 -0.11288165568E+03 -0.67853852165E+01  0.58694624224E+02  0.12741023725E+03  0.00000000000E+00 0.  1.
         11    1    3    3    0    0 -0.38469883866E+02  0.30499539650E+02 -0.31530303512E+02  0.58346498807E+02  0.00000000000E+00 0. -1.
</event>
<event>
 7    1  0.5831876E-006  0.9539046E+02  0.7561462E-02  0.1290299E+00
          2   -1    0    0  501    0  0.00000000000E+00  0.00000000000E+00  0.66131484733E+03  0.66131484733E+03  0.00000000000E+00 0. -1.
         -2   -1    0    0    0  501 -0.00000000000E+00 -0.00000000000E+00 -0.22281422731E+02  0.22281422731E+02  0.00000000000E+00 0.  1.
         23    2    1    2    0    0 -0.31658112176E+02 -0.40813648292E+02  0.23654836317E+03  0.25896859758E+03  0.91878269797E+02 0.  0.
          5    1    1    2  502    0 -0.10202241638E+02 -0.13034398328E+02  0.30556032781E+03  0.30603687295E+03  0.41800000000E+01 0.  1.
         -5    1    1    2    0  502  0.41860353814E+02  0.53848046620E+02  0.96924733619E+02  0.11859079953E+03  0.41800000000E+01 0.  1.
        -11    1    3    3    0    0 -0.17865799826E+02  0.29082693205E+02  0.79333649091E+02  0.86364447116E+02  0.00000000000E+00 0. -1.
         11    1    3    3    0    0 -0.13792312350E+02 -0.69896341497E+02  0.15721471408E+03  0.17260415047E+03  0.00000000000E+00 0.  1.
</event>
<event>
 7    1  0.5831876E-006  0.1103696E+03  0.7561462E-02  0.1259887E+00
          2   -1    0    0  501    0  0.00000000000E+00  0.00000000000E+00  0.77999994210E+03  0.77999994210E+03  0.00000000000E+00 0. -1.
         -2   -1    0    0    0  501 -0.00000000000E+00 -0.00000000000E+00 -0.21896048525E+02  0.21896048525E+02  0.00000000000E+00 0.  1.
         23    2    1    2    0    0  0.14286993991E+02 -0.72345282905E+02  0.36607792386E+03  0.38384498609E+03  0.88802977703E+02 0.  0.
          5    1    1    2  502    0 -0.49653011241E+02  0.45342813459E+02  0.88361252194E+02  0.11111514544E+03  0.41800000000E+01 0. -1.
         -5    1    1    2    0  502  0.35366017250E+02  0.27002469446E+02  0.30366471752E+03  0.30693585910E+03  0.41800000000E+01 0. -1.
        -11    1    3    3    0    0  0.41325882139E+02 -0.70316534512E+02  0.20728965012E+03  0.22275826047E+03  0.00000000000E+00 0.  1.
         11    1    3    3    0    0 -0.27038888148E+02 -0.20287483932E+01  0.15878827374E+03  0.16108672562E+03  0.00000000000E+00 0. -1.
</event>
<event>
 7    1  0.5831876E-006  0.1187445E+03  0.7561462E-02  0.1245183E+00
          1   -1    0    0  501    0  0.00000000000E+00  0.00000000000E+00  0.49138733189E+02  0.49138733189E+02  0.00000000000E+00 0. -1.
         -1   -1    0    0    0  501 -0.00000000000E+00 -0.00000000000E+00 -0.46162251645E+03  0.46162251645E+03  0.00000000000E+00 0.  1.
         23    2    1    2    0    0  0.35665484296E+02 -0.79384688856E+02 -0.19401079339E+03  0.24441737192E+03  0.12052264580E+03 0.  0.
          5    1    1    2  502    0 -0.59538440096E+01  0.10808661661E+03 -0.17791215868E+03  0.20829876033E+03  0.41800000000E+01 0. -1.
         -5    1    1    2    0  502 -0.29711640287E+02 -0.28701927755E+02 -0.40560831186E+02  0.58045117382E+02  0.41800000000E+01 0. -1.
        -11    1    3    3    0    0  0.21687406112E+02 -0.35717295637E+02  0.32366197601E+01  0.41911150055E+02  0.00000000000E+00 0. -1.
         11    1    3    3    0    0  0.13978078185E+02 -0.43667393220E+02 -0.19724741315E+03  0.20250622187E+03  0.00000000000E+00 0.  1.
</event>
<event>
 7    1  0.5831876E-006  0.1224991E+03  0.7561462E-02  0.1239030E+00
         -2   -1    0    0    0  501 -0.00000000000E+00  0.00000000000E+00  0.31205735145E+02  0.31205735145E+02  0.00000000000E+00 0.  1.
          2   -1    0    0  501    0  0.00000000000E+00 -0.00000000000E+00 -0.50553540073E+03  0.50553540073E+03  0.00000000000E+00 0. -1.
         23    2    1    2    0    0 -0.40781318411E+02  0.49288263165E+02 -0.22832317223E+03  0.25679103130E+03  0.98578466026E+02 0.  0.
          5    1    1    2  502    0 -0.22488856986E+02 -0.63738763730E+02 -0.14132853775E+03  0.15671504928E+03  0.41800000000E+01 0. -1.
         -5    1    1    2    0  502  0.63270175397E+02  0.14450500565E+02 -0.10467795561E+03  0.12323505529E+03  0.41800000000E+01 0.  1.
        -11    1    3    3    0    0  0.28509933394E+02  0.24632173918E+01 -0.29516998231E+02  0.41111274933E+02  0.00000000000E+00 0.  1.
         11    1    3    3    0    0 -0.69291251805E+02  0.46825045773E+02 -0.19880617400E+03  0.21567975637E+03  0.00000000000E+00 0. -1.
</event>
<event>
 7    1  0.5831876E-006  0.1350448E+03  0.7561462E-02  0.1220156E+00
         -2   -1    0    0    0  501 -0.00000000000E+00  0.00000000000E+00  0.36735410360E+02  0.36735410360E+02  0.00000000000E+00 0.  1.
          2   -1    0    0  501    0  0.00000000000E+00 -0.00000000000E+00 -0.75015508000E+03  0.75015508000E+03  0.00000000000E+00 0. -1.
         23    2    1    2    0    0 -0.74791047715E+02  0.82359913593E+02 -0.20081144469E+03  0.24763958437E+03  0.92861570310E+02 0.  0.
          5    1    1    2  502    0  0.79982673102E+02 -0.10369397931E+03 -0.49093119652E+03  0.50811473257E+03  0.41800000000E+01 0.  1.
         -5    1    1    2    0  502 -0.51916253869E+01  0.21334065712E+02 -0.21677028434E+02  0.31136173427E+02  0.41800000000E+01 0.  1.
        -11    1    3    3    0    0 -0.91241822384E+01  0.33891752712E+02 -0.49403749175E+01  0.35444448194E+02  0.00000000000E+00 0.  1.
         11    1    3    3    0    0 -0.65666865476E+02  0.48468160881E+02 -0.19587106978E+03  0.21219513617E+03  0.00000000000E+00 0. -1.
</event>
<event>
 7    1  0.5831876E-006  0.9805736E+02  0.7561462E-02  0.1284435E+00
         -2   -1    0    0    0  501 -0.00000000000E+00  0.00000000000E+00  0.12326748359E+02  0.12326748359E+02  0.00000000000E+00 0.  1.
          2   -1    0    0  501    0  0.00000000000E+00 -0.00000000000E+00 -0.13551229132E+04  0.13551229132E+04  0.00000000000E+00 0. -1.
         23    2    1    2    0    0 -0.18882610293E+02  0.39399432109E+02 -0.29492019367E+03  0.30814929961E+03  0.77905083230E+02 0.  0.
          5    1    1    2  502    0  0.46568692766E+02  0.15563135721E+02 -0.86299503895E+03  0.86440081212E+03  0.41800000000E+01 0. -1.
         -5    1    1    2    0  502 -0.27686082473E+02 -0.54962567830E+02 -0.18488093218E+03  0.19489954980E+03  0.41800000000E+01 0.  1.
        -11    1    3    3    0    0 -0.34812189762E+00  0.58521507505E+02 -0.24110066055E+03  0.24810162544E+03  0.00000000000E+00 0.  1.
         11    1    3    3    0    0 -0.18534488395E+02 -0.19122075397E+02 -0.53819533124E+02  0.60047674170E+02  0.00000000000E+00 0. -1.
</event>
<event>
 7    1  0.5831876E-006  0.6288980E+02  0.7561462E-02  0.1386090E+00
          2   -1    0    0  501    0  0.00000000000E+00  0.00000000000E+00  0.42217292136E+03  0.42217292136E+03  0.00000000000E+00 0. -1.
         -2   -1    0    0    0  501 -0.00000000000E+00 -0.00000000000E+00 -0.53092387782E+02  0.53092387782E+02  0.00000000000E+00 0.  1.
         23    2    1    2    0    0 -0.19847231194E+02  0.23669807170E+01  0.10050023494E+02  0.98634363639E+02  0.96063622326E+02 0.  0.
          5    1    1    2  502    0  0.52057301290E+02  0.27513025422E+02  0.27959893074E+03  0.28576207526E+03  0.41800000000E+01 0. -1.
         -5    1    1    2    0  502 -0.32210070096E+02 -0.29880006139E+02  0.79431579346E+02  0.90868870246E+02  0.41800000000E+01 0.  1.
        -11    1    3    3    0    0 -0.11313185612E+02 -0.39679256357E+01 -0.42943466931E+02  0.44585580119E+02  0.00000000000E+00 0.  1.
         11    1    3    3    0    0 -0.85340455817E+01  0.63349063526E+01  0.52993490425E+02  0.54048783519E+02  0.00000000000E+00 0. -1.
</event>
<event>
 7    1  0.5831876E-006  0.1057648E+03  0.7561462E-02  0.1268620E+00
          2   -1    0    0  501    0  0.00000000000E+00  0.00000000000E+00  0.33738346652E+03  0.33738346652E+03  0.00000000000E+00 0. -1.
         -2   -1    0    0    0  501 -0.00000000000E+00 -0.00000000000E+00 -0.45268341090E+02  0.45268341090E+02  0.00000000000E+00 0.  1.
         23    2    1    2    0    0  0.55080458089E+02  0.47396468983E+01  0.10889602674E+03  0.15401530820E+03  0.93840553087E+02 0.  0.
          5    1    1    2  502    0 -0.78922889672E+02  0.27540956016E+02  0.72272070461E+02  0.11058051972E+03  0.41800000000E+01 0.  1.
         -5    1    1    2    0  502  0.23842431583E+02 -0.32280602915E+02  0.11094702823E+03  0.11805597969E+03  0.41800000000E+01 0.  1.
        -11    1    3    3    0    0 -0.30227545383E+01  0.25580890796E+02  0.83298491823E+02  0.87190353589E+02  0.00000000000E+00 0. -1.
         11    1    3    3    0    0  0.58103212628E+02 -0.20841243897E+02  0.25597534919E+02  0.66824954611E+02  0.00000000000E+00 0.  1.
</event>
<event>
 7    1  0.5831876E-006  0.9570891E+02  0.7561462E-02  0.1289587E+00
         -2   -1    0    0    0  501 -0.00000000000E+00  0.00000000000E+00  0.18485060965E+02  0.18485060965E+02  0.00000000000E+00 0.  1.
          2   -1    0    0  501    0  0.00000000000E+00 -0.00000000000E+00 -0.12461947294E+04  0.12461947294E+04  0.00000000000E+00 0. -1.
         23    2    1    2    0    0  0.51546436756E+02 -0.73191516285E+02 -0.31697174254E+03  0.34104300473E+03  0.88460230092E+02 0.  0.
          5    1    1    2  502    0 -0.59768252947E+02  0.69665551231E+02 -0.32298726635E+03  0.33580318598E+03  0.41800000000E+01 0.  1.
         -5    1    1    2    0  502  0.82218161909E+01  0.35259650542E+01 -0.58775065959E+03  0.58783359970E+03  0.41800000000E+01 0.  1.
        -11    1    3    3    0    0  0.17551341657E+02 -0.20968353499E+02 -0.12158758945E+02  0.29925856070E+02  0.00000000000E+00 0.  1.
         11    1    3    3    0    0  0.33995095099E+02 -0.52223162786E+02 -0.30481298360E+03  0.31111714866E+03  0.00000000000E+00 0. -1.
</event>
<event>
 7    1  0.5831876E-006  0.8037017E+02  0.7561462E-02  0.1328004E+00
          1   -1    0    0  501    0  0.00000000000E+00  0.00000000000E+00  0.27692535922E+03  0.27692535922E+03  0.00000000000E+00 0. -1.
         -1   -1    0    0    0  501 -0.00000000000E+00 -0.00000000000E+00 -0.49460601989E+02  0.49460601989E+02  0.00000000000E+00 0.  1.
         23    2    1    2    0    0 -0.13657749346E+02 -0.68446663253E+01  0.39543446440E+02  0.10012743505E+03  0.90710724390E+02 0.  0.
          5    1    1    2  502    0 -0.38900213285E+02 -0.37313325637E+02  0.10832097963E+03  0.12106369353E+03  0.41800000000E+01 0. -1.
         -5    1    1    2    0  502  0.52557962630E+02  0.44157991962E+02  0.79600331158E+02  0.10519483262E+03  0.41800000000E+01 0. -1.
        -11    1    3    3    0    0 -0.12841001568E+02  0.12864496678E+02  0.65244408545E+02  0.67729014775E+02  0.00000000000E+00 0. -1.
         11    1    3    3    0    0 -0.81674777714E+00 -0.19709163003E+02 -0.25700962105E+02  0.32398420276E+02  0.00000000000E+00 0.  1.
</event>
<event>
 7    1  0.5831876E-006  0.9449425E+02  0.7561462E-02  0.1292319E+00
         -2   -1    0    0    0  501 -0.00000000000E+00  0.00000000000E+00  0.14801699348E+02  0.14801699348E+02  0.00000000000E+00 0.  1.
          2   -1    0    0  501    0  0.00000000000E+00 -0.00000000000E+00 -0.93922938642E+03  0.93922938642E+03  0.00000000000E+00 0. -1.
         23    2    1    2    0    0  0.14488924820E+02  0.17510879689E+02 -0.24095442936E+03  0.25883319650E+03  0.91755254522E+02 0.  0.
          5    1    1    2  502    0 -0.15370788517E+02 -0.59810631133E+02 -0.58053878761E+03  0.58382902382E+03  0.41800000000E+01 0. -1.
         -5    1    1    2    0  502  0.88186369695E+00  0.42299751444E+02 -0.10293447011E+03  0.11136886545E+03  0.41800000000E+01 0. -1.
        -11    1    3    3    0    0  0.46072249930E+02 -0.41832772007E+01 -0.18712928229E+03  0.19276286030E+03  0.00000000000E+00 0. -1.
         11    1    3    3    0    0 -0.31583325110E+02  0.21694156890E+02 -0.53825147070E+02  0.66070336198E+02  0.00000000000E+00 0.  1.
</event>
<event>
 7    1  0.5831876E-006  0.1180425E+03  0.7561462E-02  0.1246362E+00
         -2   -1    0    0    0  501 -0.00000000000E+00  0.00000000000E+00  0.29141661917E+02  0.29141661917E+02  0.00000000000E+00 0.  1.
          2   -1    0    0  501    0  0.00000000000E+00 -0.00000000000E+00 -0.79722787931E+03  0.79722787931E+03  0.00000000000E+00 0. -1.
         23    2    1    2    0    0 -0.46636404103E+02  0.86789848091E+02 -0.23689371633E+03  0.27182364142E+03  0.89788792602E+02 0.  0.
          5    1    1    2  502    0  0.47209476191E+02 -0.50652463855E+02 -0.99333411935E+02  0.12115694724E+03  0.41800000000E+01 0. -1.
         -5    1    1    2    0  502 -0.57307208786E+00 -0.36137384236E+02 -0.43185908912E+03  0.43338895257E+03  0.41800000000E+01 0. -1.
        -11    1    3    3    0    0 -0.71914383336E+02  0.65885510275E+02 -0.14975226342E+03  0.17871295251E+03  0.00000000000E+00 0.  1.
         11    1    3    3    0    0  0.25277979233E+02  0.20904337816E+02 -0.87141452913E+02  0.93110688910E+02  0.00000000000E+00 0. -1.
</event>
<event>
 7    1  0.5831876E-006  0.1158486E+03  0.7561462E-02  0.1250107E+00
          2   -1    0    0  501    0  0.00000000000E+00  0.00000000000E+00  0.12002677501E+04  0.12002677501E+04  0.00000000000E+00 0. -1.
         -2   -1    0    0    0  501 -0.00000000000E+00 -0.00000000000E+00 -0.19079001911E+02  0.19079001911E+02  0.00000000000E+00 0.  1.
         23    2    1    2    0    0  0.47183569800E+02 -0.53476270284E+02  0.23365964857E+03  0.26093905098E+03  0.91686183349E+02 0.  0.
          5    1    1    2  502    0  0.12681839275E+02  0.72108842804E+02  0.66179370999E+03  0.66584450229E+03  0.41800000000E+01 0. -1.
         -5    1    1    2    0  502 -0.59865409076E+02 -0.18632572520E+02  0.28573538960E+03  0.29256319870E+03  0.41800000000E+01 0. -1.
        -11    1    3    3    0    0  0.50535083099E+02 -0.94985627171E+01  0.19696145869E+03  0.20356284908E+03  0.00000000000E+00 0. -1.
         11    1    3    3    0    0 -0.33515132990E+01 -0.43977707567E+02  0.36698189877E+02  0.57376201900E+02  0.00000000000E+00 0.  1.
</event>
<event>
 7    1  0.5831876E-006  0.9046686E+02  0.7561462E-02  0.1301725E+00
          3   -1    0    0  501    0  0.00000000000E+00  0.00000000000E+00  0.23624101521E+03  0.23624101521E+03  0.00000000000E+00 0. -1.
         -3   -1    0    0    0  501 -0.00000000000E+00 -0.00000000000E+00 -0.63059679477E+02  0.63059679477E+02  0.00000000000E+00 0.  1.
         23    2    1    2    0    0  0.23544615867E+02 -0.86005826749E+01  0.25100474539E+02  0.10384624941E+03  0.97599645162E+02 0.  0.
          5    1    1    2  502    0 -0.16712185320E+01  0.40979328327E+02  0.15053718656E+03  0.15608015652E+03  0.41800000000E+01 0. -1.
         -5    1    1    2    0  502 -0.21873397335E+02 -0.32378745652E+02 -0.24563253657E+01  0.39374288759E+02  0.41800000000E+01 0. -1.
        -11    1    3    3    0    0  0.61571993664E+02 -0.72672708431E+00  0.19625833815E+02  0.64628259214E+02  0.00000000000E+00 0.  1.
         11    1    3    3    0    0 -0.38027377797E+02 -0.78738555906E+01  0.54746407236E+01  0.39217990196E+02  0.00000000000E+00 0. -1.
</event>
<event>
 7    1  0.5831876E-006  0.1171859E+03  0.7561462E-02  0.1247813E+00
         -1   -1    0    0    0  501 -0.00000000000E+00  0.00000000000E+00  0.31028260388E+02  0.31028260388E+02  0.00000000000E+00 0.  1.
          1   -1    0    0  501    0  0.00000000000E+00 -0.00000000000E+00 -0.52317932390E+03  0.52317932390E+03  0.00000000000E+00 0. -1.
         23    2    1    2    0    0 -0.59529215783E+02  0.15126917644E+02 -0.16081246508E+03  0.19475641493E+03  0.91087107016E+02 0.  0.
          5    1    1    2  502    0 -0.29316379565E+02  0.25687867779E+02 -0.12652556674E+03  0.13245945833E+03  0.41800000000E+01 0.  1.
         -5    1    1    2    0  502  0.88845595349E+02 -0.40814785423E+02 -0.20481303170E+03  0.22699171103E+03  0.41800000000E+01 0.  1.
        -11    1    3    3    0    0 -0.23756097450E+02  0.44879819798E+02 -0.37994776832E+02  0.63420449838E+02  0.00000000000E+00 0.  1.
         11    1    3    3    0    0 -0.35773118333E+02 -0.29752902153E+02 -0.12281768824E+03  0.13133596510E+03  0.00000000000E+00 0. -1.
</event>
<event>
 7    1  0.5831876E-006  0.1104275E+03  0.7561462E-02  0.1259780E+00
         -2   -1    0    0    0  501 -0.00000000000E+00  0.00000000000E+00  0.36695403817E+03  0.36695403817E+03  0.00000000000E+00 0.  1.
          2   -1    0    0  501    0  0.00000000000E+00 -0.00000000000E+00 -0.16416690811E+03  0.16416690811E+03  0.00000000000E+00 0. -1.
         23    2    1    2    0    0 -0.41805732349E+02  0.82413820335E+02  0.31012876159E+03  0.33538164656E+03  0.88097917365E+02 0.  0.
          5    1    1    2  502    0  0.15954387333E+02 -0.70999526712E+02 -0.13661087121E+03  0.15484016856E+03  0.41800000000E+01 0. -1.
         -5    1    1    2    0  502  0.25851345017E+02 -0.11414293623E+02  0.29269239682E+02  0.40899131160E+02  0.41800000000E+01 0.  1.
        -11    1    3    3    0    0 -0.56164473242E+02  0.27305542851E+02  0.10197392960E+03  0.11957726809E+03  0.00000000000E+00 0. -1.
         11    1    3    3    0    0  0.14358740893E+02  0.55108277484E+02  0.20815483199E+03  0.21580437847E+03  0.00000000000E+00 0.  1.
</event>
<event>
 7    1  0.5831876E-006  0.9383006E+02  0.7561462E-02  0.1293833E+00
         -2   -1    0    0    0  501 -0.00000000000E+00  0.00000000000E+00  0.17483133298E+03  0.17483133298E+03  0.00000000000E+00 0.  1.
          2   -1    0    0  501    0  0.00000000000E+00 -0.00000000000E+00 -0.92453748215E+02  0.92453748215E+02  0.00000000000E+00 0. -1.
         23    2    1    2    0    0  0.44232020803E+02  0.52569243216E+02  0.42129123067E+02  0.11893923920E+03  0.87473896756E+02 0.  0.
          5    1    1    2  502    0 -0.37355273505E+02 -0.35064074061E+01 -0.39327683448E+02  0.54514680930E+02  0.41800000000E+01 0. -1.
         -5    1    1    2    0  502 -0.68767472984E+01 -0.49062835810E+02  0.79576145149E+02  0.93831161071E+02  0.41800000000E+01 0. -1.
        -11    1    3    3    0    0 -0.26207282128E+01  0.53267685428E+02 -0.36155915767E+01  0.53454532359E+02  0.00000000000E+00 0.  1.
         11    1    3    3    0    0  0.46852749016E+02 -0.69844221191E+00  0.45744714644E+02  0.65484706839E+02  0.00000000000E+00 0. -1.
</event>
<event>
 7    1  0.5831876E-006  0.2141372E+03  0.7561462E-02  0.1138331E+00
         -2   -1    0    0    0  501 -0.00000000000E+00  0.00000000000E+00  0.14224461099E+03  0.14224461099E+03  0.00000000000E+00 0.  1.
          2   -1    0    0  501    0  0.00000000000E+00 -0.00000000000E+00 -0.33913448819E+03  0.33913448819E+03  0.00000000000E+00 0. -1.
         23    2    1    2    0    0 -0.12875392383E+03  0.13984768229E+03 -0.11055474211E+03  0.23799291620E+03  0.91012801403E+02 0.  0.
          5    1    1    2  502    0  0.13627460190E+03 -0.15136689935E+03 -0.58324193245E+02  0.21190065894E+03  0.41800000000E+01 0.  1.
         -5    1    1    2    0  502 -0.75206780758E+01  0.11519217061E+02 -0.28010941850E+02  0.31485524035E+02  0.41800000000E+01 0.  1.
        -11    1    3    3    0    0 -0.13350923542E+03  0.92095522118E+02 -0.92537515992E+02  0.18673374896E+03  0.00000000000E+00 0. -1.
         11    1    3    3    0    0  0.47553115930E+01  0.47752160170E+02 -0.18017226114E+02  0.51259167240E+02  0.00000000000E+00 0.  1.
</event>
<event>
 7    1  0.5831876E-006  0.1844950E+03  0.7561462E-02  0.1163522E+00
         -1   -1    0    0    0  501 -0.00000000000E+00  0.00000000000E+00  0.13608339170E+03  0.13608339170E+03  0.00000000000E+00 0.  1.
          1   -1    0    0  501    0  0.00000000000E+00 -0.00000000000E+00 -0.34552406000E+03  0.34552406000E+03  0.00000000000E+00 0. -1.
         23    2    1    2    0    0 -0.64510171571E+02 -0.14907334530E+03  0.27286039233E+01  0.18656940793E+03  0.91740253884E+02 0.  0.
          5    1    1    2  502    0  0.75272978141E+02  0.16313136085E+03 -0.21048919390E+03  0.27676892037E+03  0.41800000000E+01 0. -1.
         -5    1    1    2    0  502 -0.10762806570E+02 -0.14058015556E+02 -0.16800783219E+01  0.18269123400E+02  0.41800000000E+01 0. -1.
        -11    1    3    3    0    0  0.21050439333E+01 -0.59108985246E+02  0.36673210363E+02  0.69593302157E+02  0.00000000000E+00 0.  1.
         11    1    3    3    0    0 -0.66615215505E+02 -0.89964360052E+02 -0.33944606439E+02  0.11697610578E+03  0.00000000000E+00 0. -1.
</event>
<event>
 7    1  0.5831876E-006  0.1537464E+03  0.7561462E-02  0.1195944E+00
          2   -1    0    0  501    0  0.00000000000E+00  0.00000000000E+00  0.78230146902E+03  0.78230146902E+03  0.00000000000E+00 0.  1.
         -2   -1    0    0    0  501 -0.00000000000E+00 -0.00000000000E+00 -0.40841256188E+02  0.40841256188E+02  0.00000000000E+00 0. -1.
         23    2    1    2    0    0 -0.64946647491E+01 -0.13751963849E+03  0.42865490095E+03  0.45921703552E+03  0.90451257396E+02 0.  0.
          5    1    1    2  502    0  0.27529901751E+02  0.45955823116E+02  0.23734487727E+03  0.24335138450E+03  0.41800000000E+01 0. -1.
         -5    1    1    2    0  502 -0.21035237002E+02  0.91563815370E+02  0.75460434611E+02  0.12057430519E+03  0.41800000000E+01 0. -1.
        -11    1    3    3    0    0  0.36525828747E+02 -0.79488462604E+02  0.17759464514E+03  0.19797072975E+03  0.00000000000E+00 0. -1.
         11    1    3    3    0    0 -0.43020493496E+02 -0.58031175882E+02  0.25106025581E+03  0.26124630577E+03  0.00000000000E+00 0.  1.
</event>
<event>
 7    1  0.5831876E-006  0.7684442E+02  0.7561462E-02  0.1338253E+00
          1   -1    0    0  501    0  0.00000000000E+00  0.00000000000E+00  0.74923461930E+02  0.74923461930E+02  0.00000000000E+00 0. -1.
         -1   -1    0    0    0  501 -0.00000000000E+00 -0.00000000000E+00 -0.16682970485E+03  0.16682970485E+03  0.00000000000E+00 0.  1.
         23    2    1    2    0    0 -0.26806470941E+02  0.82380338002E+01 -0.47507584797E+02  0.10609003515E+03  0.90618281043E+02 0.  0.
          5    1    1    2  502    0 -0.23615979698E+02 -0.21968798547E+01 -0.73249784974E+02  0.77107354883E+02  0.41800000000E+01 0. -1.
         -5    1    1    2    0  502  0.50422450640E+02 -0.60411539454E+01  0.28851126855E+02  0.58555776746E+02  0.41800000000E+01 0. -1.
        -11    1    3    3    0    0  0.25540451053E+02  0.61063528977E+01  0.10178833238E+02  0.28163998860E+02  0.00000000000E+00 0. -1.
         11    1    3    3    0    0 -0.52346921995E+02  0.21316809025E+01 -0.57686418035E+02  0.77926036288E+02  0.00000000000E+00 0.  1.
</event>
<event>
 7    1  0.5831876E-006  0.9843678E+02  0.7561462E-02  0.1283618E+00
          1   -1    0    0  501    0  0.00000000000E+00  0.00000000000E+00  0.51625068857E+02  0.51625068857E+02  0.00000000000E+00 0. -1.
         -1   -1    0    0    0  501 -0.00000000000E+00 -0.00000000000E+00 -0.24899159536E+03  0.24899159536E+03  0.00000000000E+00 0.  1.
         23    2    1    2    0    0  0.23547085084E+02 -0.29874832068E+02 -0.76305683800E+02  0.12242816049E+03  0.87858558458E+02 0.  0.
          5    1    1    2  502    0 -0.52776781524E+02  0.44651481267E+02 -0.12698443294E+03  0.14464322333E+03  0.41800000000E+01 0. -1.
         -5    1    1    2    0  502  0.29229696440E+02 -0.14776649199E+02  0.59235902327E+01  0.33545280395E+02  0.41800000000E+01 0. -1.
        -11    1    3    3    0    0  0.43634191469E+02 -0.49863813295E+02 -0.44429243873E+02  0.79776564557E+02  0.00000000000E+00 0. -1.
         11    1    3    3    0    0 -0.20087106385E+02  0.19988981226E+02 -0.31876439927E+02  0.42651595935E+02  0.00000000000E+00 0.  1.
</event>
<event>
 6    1  0.1309344E-005  0.8458969E+02  0.7561462E-02  0.1316509E+00
          2   -1    0    0  501    0  0.00000000000E+00  0.00000000000E+00  0.85155086324E+02  0.85155086324E+02  0.00000000000E+00 0. -1.
         -2   -1    0    0    0  501 -0.00000000000E+00 -0.00000000000E+00 -0.13688366705E+03  0.13688366705E+03  0.00000000000E+00 0.  1.
          5    1    1    2  502    0 -0.41840941006E+01  0.41951802121E+02 -0.55404636727E+02  0.69746731218E+02  0.41800000000E+01 0. -1.
         -5    1    1    2    0  502 -0.50050299805E+02 -0.28147934455E+02  0.37123303574E+02  0.68505115086E+02  0.41800000000E+01 0. -1.
        -11    1    1    2    0    0  0.17551701650E+02 -0.25303876364E+02 -0.33281862062E+02  0.45343475078E+02  0.00000000000E+00 0.  1.
         11    1    1    2    0    0  0.36682692256E+02  0.11500008698E+02 -0.16538551383E+00  0.38443431995E+02  0.00000000000E+00 0. -1.
</event>
<event>
 7    1  0.5831876E-006  0.9350212E+02  0.7561462E-02  0.1294586E+00
         -2   -1    0    0    0  501 -0.00000000000E+00  0.00000000000E+00  0.58553004972E+02  0.58553004972E+02  0.00000000000E+00 0.  1.
          2   -1    0    0  501    0  0.00000000000E+00 -0.00000000000E+00 -0.49747917443E+03  0.49747917443E+03  0.00000000000E+00 0. -1.
         23    2    1    2    0    0  0.34831067111E+02  0.56678219899E+02 -0.18215173711E+02  0.11210635896E+03  0.88376576759E+02 0.  0.
          5    1    1    2  502    0 -0.68474418721E+02 -0.22184045798E+02 -0.12514319837E+03  0.14442704181E+03  0.41800000000E+01 0.  1.
         -5    1    1    2    0  502  0.33643351610E+02 -0.34494174101E+02 -0.29556779738E+03  0.29949877863E+03  0.41800000000E+01 0.  1.
        -11    1    3    3    0    0  0.10546929168E+02  0.15979372899E+02 -0.51002061997E+02  0.54477411843E+02  0.00000000000E+00 0. -1.
         11    1    3    3    0    0  0.24284137943E+02  0.40698847000E+02  0.32786888286E+02  0.57628947121E+02  0.00000000000E+00 0.  1.
</event>
<event>
 7    1  0.5831876E-006  0.6826189E+02  0.7561462E-02  0.1366105E+00
         -2   -1    0    0    0  501 -0.00000000000E+00  0.00000000000E+00  0.44445774763E+03  0.44445774763E+03  0.00000000000E+00 0.  1.
          2   -1    0    0  501    0  0.00000000000E+00 -0.00000000000E+00 -0.32670051111E+02  0.32670051111E+02  0.00000000000E+00 0. -1.
         23    2    1    2    0    0 -0.32274423600E+02  0.35549979516E+02  0.21481688736E+03  0.23890314265E+03  0.92859986067E+02 0.  0.
          5    1    1    2  502    0  0.30774790223E+01 -0.21722327769E+02  0.20373431199E+03  0.20495480644E+03  0.41800000000E+01 0.  1.
         -5    1    1    2    0  502  0.29196944578E+02 -0.13827651747E+02 -0.67635028252E+01  0.33269849653E+02  0.41800000000E+01 0.  1.
        -11    1    3    3    0    0 -0.19311103830E+02 -0.18071829089E+02  0.15614490804E+03  0.15836900595E+03  0.00000000000E+00 0.  1.
         11    1    3    3    0    0 -0.12963319770E+02  0.53621808605E+02  0.58671979313E+02  0.80534136700E+02  0.00000000000E+00 0. -1.
</event>
<event>
 7    1  0.5831876E-006  0.7863845E+02  0.7561462E-02  0.1332960E+00
         -1   -1    0    0    0  501 -0.00000000000E+00  0.00000000000E+00  0.13261740359E+03  0.13261740359E+03  0.00000000000E+00 0.  1.
          1   -1    0    0  501    0  0.00000000000E+00 -0.00000000000E+00 -0.14421041521E+03  0.14421041521E+03  0.00000000000E+00 0. -1.
         23    2    1    2    0    0  0.36928246840E+02  0.20189833443E+02  0.68717301425E+02  0.12233287985E+03  0.92043148513E+02 0.  0.
          5    1    1    2  502    0 -0.33893396498E+02  0.15095845513E+01  0.27828998925E+02  0.44079096552E+02  0.41800000000E+01 0. -1.
         -5    1    1    2    0  502 -0.30348503427E+01 -0.21699417994E+02 -0.10813931197E+03  0.11041584239E+03  0.41800000000E+01 0. -1.
        -11    1    3    3    0    0 -0.30730693139E+02  0.10292993586E+02  0.27410197351E+02  0.42445731665E+02  0.00000000000E+00 0. -1.
         11    1    3    3    0    0  0.67658939979E+02  0.98968398570E+01  0.41307104074E+02  0.79887148186E+02  0.00000000000E+00 0.  1.
</event>
<event>
 7    1  0.5831876E-006  0.1963188E+03  0.7561462E-02  0.1152883E+00
         -2   -1    0    0    0  501 -0.00000000000E+00  0.00000000000E+00  0.61868541108E+02  0.61868541108E+02  0.00000000000E+00 0.  1.
          2   -1    0    0  501    0  0.00000000000E+00 -0.00000000000E+00 -0.91240002121E+03  0.91240002121E+03  0.00000000000E+00 0. -1.
         23    2    1    2    0    0 -0.16283847796E+03  0.45833141521E+02 -0.15498783402E+03  0.24760053115E+03  0.93100738804E+02 0.  0.
          5    1    1    2  502    0  0.11806462960E+03 -0.81049358685E+02 -0.58442247800E+03  0.60172698169E+03  0.41800000000E+01 0.  1.
         -5    1    1    2    0  502  0.44773848358E+02  0.35216217165E+02 -0.11112116808E+03  0.12494104947E+03  0.41800000000E+01 0.  1.
        -11    1    3    3    0    0 -0.75360390720E+02 -0.25310141450E+02 -0.52840532689E+02  0.95456344182E+02  0.00000000000E+00 0. -1.
         11    1    3    3    0    0 -0.87478087239E+02  0.71143282971E+02 -0.10214730134E+03  0.15214418697E+03  0.00000000000E+00 0.  1.
</event>
<event>
 7    1  0.5831876E-006  0.1176368E+03  0.7561462E-02  0.1247047E+00
         -1   -1    0    0    0  501 -0.00000000000E+00  0.00000000000E+00  0.13557193711E+03  0.13557193711E+03  0.00000000000E+00 0.  1.
          1   -1    0    0  501    0  0.00000000000E+00 -0.00000000000E+00 -0.10975353978E+03  0.10975353978E+03  0.00000000000E+00 0. -1.
         23    2    1    2    0    0  0.49893714527E+02 -0.56286595205E+01  0.31600508753E+02  0.11040866323E+03  0.93115069700E+02 0.  0.
          5    1    1    2  502    0  0.34448348228E+02  0.31006767583E+02 -0.42155349575E+01  0.46726346599E+02  0.41800000000E+01 0. -1.
         -5    1    1    2    0  502 -0.84342062755E+02 -0.25378108062E+02 -0.15665764669E+01  0.88190467061E+02  0.41800000000E+01 0. -1.
        -11    1    3    3    0    0  0.46278557835E+02  0.36089378638E+02  0.35109827625E+02  0.68387485417E+02  0.00000000000E+00 0.  1.
         11    1    3    3    0    0  0.36151566919E+01 -0.41718038159E+02 -0.35093188720E+01  0.42021177812E+02  0.00000000000E+00 0. -1.
</event>
<event>
 7    1  0.5831876E-006  0.1237128E+03  0.7561462E-02  0.1237095E+00
         -2   -1    0    0    0  501 -0.00000000000E+00  0.00000000000E+00  0.28040975937E+02  0.28040975937E+02  0.00000000000E+00 0.  1.
          2   -1    0    0  501    0  0.00000000000E+00 -0.00000000000E+00 -0.10028153767E+04  0.10028153767E+04  0.00000000000E+00 0. -1.
         23    2    1    2    0    0 -0.65826748446E+02  0.80152772682E+02 -0.22092415889E+03  0.25969177311E+03  0.88739536057E+02 0.  0.
          5    1    1    2  502    0  0.66823223259E+02 -0.52963254617E+02 -0.21098424710E+03  0.22760113012E+03  0.41800000000E+01 0.  1.
         -5    1    1    2    0  502 -0.99647481282E+00 -0.27189518065E+02 -0.54286599473E+03  0.54356344937E+03  0.41800000000E+01 0.  1.
        -11    1    3    3    0    0 -0.53663194682E+02  0.98702438719E+02 -0.16586746061E+03  0.20033453113E+03  0.00000000000E+00 0.  1.
         11    1    3    3    0    0 -0.12163553764E+02 -0.18549666037E+02 -0.55056698279E+02  0.59357241981E+02  0.00000000000E+00 0. -1.
</event>
<event>
 7    1  0.5831876E-006  0.1275437E+03  0.7561462E-02  0.1231147E+00
          1   -1    0    0  501    0  0.00000000000E+00  0.00000000000E+00  0.16640057109E+03  0.16640057109E+03  0.00000000000E+00 0. -1.
         -1   -1    0    0    0  501 -0.00000000000E+00 -0.00000000000E+00 -0.16851629310E+03  0.16851629310E+03  0.00000000000E+00 0.  1.
         23    2    1    2    0    0  0.45017854008E+02  0.87723940010E+02 -0.61945822844E+02  0.14824935043E+03  0.91752319338E+02 0.  0.
          5    1    1    2  502    0 -0.71338845183E+02 -0.98610589752E+02  0.84931345508E+02  0.14847250619E+03  0.41800000000E+01 0. -1.
         -5    1    1    2    0  502  0.26320991175E+02  0.10886649743E+02 -0.25101244676E+02  0.38195007571E+02  0.41800000000E+01 0.  1.
        -11    1    3    3    0    0  0.18367213601E+02  0.70338714118E+02  0.62801173595E+01  0.72968000612E+02  0.00000000000E+00 0. -1.
         11    1    3    3    0    0  0.26650640407E+02  0.17385225892E+02 -0.68225940203E+02  0.75281349815E+02  0.00000000000E+00 0.  1.
</event>
<event>
 7    1  0.5831876E-006  0.1296447E+03  0.7561462E-02  0.1227984E+00
         -1   -1    0    0    0  501 -0.00000000000E+00  0.00000000000E+00  0.15428386492E+03  0.15428386492E+03  0.00000000000E+00 0.  1.
          1   -1    0    0  501    0  0.00000000000E+00 -0.00000000000E+00 -0.15803446924E+03  0.15803446924E+03  0.00000000000E+00 0. -1.
         23    2    1    2    0    0  0.92601582420E+02  0.33775310115E+02  0.51427294213E+02  0.14376969089E+03  0.91154444695E+02 0.  0.
          5    1    1    2  502    0 -0.26822143286E+02  0.41028200087E+02  0.89539445576E+01  0.50003860810E+02  0.41800000000E+01 0.  1.
         -5    1    1    2    0  502 -0.65779439135E+02 -0.74803510202E+02 -0.64131843093E+02  0.11854478247E+03  0.41800000000E+01 0.  1.
        -11    1    3    3    0    0  0.79001280199E+00  0.17054241760E+02 -0.19966679920E+02  0.26270507974E+02  0.00000000000E+00 0. -1.
         11    1    3    3    0    0  0.91811569618E+02  0.16721068356E+02  0.71393974133E+02  0.11749918291E+03  0.00000000000E+00 0.  1.
</event>
<event>
 7    1  0.5831876E-006  0.1381964E+03  0.7561462E-02  0.1215777E+00
         -1   -1    0    0    0  501 -0.00000000000E+00  0.00000000000E+00  0.30820833551E+02  0.30820833551E+02  0.00000000000E+00 0.  1.
          1   -1    0    0  501    0  0.00000000000E+00 -0.00000000000E+00 -0.64641038765E+03  0.64641038765E+03  0.00000000000E+00 0. -1.
         23    2    1    2    0    0  0.88443753897E+02 -0.31043339365E+02 -0.22635091188E+03  0.26142730045E+03  0.91233281133E+02 0.  0.
          5    1    1    2  502    0 -0.40230874258E+02  0.72130553406E+02 -0.22607544227E+03  0.24072581494E+03  0.41800000000E+01 0. -1.
         -5    1    1    2    0  502 -0.48212879639E+02 -0.41087214040E+02 -0.16316319994E+03  0.17507810581E+03  0.41800000000E+01 0.  1.
        -11    1    3    3    0    0  0.10579750885E+03 -0.36665508318E+02 -0.18525189104E+03  0.21646185695E+03  0.00000000000E+00 0.  1.
         11    1    3    3    0    0 -0.17353754955E+02  0.56221689524E+01 -0.41099020846E+02  0.44965443501E+02  0.00000000000E+00 0. -1.
</event>
<event>
 7    1  0.5831876E-006  0.1231429E+03  0.7561462E-02  0.1238001E+00
         -1   -1    0    0    0  501 -0.00000000000E+00  0.00000000000E+00  0.77926317948E+02  0.77926317948E+02  0.00000000000E+00 0.  1.
          1   -1    0    0  501    0  0.00000000000E+00 -0.00000000000E+00 -0.35085655237E+03  0.35085655237E+03  0.00000000000E+00 0. -1.
         23    2    1    2    0    0 -0.88917476688E+02 -0.81782884155E+02 -0.83275219465E+02  0.17146433442E+03  0.88715827214E+02 0.  0.
          5    1    1    2  502    0  0.30734127607E+02  0.25916834872E+02 -0.16925199535E+03  0.17401143428E+03  0.41800000000E+01 0. -1.
         -5    1    1    2    0  502  0.58183349082E+02  0.55866049283E+02 -0.20403019614E+02  0.83307101631E+02  0.41800000000E+01 0. -1.
        -11    1    3    3    0    0 -0.61693976199E+02 -0.74860378089E+02 -0.15680600330E+02  0.98265477832E+02  0.00000000000E+00 0.  1.
         11    1    3    3    0    0 -0.27223500489E+02 -0.69225060660E+01 -0.67594619135E+02  0.73198856583E+02  0.00000000000E+00 0. -1.
</event>
<event>
 7    1  0.5831876E-006  0.1577485E+03  0.7561462E-02  0.1191262E+00
         -1   -1    0    0    0  501 -0.00000000000E+00  0.00000000000E+00  0.12441294272E+03  0.12441294272E+03  0.00000000000E+00 0.  1.
          1   -1    0    0  501    0  0.00000000000E+00 -0.00000000000E+00 -0.72565685515E+03  0.72565685515E+03  0.00000000000E+00 0. -1.
         23    2    1    2    0    0 -0.10629475189E+03  0.83246019813E+02  0.52050254262E+02  0.17134393186E+03  0.91766224305E+02 0.  0.
          5    1    1    2  502    0  0.23263527712E+02  0.31115702458E+02 -0.93157937573E+02  0.10102104926E+03  0.41800000000E+01 0. -1.
         -5    1    1    2    0  502  0.83031224180E+02 -0.11436172227E+03 -0.56013622912E+03  0.57770481674E+03  0.41800000000E+01 0. -1.
        -11    1    3    3    0    0 -0.68314686785E+02  0.52002059881E+02  0.77772617088E+02  0.11584338838E+03  0.00000000000E+00 0.  1.
         11    1    3    3    0    0 -0.37980065106E+02  0.31243959931E+02 -0.25722362826E+02  0.55500543484E+02  0.00000000000E+00 0. -1.
</event>
<event>
 7    1  0.5831876E-006  0.1520711E+03  0.7561462E-02  0.1197951E+00
         -1   -1    0    0    0  501 -0.00000000000E+00  0.00000000000E+00  0.69319754314E+02  0.69319754314E+02  0.00000000000E+00 0.  1.
          1   -1    0    0  501    0  0.00000000000E+00 -0.00000000000E+00 -0.38377187403E+03  0.38377187403E+03  0.00000000000E+00 0. -1.
         23    2    1    2    0    0 -0.21567305936E+02  0.10600139010E+03 -0.64191729823E+02  0.15312555734E+03  0.87323620775E+02 0.  0.
          5    1    1    2  502    0  0.23045804285E+02  0.24990648305E+02 -0.48662413049E+02  0.59507515842E+02  0.41800000000E+01 0.  1.
         -5    1    1    2    0  502 -0.14784983494E+01 -0.13099203840E+03 -0.20159797684E+03  0.24045855516E+03  0.41800000000E+01 0.  1.
        -11    1    3    3    0    0 -0.33316300051E+02  0.11701026506E+01 -0.11982599370E+02  0.35424958390E+02  0.00000000000E+00 0.  1.
         11    1    3    3    0    0  0.11748994115E+02  0.10483128745E+03 -0.52209130454E+02  0.11770059895E+03  0.00000000000E+00 0. -1.
</event>
<event>
 7    1  0.5831876E-006  0.7783690E+02  0.7561462E-02  0.1335305E+00
          2   -1    0    0  501    0  0.00000000000E+00  0.00000000000E+00  0.23089331842E+03  0.23089331842E+03  0.00000000000E+00 0. -1.
         -2   -1    0    0    0  501 -0.00000000000E+00 -0.00000000000E+00 -0.75812587039E+02  0.75812587039E+02  0.00000000000E+00 0.  1.
         23    2    1    2    0    0  0.23559914468E+02  0.55672594135E+02  0.15194878570E+02  0.10955113758E+03  0.90089178612E+02 0.  0.
          5    1    1    2  502    0 -0.15055342910E+02 -0.76938900595E+01  0.14674111217E+03  0.14777105838E+03  0.41800000000E+01 0.  1.
         -5    1    1    2    0  502 -0.85045715575E+01 -0.47978704076E+02 -0.68552593643E+01  0.49383709491E+02  0.41800000000E+01 0.  1.
        -11    1    3    3    0    0  0.45688982130E+02  0.26781899480E+02  0.39257453375E+02  0.65923447068E+02  0.00000000000E+00 0. -1.
         11    1    3    3    0    0 -0.22129067662E+02  0.28890694655E+02 -0.24062574804E+02  0.43627690513E+02  0.00000000000E+00 0.  1.
</event>
<event>
 7    1  0.5831876E-006  0.1177305E+03  0.7561462E-02  0.1246889E+00
         -1   -1    0    0    0  501 -0.00000000000E+00  0.00000000000E+00  0.26208779326E+02  0.26208779326E+02  0.00000000000E+00 0.  1.
          1   -1    0    0  501    0  0.00000000000E+00 -0.00000000000E+00 -0.82164580647E+03  0.82164580647E+03  0.00000000000E+00 0. -1.
         23    2    1    2    0    0 -0.68327548739E+02  0.55981110893E+02 -0.24686438989E+03  0.27831039018E+03  0.93338671481E+02 0.  0.
          5    1    1    2  502    0  0.66096427840E+02 -0.69551438870E+02 -0.21284872259E+03  0.23351272241E+03  0.41800000000E+01 0.  1.
         -5    1    1    2    0  502  0.22311208986E+01  0.13570327977E+02 -0.33572391467E+03  0.33603147321E+03  0.41800000000E+01 0.  1.
        -11    1    3    3    0    0  0.21536256063E+02  0.15219330959E+02 -0.29332823646E+02  0.39444301275E+02  0.00000000000E+00 0. -1.
         11    1    3    3    0    0 -0.89863804802E+02  0.40761779934E+02 -0.21753156624E+03  0.23886608891E+03  0.00000000000E+00 0.  1.
</event>
<event>
 7    1  0.5831876E-006  0.1034665E+03  0.7561462E-02  0.1273171E+00
         -2   -1    0    0    0  501 -0.00000000000E+00  0.00000000000E+00  0.35405188491E+02  0.35405188491E+02  0.00000000000E+00 0.  1.
          2   -1    0    0  501    0  0.00000000000E+00 -0.00000000000E+00 -0.42361442322E+03  0.42361442322E+03  0.00000000000E+00 0. -1.
         23    2    1    2    0    0 -0.39241939184E+02 -0.28630572564E+02 -0.11705934714E+03  0.15648295797E+03  0.91784453505E+02 0.  0.
          5    1    1    2  502    0  0.73791422212E+02  0.50156899859E+02 -0.21699513728E+03  0.23465986150E+03  0.41800000000E+01 0.  1.
         -5    1    1    2    0  502 -0.34549483028E+02 -0.21526327295E+02 -0.54154750300E+02  0.67876792237E+02  0.41800000000E+01 0.  1.
        -11    1    3    3    0    0 -0.30798206158E+02  0.13568675190E+02 -0.20861074124E+01  0.33719286663E+02  0.00000000000E+00 0.  1.
         11    1    3    3    0    0 -0.84437330257E+01 -0.42199247754E+02 -0.11497323973E+03  0.12276367131E+03  0.00000000000E+00 0. -1.
</event>
<event>
 7    1  0.5831876E-006  0.1241475E+03  0.7561462E-02  0.1236408E+00
         -3   -1    0    0    0  501 -0.00000000000E+00  0.00000000000E+00  0.23098374924E+02  0.23098374924E+02  0.00000000000E+00 0.  1.
          3   -1    0    0  501    0  0.00000000000E+00 -0.00000000000E+00 -0.94576188498E+03  0.94576188498E+03  0.00000000000E+00 0. -1.
         23    2    1    2    0    0 -0.99412313587E+02 -0.10417771333E+02 -0.38739763078E+03  0.41015853312E+03  0.90342459028E+02 0.  0.
          5    1    1    2  502    0  0.78129817210E+02  0.34459909213E+02 -0.15462803681E+03  0.17668915034E+03  0.41800000000E+01 0. -1.
         -5    1    1    2    0  502  0.21282496377E+02 -0.24042137879E+02 -0.38063784246E+03  0.38201257644E+03  0.41800000000E+01 0. -1.
        -11    1    3    3    0    0 -0.48463834342E+02 -0.47147254288E+02 -0.25182269734E+03  0.26074178361E+03  0.00000000000E+00 0. -1.
         11    1    3    3    0    0 -0.50948479245E+02  0.36729482954E+02 -0.13557493344E+03  0.14941674951E+03  0.00000000000E+00 0.  1.
</event>
<event>
 7    1  0.5831876E-006  0.1021921E+03  0.7561462E-02  0.1275753E+00
          2   -1    0    0  501    0  0.00000000000E+00  0.00000000000E+00  0.17057120316E+03  0.17057120316E+03  0.00000000000E+00 0. -1.
         -2   -1    0    0    0  501 -0.00000000000E+00 -0.00000000000E+00 -0.92801550114E+02  0.92801550114E+02  0.00000000000E+00 0.  1.
         23    2    1    2    0    0 -0.41808469720E+02 -0.40867037504E+02  0.89753328302E+01  0.10912081104E+03  0.91699137986E+02 0.  0.
          5    1    1    2  502    0 -0.44393290642E+02  0.20321165472E+02  0.29744075975E+02  0.57322739605E+02  0.41800000000E+01 0. -1.
         -5    1    1    2    0  502  0.86201760363E+02  0.20545872032E+02  0.39050244239E+02  0.96929202629E+02  0.41800000000E+01 0. -1.
        -11    1    3    3    0    0 -0.11734754248E+02  0.42202412261E+01 -0.36374798412E+02  0.38453099392E+02  0.00000000000E+00 0.  1.
         11    1    3    3    0    0 -0.30073715472E+02 -0.45087278730E+02  0.45350131243E+02  0.70667711646E+02  0.00000000000E+00 0. -1.
</event>
<event>
 7    1  0.5831876E-006  0.1193750E+03  0.7561462E-02  0.1244132E+00
          2   -1    0    0  501    0  0.00000000000E+00  0.00000000000E+00  0.50870841135E+03  0.50870841135E+03  0.00000000000E+00 0. -1.
         -2   -1    0    0    0  501 -0.00000000000E+00 -0.00000000000E+00 -0.34711285882E+02  0.34711285882E+02  0.00000000000E+00 0.  1.
         23    2    1    2    0    0  0.74063651925E+02  0.14498140997E+02  0.19114974466E+03  0.22507026860E+03  0.91775706458E+02 0.  0.
          5    1    1    2  502    0  0.21973203867E+02  0.25590161464E+02  0.12264466136E+03  0.12726689834E+03  0.41800000000E+01 0.  1.
         -5    1    1    2    0  502 -0.96036855792E+02 -0.40088302462E+02  0.16020271944E+03  0.19108253029E+03  0.41800000000E+01 0.  1.
        -11    1    3    3    0    0  0.20923615018E+02  0.37313659885E+02  0.14471059405E+03  0.15090150069E+03  0.00000000000E+00 0. -1.
         11    1    3    3    0    0  0.53140036907E+02 -0.22815518887E+02  0.46439150610E+02  0.74168767914E+02  0.00000000000E+00 0.  1.
</event>
<event>
 7    1  0.5831876E-006  0.1186723E+03  0.7561462E-02  0.1245303E+00
          2   -1    0    0  501    0  0.00000000000E+00  0.00000000000E+00  0.94486176759E+02  0.94486176759E+02  0.00000000000E+00 0. -1.
         -2   -1    0    0    0  501 -0.00000000000E+00 -0.00000000000E+00 -0.16933670953E+03  0.16933670953E+03  0.00000000000E+00 0.  1.
         23    2    1    2    0    0 -0.17304191012E+02  0.59327474058E+02 -0.59939801724E+02  0.12350628340E+03  0.88554152952E+02 0.  0.
          5    1    1    2  502    0  0.25082464058E+02 -0.97173351091E+02 -0.72521929725E+01  0.10070678661E+03  0.41800000000E+01 0.  1.
         -5    1    1    2    0  502 -0.77782730465E+01  0.37845877032E+02 -0.76585380709E+01  0.39609816275E+02  0.41800000000E+01 0.  1.
        -11    1    3    3    0    0 -0.38785394336E+02  0.43703958636E+01  0.50703522398E+00  0.39034142216E+02  0.00000000000E+00 0. -1.
         11    1    3    3    0    0  0.21481203325E+02  0.54957078195E+02 -0.60446836948E+02  0.84472141189E+02  0.00000000000E+00 0.  1.
</event>
<event>
 7    1  0.5831876E-006  0.1207512E+03  0.7561462E-02  0.1241863E+00
          1   -1    0    0  501    0  0.00000000000E+00  0.00000000000E+00  0.49212558439E+03  0.49212558439E+03  0.00000000000E+00 0. -1.
         -1   -1    0    0    0  501 -0.00000000000E+00 -0.00000000000E+00 -0.32779044802E+02  0.32779044802E+02  0.00000000000E+00 0.  1.
         23    2    1    2    0    0  0.60488839690E+02 -0.99189098937E+01  0.14615452001E+03  0.18213237270E+03  0.89742815673E+02 0.  0.
          5    1    1    2  502    0 -0.96252286422E+02  0.44068276060E+01  0.26738981619E+03  0.28425113716E+03  0.41800000000E+01 0. -1.
         -5    1    1    2    0  502  0.35763446732E+02  0.55120822877E+01  0.45802203380E+02  0.58521119331E+02  0.41800000000E+01 0. -1.
        -11    1    3    3    0    0 -0.17647937756E+02 -0.23433256536E+02  0.37133943790E+02  0.47323324062E+02  0.00000000000E+00 0. -1.
         11    1    3    3    0    0  0.78136777446E+02  0.13514346642E+02  0.10902057622E+03  0.13480904864E+03  0.00000000000E+00 0.  1.
</event>
<event>
 7    1  0.5831876E-006  0.1295415E+03  0.7561462E-02  0.1228138E+00
         -1   -1    0    0    0  501 -0.00000000000E+00  0.00000000000E+00  0.33356306478E+02  0.33356306478E+02  0.00000000000E+00 0.  1.
          1   -1    0    0  501    0  0.00000000000E+00 -0.00000000000E+00 -0.70518319223E+03  0.70518319223E+03  0.00000000000E+00 0. -1.
         23    2    1    2    0    0  0.64519995025E+02  0.68746878526E+02 -0.17460871450E+03  0.21723217415E+03  0.88389203206E+02 0.  0.
          5    1    1    2  502    0 -0.74736092839E+02 -0.88837329686E+02 -0.28370820401E+03  0.30657033800E+03  0.41800000000E+01 0. -1.
         -5    1    1    2    0  502  0.10216097814E+02  0.20090451160E+02 -0.21350996725E+03  0.21473698656E+03  0.41800000000E+01 0. -1.
        -11    1    3    3    0    0  0.62488702776E+02  0.12522901930E+02 -0.51719375656E+02  0.82076518357E+02  0.00000000000E+00 0.  1.
         11    1    3    3    0    0  0.20312922487E+01  0.56223976596E+02 -0.12288933884E+03  0.13515565579E+03  0.00000000000E+00 0. -1.
</event>
<event>
 7    1  0.5831876E-006  0.1041846E+03  0.7561462E-02  0.1271735E+00
         -3   -1    0    0    0  501 -0.00000000000E+00  0.00000000000E+00  0.86908589286E+02  0.86908589286E+02  0.00000000000E+00 0.  1.
          3   -1    0    0  501    0  0.00000000000E+00 -0.00000000000E+00 -0.14790768113E+03  0.14790768113E+03  0.00000000000E+00 0. -1.
         23    2    1    2    0    0  0.23341857332E+02 -0.23078295463E+01  0.25315000306E+01  0.92570220493E+02  0.89513512102E+02 0.  0.
          5    1    1    2  502    0  0.34673101424E+02  0.43033080405E+02 -0.36016285712E+02  0.66096257140E+02  0.41800000000E+01 0. -1.
         -5    1    1    2    0  502 -0.58014958756E+02 -0.40725250859E+02 -0.27514306161E+02  0.76149792780E+02  0.41800000000E+01 0. -1.
        -11    1    3    3    0    0  0.16020545654E+02 -0.40239108833E+02  0.22798782557E+02  0.48945155519E+02  0.00000000000E+00 0.  1.
         11    1    3    3    0    0  0.73213116785E+01  0.37931279286E+02 -0.20267282526E+02  0.43625064974E+02  0.00000000000E+00 0. -1.
</event>
<event>
 7    1  0.5831876E-006  0.1099732E+03  0.7561462E-02  0.1260620E+00
          1   -1    0    0  501    0  0.00000000000E+00  0.00000000000E+00  0.63524366463E+03  0.63524366463E+03  0.00000000000E+00 0. -1.
         -1   -1    0    0    0  501 -0.00000000000E+00 -0.00000000000E+00 -0.45339423680E+02  0.45339423680E+02  0.00000000000E+00 0.  1.
         23    2    1    2    0    0  0.93977012060E+02  0.37556318663E+02  0.11308740352E+03  0.17734856873E+03  0.91769265708E+02 0.  0.
          5    1    1    2  502    0 -0.70674563562E+01 -0.10294098768E+02 -0.40678008778E+01  0.13781756520E+02  0.41800000000E+01 0. -1.
         -5    1    1    2    0  502 -0.86909555704E+02 -0.27262219894E+02  0.48088463831E+03  0.48945276306E+03  0.41800000000E+01 0. -1.
        -11    1    3    3    0    0  0.87259778851E+02  0.10699277448E+02  0.12005423840E+03  0.14880108770E+03  0.00000000000E+00 0. -1.
         11    1    3    3    0    0  0.67172332094E+01  0.26857041215E+02 -0.69668348813E+01  0.28547481029E+02  0.00000000000E+00 0.  1.
</event>
<event>
 7    1  0.5831876E-006  0.9426082E+02  0.7561462E-02  0.1292850E+00
         -2   -1    0    0    0  501 -0.00000000000E+00  0.00000000000E+00  0.49923077845E+02  0.49923077845E+02  0.00000000000E+00 0.  1.
          2   -1    0    0  501    0  0.00000000000E+00 -0.00000000000E+00 -0.32872659356E+03  0.32872659356E+03  0.00000000000E+00 0. -1.
         23    2    1    2    0    0  0.32065559124E+02  0.54282137021E+02 -0.86143074667E+02  0.14044914390E+03  0.91272023252E+02 0.  0.
          5    1    1    2  502    0 -0.66104664810E+02 -0.30382592610E+02 -0.18051766405E+03  0.19467159032E+03  0.41800000000E+01 0.  1.
         -5    1    1    2    0  502  0.34039105686E+02 -0.23899544411E+02 -0.12142776996E+02  0.43528937181E+02  0.41800000000E+01 0.  1.
        -11    1    3    3    0    0  0.37832159169E+02  0.28331778265E+02  0.30653863576E+01  0.47364105825E+02  0.00000000000E+00 0.  1.
         11    1    3    3    0    0 -0.57666000456E+01  0.25950358757E+02 -0.89208461025E+02  0.93085038079E+02  0.00000000000E+00 0. -1.
</event>
<event>
 7    1  0.5831876E-006  0.1072780E+03  0.7561462E-02  0.1265695E+00
         -2   -1    0    0    0  501 -0.00000000000E+00  0.00000000000E+00  0.21687402611E+03  0.21687402611E+03  0.00000000000E+00 0. -1.
          2   -1    0    0  501    0  0.00000000000E+00 -0.00000000000E+00 -0.93332690546E+02  0.93332690546E+02  0.00000000000E+00 0.  1.
         23    2    1    2    0    0 -0.12971044699E+02 -0.85312425069E+01  0.14654207311E+03  0.18207118923E+03  0.10693132683E+03 0.  0.
          5    1    1    2  502    0 -0.33396854594E+02 -0.30860390756E+02 -0.44218897142E+02  0.63564902886E+02  0.41800000000E+01 0.  1.
         -5    1    1    2    0  502  0.46367899294E+02  0.39391633263E+02  0.21218159589E+02  0.64570624531E+02  0.41800000000E+01 0.  1.
        -11    1    3    3    0    0  0.46721869123E+02 -0.11583618981E+02  0.70082245718E+02  0.85021376417E+02  0.00000000000E+00 0.  1.
         11    1    3    3    0    0 -0.59692913822E+02  0.30523764741E+01  0.76459827394E+02  0.97049812817E+02  0.00000000000E+00 0. -1.
</event>
<event>
 7    1  0.5831876E-006  0.8371962E+02  0.7561462E-02  0.1318815E+00
          2   -1    0    0  501    0  0.00000000000E+00  0.00000000000E+00  0.93627790846E+03  0.93627790846E+03  0.00000000000E+00 0. -1.
         -2   -1    0    0    0  501 -0.00000000000E+00 -0.00000000000E+00 -0.60586686391E+02  0.60586686391E+02  0.00000000000E+00 0.  1.
         23    2    1    2    0    0 -0.47971983614E+02  0.14296995272E+02 -0.41605355021E+01  0.10844075091E+03  0.96106041001E+02 0.  0.
          5    1    1    2  502    0  0.22030570975E+02  0.13946177254E+02  0.79242341180E+03  0.79286327818E+03  0.41800000000E+01 0. -1.
         -5    1    1    2    0  502  0.25941412639E+02 -0.28243172526E+02  0.87428345772E+02  0.95560565761E+02  0.41800000000E+01 0.  1.
        -11    1    3    3    0    0 -0.46493607860E+02  0.49101246318E+02 -0.19501429256E+02  0.70376798058E+02  0.00000000000E+00 0.  1.
         11    1    3    3    0    0 -0.14783757542E+01 -0.34804251045E+02  0.15340893754E+02  0.38063952854E+02  0.00000000000E+00 0. -1.
</event>
<event>
 7    1  0.5831876E-006  0.1092191E+03  0.7561462E-02  0.1262023E+00
         -2   -1    0    0    0  501 -0.00000000000E+00  0.00000000000E+00  0.14384254605E+02  0.14384254605E+02  0.00000000000E+00 0.  1.
          2   -1    0    0  501    0  0.00000000000E+00 -0.00000000000E+00 -0.14369845163E+04  0.14369845163E+04  0.00000000000E+00 0. -1.
         23    2    1    2    0    0  0.29145324572E+02  0.52081904766E+02 -0.27842240897E+03  0.29882696451E+03  0.90645144121E+02 0.  0.
          5    1    1    2  502    0  0.33461296579E+02 -0.46060422119E+02 -0.26357829970E+03  0.26968910494E+03  0.41800000000E+01 0. -1.
         -5    1    1    2    0  502 -0.62606621152E+02 -0.60214826468E+01 -0.88059955307E+03  0.88285270149E+03  0.41800000000E+01 0. -1.
        -11    1    3    3    0    0  0.44462993777E+02  0.45252965977E+00 -0.65271264225E+02  0.78977848365E+02  0.00000000000E+00 0.  1.
         11    1    3    3    0    0 -0.15317669205E+02  0.51629375106E+02 -0.21315114474E+03  0.21984911614E+03  0.00000000000E+00 0. -1.
</event>
<event>
 7    1  0.5831876E-006  0.1013889E+03  0.7561462E-02  0.1277402E+00
          2   -1    0    0  501    0  0.00000000000E+00  0.00000000000E+00  0.89006035837E+03  0.89006035837E+03  0.00000000000E+00 0. -1.
         -2   -1    0    0    0  501 -0.00000000000E+00 -0.00000000000E+00 -0.32805778205E+02  0.32805778205E+02  0.00000000000E+00 0.  1.
         23    2    1    2    0    0 -0.31745629638E+02  0.38059464016E+02  0.73552170497E+02  0.12769727360E+03  0.91871454211E+02 0.  0.
          5    1    1    2  502    0  0.77984785460E+02 -0.11071323602E+02  0.39747600339E+03  0.40522690760E+03  0.41800000000E+01 0. -1.
         -5    1    1    2    0  502 -0.46239155823E+02 -0.26988140414E+02  0.38622640628E+03  0.38994195537E+03  0.41800000000E+01 0. -1.
        -11    1    3    3    0    0  0.64114325292E+01 -0.80866227864E+01 -0.16555443407E+02  0.19508527406E+02  0.00000000000E+00 0.  1.
         11    1    3    3    0    0 -0.38157062167E+02  0.46146086803E+02  0.90107613904E+02  0.10818874620E+03  0.00000000000E+00 0. -1.
</event>
<event>
 7    1  0.5831876E-006  0.1384077E+03  0.7561462E-02  0.1215488E+00
         -1   -1    0    0    0  501 -0.00000000000E+00  0.00000000000E+00  0.35879016757E+02  0.35879016757E+02  0.00000000000E+00 0.  1.
          1   -1    0    0  501    0  0.00000000000E+00 -0.00000000000E+00 -0.66326043195E+03  0.66326043195E+03  0.00000000000E+00 0. -1.
         23    2    1    2    0    0  0.43046112349E+02  0.98370775755E+02 -0.31332184740E+03  0.34444235361E+03  0.94552512362E+02 0.  0.
          5    1    1    2  502    0  0.40380138167E+02 -0.11854622256E+02 -0.10982059034E+03  0.11768229302E+03  0.41800000000E+01 0. -1.
         -5    1    1    2    0  502 -0.83426250516E+02 -0.86516153499E+02 -0.20423897745E+03  0.23701480207E+03  0.41800000000E+01 0. -1.
        -11    1    3    3    0    0  0.22826960017E+02  0.89178226781E+02 -0.30819326649E+03  0.32164719141E+03  0.00000000000E+00 0. -1.
         11    1    3    3    0    0  0.20219152331E+02  0.91925489745E+01 -0.51285809134E+01  0.22795162202E+02  0.00000000000E+00 0.  1.
</event>
<event>
 7    1  0.5831876E-006  0.1088850E+03  0.7561462E-02  0.1262649E+00
         -2   -1    0    0    0  501 -0.00000000000E+00  0.00000000000E+00  0.15751674838E+02  0.15751674838E+02  0.00000000000E+00 0.  1.
          2   -1    0    0  501    0  0.00000000000E+00 -0.00000000000E+00 -0.98490047069E+03  0.98490047069E+03  0.00000000000E+00 0. -1.
         23    2    1    2    0    0  0.25168721121E+02 -0.65027031954E+02 -0.42753196522E+03  0.44304919937E+03  0.92989420701E+02 0.  0.
          5    1    1    2  502    0  0.25973439933E+02  0.29352075057E+02 -0.41012971254E+03  0.41201943813E+03  0.41800000000E+01 0. -1.
         -5    1    1    2    0  502 -0.51142161054E+02  0.35674956897E+02 -0.13148711809E+03  0.14558350803E+03  0.41800000000E+01 0.  1.
        -11    1    3    3    0    0  0.33125509162E+02 -0.86677715844E+02 -0.32746617995E+03  0.34035925842E+03  0.00000000000E+00 0. -1.
         11    1    3    3    0    0 -0.79567880412E+01  0.21650683890E+02 -0.10006578528E+03  0.10268994095E+03  0.00000000000E+00 0.  1.
</event>
<event>
 7    1  0.5831876E-006  0.1217785E+03  0.7561462E-02  0.1240192E+00
         -1   -1    0    0    0  501 -0.00000000000E+00  0.00000000000E+00  0.80831115875E+02  0.80831115875E+02  0.00000000000E+00 0.  1.
          1   -1    0    0  501    0  0.00000000000E+00 -0.00000000000E+00 -0.41116619424E+03  0.41116619424E+03  0.00000000000E+00 0. -1.
         23    2    1    2    0    0  0.69367727922E+02 -0.17384380190E+02  0.18342696069E+02  0.11471068141E+03  0.87795145536E+02 0.  0.
          5    1    1    2  502    0 -0.24242090662E+02  0.65184829331E+02 -0.11459279870E+03  0.13411086029E+03  0.41800000000E+01 0. -1.
         -5    1    1    2    0  502 -0.45125637260E+02 -0.47800449142E+02 -0.23408497574E+03  0.24317576841E+03  0.41800000000E+01 0. -1.
        -11    1    3    3    0    0  0.45732447827E+02 -0.49985008459E+02  0.27991172163E+02  0.73303912406E+02  0.00000000000E+00 0.  1.
         11    1    3    3    0    0  0.23635280095E+02  0.32600628270E+02 -0.96484760936E+01  0.41406769008E+02  0.00000000000E+00 0. -1.
</event>
<event>
 7    1  0.5831876E-006  0.1267471E+03  0.7561462E-02  0.1232364E+00
          2   -1    0    0  501    0  0.00000000000E+00  0.00000000000E+00  0.25833270215E+03  0.25833270215E+03  0.00000000000E+00 0. -1.
         -2   -1    0    0    0  501 -0.00000000000E+00 -0.00000000000E+00 -0.64648745532E+02  0.64648745532E+02  0.00000000000E+00 0.  1.
         23    2    1    2    0    0 -0.38520872898E+02  0.61610432815E+02  0.65123565881E+02  0.12944789504E+03  0.85064537956E+02 0.  0.
          5    1    1    2  502    0  0.42899676970E+02 -0.97370895448E+02  0.10876914461E+03  0.15221587560E+03  0.41800000000E+01 0.  1.
         -5    1    1    2    0  502 -0.43788040718E+01  0.35760462632E+02  0.19791246125E+02  0.41317677040E+02  0.41800000000E+01 0.  1.
        -11    1    3    3    0    0 -0.41967926555E+02 -0.65647688755E+01  0.16192546367E+02  0.45459890096E+02  0.00000000000E+00 0.  1.
         11    1    3    3    0    0  0.34470536560E+01  0.68175201691E+02  0.48931019515E+02  0.83988004949E+02  0.00000000000E+00 0. -1.
</event>
<event>
 7    1  0.5831876E-006  0.9021060E+02  0.7561462E-02  0.1302342E+00
         -1   -1    0    0    0  501 -0.00000000000E+00  0.00000000000E+00  0.86351618364E+01  0.86351618364E+01  0.00000000000E+00 0.  1.
          1   -1    0    0  501    0  0.00000000000E+00 -0.00000000000E+00 -0.22214211706E+04  0.22214211706E+04  0.00000000000E+00 0. -1.
         23    2    1    2    0    0  0.13014145884E+02  0.43301550879E+02 -0.40795580585E+03  0.42033108898E+03  0.90586381628E+02 0.  0.
          5    1    1    2  502    0 -0.37531416409E+02 -0.12411052687E+02 -0.16287154839E+04  0.16292004915E+04  0.41800000000E+01 0.  1.
         -5    1    1    2    0  502  0.24517270525E+02 -0.30890498192E+02 -0.17611471898E+03  0.18052475197E+03  0.41800000000E+01 0.  1.
        -11    1    3    3    0    0  0.46240938274E+02 -0.23917375705E+00 -0.17267763819E+03  0.17876198787E+03  0.00000000000E+00 0.  1.
         11    1    3    3    0    0 -0.33226792390E+02  0.43540724636E+02 -0.23527816766E+03  0.24156910111E+03  0.00000000000E+00 0. -1.
</event>
<event>
 7    1  0.5831876E-006  0.1170716E+03  0.7561462E-02  0.1248008E+00
         -1   -1    0    0    0  501 -0.00000000000E+00  0.00000000000E+00  0.51156946114E+02  0.51156946114E+02  0.00000000000E+00 0.  1.
          1   -1    0    0  501    0  0.00000000000E+00 -0.00000000000E+00 -0.43259955005E+03  0.43259955005E+03  0.00000000000E+00 0. -1.
         23    2    1    2    0    0 -0.21865674862E+02 -0.56967759343E+02 -0.43819745850E+02  0.11857236519E+03  0.91737682106E+02 0.  0.
          5    1    1    2  502    0 -0.47249250550E+01  0.91845168095E+02 -0.26149427084E+03  0.27722659667E+03  0.41800000000E+01 0. -1.
         -5    1    1    2    0  502  0.26590599917E+02 -0.34877408752E+02 -0.76128587240E+02  0.87957534301E+02  0.41800000000E+01 0. -1.
        -11    1    3    3    0    0 -0.46108198312E+02 -0.13147224735E+02 -0.48594465751E+02  0.68265932729E+02  0.00000000000E+00 0. -1.
         11    1    3    3    0    0  0.24242523450E+02 -0.43820534607E+02  0.47747199010E+01  0.50306432458E+02  0.00000000000E+00 0.  1.
</event>
<event>
 7    1  0.6096324E-006  0.2591956E+03  0.7561462E-02  0.1107628E+00
          1   -1    0    0  501    0  0.00000000000E+00  0.00000000000E+00  0.39597746705E+02  0.39597746705E+02  0.00000000000E+00 0. -1.
         -1   -1    0    0    0  501 -0.00000000000E+00 -0.00000000000E+00 -0.18714491686E+04  0.18714491686E+04  0.00000000000E+00 0.  1.
         23    2    1    2    0    0 -0.14003265047E+03  0.20301795395E+03 -0.10143651627E+04  0.10480535365E+04  0.93027410549E+02 0.  0.
          5    1    1    2  502    0  0.50458738870E+02 -0.14088742298E+03 -0.61532580169E+03  0.63327613638E+03  0.41800000000E+01 0.  1.
         -5    1    1    2    0  502  0.89573911600E+02 -0.62130530977E+02 -0.20216045750E+03  0.22971724249E+03  0.41800000000E+01 0.  1.
        -11    1    3    3    0    0 -0.80143809032E+02  0.48031878798E+02 -0.28196618160E+03  0.29704379992E+03  0.00000000000E+00 0. -1.
         11    1    3    3    0    0 -0.59888841437E+02  0.15498607516E+03 -0.73239898113E+03  0.75100973654E+03  0.00000000000E+00 0.  1.
</event>
<event>
 7    1  0.5831876E-006  0.1359848E+03  0.7561462E-02  0.1218836E+00
         -2   -1    0    0    0  501 -0.00000000000E+00  0.00000000000E+00  0.95049105347E+02  0.95049105347E+02  0.00000000000E+00 0. -1.
          2   -1    0    0  501    0  0.00000000000E+00 -0.00000000000E+00 -0.57614622552E+03  0.57614622552E+03  0.00000000000E+00 0.  1.
         23    2    1    2    0    0  0.84617379821E+02  0.47237282083E+02  0.30677291209E+02  0.13551652884E+03  0.89622383403E+02 0.  0.
          5    1    1    2  502    0 -0.11388624629E+03 -0.19268412337E+02 -0.33848703978E+03  0.35767624650E+03  0.41800000000E+01 0.  1.
         -5    1    1    2    0  502  0.29268866465E+02 -0.27968869745E+02 -0.17328737159E+03  0.17800255552E+03  0.41800000000E+01 0.  1.
        -11    1    3    3    0    0  0.82767549741E+01  0.37885462865E+02 -0.19778981678E+02  0.43531839906E+02  0.00000000000E+00 0.  1.
         11    1    3    3    0    0  0.76340624847E+02  0.93518192178E+01  0.50456272887E+02  0.91984688935E+02  0.00000000000E+00 0. -1.
</event>
<event>
 7    1  0.5831876E-006  0.1112056E+03  0.7561462E-02  0.1258353E+00
          1   -1    0    0  501    0  0.00000000000E+00  0.00000000000E+00  0.55790273398E+03  0.55790273398E+03  0.00000000000E+00 0. -1.
         -1   -1    0    0    0  501 -0.00000000000E+00 -0.00000000000E+00 -0.30969579156E+02  0.30969579156E+02  0.00000000000E+00 0.  1.
         23    2    1    2    0    0  0.64525993829E+02 -0.36296717493E+02  0.25587282991E+03  0.28129515217E+03  0.90415717493E+02 0.  0.
          5    1    1    2  502    0 -0.35923064015E+02 -0.44883083570E+02  0.87260307687E+02  0.10457911559E+03  0.41800000000E+01 0.  1.
         -5    1    1    2    0  502 -0.28602929814E+02  0.81179801064E+02  0.18380001723E+03  0.20299804538E+03  0.41800000000E+01 0.  1.
        -11    1    3    3    0    0  0.36687204963E+02 -0.35037854050E+02  0.24684200724E+03  0.25200114833E+03  0.00000000000E+00 0. -1.
         11    1    3    3    0    0  0.27838788867E+02 -0.12588634435E+01  0.90308226691E+01  0.29294003837E+02  0.00000000000E+00 0.  1.
</event>
<event>
 7    1  0.5831876E-006  0.1043822E+03  0.7561462E-02  0.1271342E+00
         -1   -1    0    0    0  501 -0.00000000000E+00  0.00000000000E+00  0.41507113779E+03  0.41507113779E+03  0.00000000000E+00 0.  1.
          1   -1    0    0  501    0  0.00000000000E+00 -0.00000000000E+00 -0.41003617145E+02  0.41003617145E+02  0.00000000000E+00 0. -1.
         23    2    1    2    0    0  0.21301918220E+01 -0.21823876523E+02  0.28740955971E+03  0.30233395993E+03  0.91218139688E+02 0.  0.
          5    1    1    2  502    0  0.22015563345E+02  0.69666496287E+02  0.47706268932E+02  0.87358263660E+02  0.41800000000E+01 0.  1.
         -5    1    1    2    0  502 -0.24145755167E+02 -0.47842619764E+02  0.38951692003E+02  0.66382531349E+02  0.41800000000E+01 0.  1.
        -11    1    3    3    0    0 -0.37439988757E+02 -0.19443533266E+02  0.73197613453E+02  0.84484876512E+02  0.00000000000E+00 0.  1.
         11    1    3    3    0    0  0.39570180579E+02 -0.23803432568E+01  0.21421194626E+03  0.21784908342E+03  0.00000000000E+00 0. -1.
</event>
<event>
 7    1  0.5831876E-006  0.1094049E+03  0.7561462E-02  0.1261676E+00
          1   -1    0    0  501    0  0.00000000000E+00  0.00000000000E+00  0.12541765213E+03  0.12541765213E+03  0.00000000000E+00 0. -1.
         -1   -1    0    0    0  501 -0.00000000000E+00 -0.00000000000E+00 -0.14861795157E+03  0.14861795157E+03  0.00000000000E+00 0.  1.
         23    2    1    2    0    0  0.10506647122E+02 -0.67059166104E+02 -0.59986901264E+02  0.12699085536E+03  0.88999593422E+02 0.  0.
          5    1    1    2  502    0 -0.39390165358E+02  0.43610881151E+01 -0.30784552995E+02  0.50356383107E+02  0.41800000000E+01 0. -1.
         -5    1    1    2    0  502  0.28883518236E+02  0.62698077988E+02  0.67571154818E+02  0.96688365239E+02  0.41800000000E+01 0. -1.
        -11    1    3    3    0    0 -0.21894317607E+02 -0.73564912802E+02 -0.52827127549E+02  0.93176514981E+02  0.00000000000E+00 0.  1.
         11    1    3    3    0    0  0.32400964729E+02  0.65057466986E+01 -0.71597737154E+01  0.33814340377E+02  0.00000000000E+00 0. -1.
</event>
<event>
 6    1  0.5831876E-006  0.1353522E+03  0.7561462E-02  0.1219723E+00
          2   -1    0    0  501    0  0.00000000000E+00  0.00000000000E+00  0.42321745539E+03  0.42321745539E+03  0.00000000000E+00 0. -1.
         -2   -1    0    0    0  501 -0.00000000000E+00 -0.00000000000E+00 -0.70001281272E+02  0.70001281272E+02  0.00000000000E+00 0.  1.
          5    1    1    2  502    0 -0.20831183765E+02 -0.10579138912E+03  0.11493633708E+03  0.15765021475E+03  0.41800000000E+01 0. -1.
         -5    1    1    2    0  502 -0.13762425680E+00  0.32121760131E+02  0.79977393073E+02  0.86288366638E+02  0.41800000000E+01 0. -1.
        -11    1    1    2    0    0 -0.36585292473E+02 -0.42296696696E+00  0.15078387731E+03  0.15515940250E+03  0.00000000000E+00 0. -1.
         11    1    1    2    0    0  0.57554100496E+02  0.74092595955E+02  0.75185666556E+01  0.94120752779E+02  0.00000000000E+00 0.  1.
</event>
<event>
 7    1  0.5831876E-006  0.2010069E+03  0.7561462E-02  0.1148892E+00
          2   -1    0    0  501    0  0.00000000000E+00  0.00000000000E+00  0.14174752668E+04  0.14174752668E+04  0.00000000000E+00 0. -1.
         -2   -1    0    0    0  501 -0.00000000000E+00 -0.00000000000E+00 -0.31864798682E+02  0.31864798682E+02  0.00000000000E+00 0.  1.
         23    2    1    2    0    0 -0.65595691575E+02 -0.16717167958E+03  0.57072872094E+03  0.60558151046E+03  0.93533564556E+02 0.  0.
          5    1    1    2  502    0 -0.78469319659E+01  0.10806106428E+03  0.58998335502E+03  0.59986381751E+03  0.41800000000E+01 0. -1.
         -5    1    1    2    0  502  0.73442623541E+02  0.59110615302E+02  0.22489839220E+03  0.24389473756E+03  0.41800000000E+01 0. -1.
        -11    1    3    3    0    0 -0.95396639787E+01 -0.13347401695E+03  0.32929690612E+03  0.35544728269E+03  0.00000000000E+00 0.  1.
         11    1    3    3    0    0 -0.56056027597E+02 -0.33697662633E+02  0.24143181482E+03  0.25013422778E+03  0.00000000000E+00 0. -1.
</event>
<event>
 7    1  0.5831876E-006  0.1343606E+03  0.7561462E-02  0.1221125E+00
          1   -1    0    0  501    0  0.00000000000E+00  0.00000000000E+00  0.58545416645E+02  0.58545416645E+02  0.00000000000E+00 0. -1.
         -1   -1    0    0    0  501 -0.00000000000E+00 -0.00000000000E+00 -0.36967051750E+03  0.36967051750E+03  0.00000000000E+00 0.  1.
         23    2    1    2    0    0  0.36744355716E+02  0.74091977588E+02 -0.21999005959E+03  0.25273460566E+03  0.92948296171E+02 0.  0.
          5    1    1    2  502    0 -0.10187777232E+02 -0.10606745923E+03 -0.76409795575E+02  0.13118698858E+03  0.41800000000E+01 0. -1.
         -5    1    1    2    0  502 -0.26556578484E+02  0.31975481642E+02 -0.14725245691E+02  0.44294339905E+02  0.41800000000E+01 0. -1.
        -11    1    3    3    0    0  0.53938583539E+01  0.86444336307E+02 -0.12609257500E+03  0.15297403197E+03  0.00000000000E+00 0.  1.
         11    1    3    3    0    0  0.31350497362E+02 -0.12352358719E+02 -0.93897484594E+02  0.99760573694E+02  0.00000000000E+00 0. -1.
</event>
<event>
 7    1  0.5831876E-006  0.1127854E+03  0.7561462E-02  0.1255497E+00
         -2   -1    0    0    0  501 -0.00000000000E+00  0.00000000000E+00  0.71922750868E+02  0.71922750868E+02  0.00000000000E+00 0.  1.
          2   -1    0    0  501    0  0.00000000000E+00 -0.00000000000E+00 -0.30896576034E+03  0.30896576034E+03  0.00000000000E+00 0. -1.
         23    2    1    2    0    0 -0.35776842020E+01  0.80352101556E+02 -0.32521810125E+02  0.12801687735E+03  0.94134970680E+02 0.  0.
          5    1    1    2  502    0  0.90083599120E+01  0.20879009933E+02 -0.11581306921E+03  0.11809836156E+03  0.41800000000E+01 0.  1.
         -5    1    1    2    0  502 -0.54306757100E+01 -0.10123111149E+03 -0.88708130140E+02  0.13477327229E+03  0.41800000000E+01 0.  1.
        -11    1    3    3    0    0  0.17333473030E+02 -0.63423210360E+00  0.22118825523E+02  0.28108610427E+02  0.00000000000E+00 0.  1.
         11    1    3    3    0    0 -0.20911157232E+02  0.80986333659E+02 -0.54640635647E+02  0.99908266927E+02  0.00000000000E+00 0. -1.
</event>
<event>
 7    1  0.5831876E-006  0.2167597E+03  0.7561462E-02  0.1136322E+00
          1   -1    0    0  501    0  0.00000000000E+00  0.00000000000E+00  0.48927778687E+03  0.48927778687E+03  0.00000000000E+00 0. -1.
         -1   -1    0    0    0  501 -0.00000000000E+00 -0.00000000000E+00 -0.10344123592E+03  0.10344123592E+03  0.00000000000E+00 0.  1.
         23    2    1    2    0    0  0.62042878055E+02 -0.18567792361E+03  0.21740838047E+03  0.30583865798E+03  0.89136248433E+02 0.  0.
          5    1    1    2  502    0  0.32422807310E+02  0.70317523671E+02  0.88451408961E+02  0.11763042428E+03  0.41800000000E+01 0.  1.
         -5    1    1    2    0  502 -0.94465685365E+02  0.11536039994E+03  0.79976761522E+02  0.16924994053E+03  0.41800000000E+01 0.  1.
        -11    1    3    3    0    0  0.23946124150E+02 -0.15779584197E+03  0.12745422478E+03  0.20424868181E+03  0.00000000000E+00 0.  1.
         11    1    3    3    0    0  0.38096753905E+02 -0.27882081646E+02  0.89954155686E+02  0.10158997618E+03  0.00000000000E+00 0. -1.
</event>
<event>
 7    1  0.5831876E-006  0.1522135E+03  0.7561462E-02  0.1197779E+00
          3   -1    0    0  501    0  0.00000000000E+00  0.00000000000E+00  0.10207694002E+03  0.10207694002E+03  0.00000000000E+00 0. -1.
         -3   -1    0    0    0  501 -0.00000000000E+00 -0.00000000000E+00 -0.26040286191E+03  0.26040286191E+03  0.00000000000E+00 0.  1.
         23    2    1    2    0    0 -0.10312537310E+03  0.33104410282E+01 -0.13694012765E+03  0.19892395715E+03  0.10085802184E+03 0.  0.
          5    1    1    2  502    0  0.11717518647E+03 -0.38906018518E+02 -0.18973684285E+02  0.12498470185E+03  0.41800000000E+01 0. -1.
         -5    1    1    2    0  502 -0.14049813366E+02  0.35595577490E+02 -0.24121099461E+01  0.38571142929E+02  0.41800000000E+01 0. -1.
        -11    1    3    3    0    0 -0.62401807518E+01  0.38736900611E+02 -0.52916994531E+02  0.65876366286E+02  0.00000000000E+00 0.  1.
         11    1    3    3    0    0 -0.96885192350E+02 -0.35426459583E+02 -0.84023133121E+02  0.13304759086E+03  0.00000000000E+00 0. -1.
</event>
<event>
 7    1  0.5831876E-006  0.1284885E+03  0.7561462E-02  0.1229716E+00
         -2   -1    0    0    0  501 -0.00000000000E+00  0.00000000000E+00  0.32176800720E+02  0.32176800720E+02  0.00000000000E+00 0.  1.
          2   -1    0    0  501    0  0.00000000000E+00 -0.00000000000E+00 -0.73829447174E+03  0.73829447174E+03  0.00000000000E+00 0. -1.
         23    2    1    2    0    0  0.29557294370E+02 -0.82845607258E+02 -0.17077159645E+03  0.21371209742E+03  0.93663729023E+02 0.  0.
          5    1    1    2  502    0  0.27600765339E+02  0.89911954341E+02 -0.36232066053E+03  0.37435236773E+03  0.41800000000E+01 0. -1.
         -5    1    1    2    0  502 -0.57158059709E+02 -0.70663470833E+01 -0.17302541404E+03  0.18240680731E+03  0.41800000000E+01 0. -1.
        -11    1    3    3    0    0  0.46396886950E+02 -0.50223291338E+02 -0.43001669519E+02  0.80772481037E+02  0.00000000000E+00 0.  1.
         11    1    3    3    0    0 -0.16839592580E+02 -0.32622315920E+02 -0.12776992693E+03  0.13293961638E+03  0.00000000000E+00 0. -1.
</event>
<event>
 7    1  0.5831876E-006  0.1289133E+03  0.7561462E-02  0.1229077E+00
         -2   -1    0    0    0  501 -0.00000000000E+00  0.00000000000E+00  0.26279290778E+02  0.26279290778E+02  0.00000000000E+00 0.  1.
          2   -1    0    0  501    0  0.00000000000E+00 -0.00000000000E+00 -0.69890767157E+03  0.69890767157E+03  0.00000000000E+00 0. -1.
         23    2    1    2    0    0  0.53970279282E+02  0.51375071962E+02 -0.22083956156E+03  0.25051256647E+03  0.91838145356E+02 0.  0.
          5    1    1    2  502    0 -0.92584644727E+02 -0.36049926883E+02 -0.25943065179E+03  0.27783673111E+03  0.41800000000E+01 0.  1.
         -5    1    1    2    0  502  0.38614365445E+02 -0.15325145079E+02 -0.19235816744E+03  0.19683766477E+03  0.41800000000E+01 0.  1.
        -11    1    3    3    0    0  0.78001723890E+02  0.49805311388E+02 -0.15653333006E+03  0.18184477279E+03  0.00000000000E+00 0.  1.
         11    1    3    3    0    0 -0.24031444607E+02  0.15697605732E+01 -0.64306231506E+02  0.68667793679E+02  0.00000000000E+00 0. -1.
</event>
<event>
 7    1  0.5831876E-006  0.1302140E+03  0.7561462E-02  0.1227138E+00
          1   -1    0    0  501    0  0.00000000000E+00  0.00000000000E+00  0.20091003354E+03  0.20091003354E+03  0.00000000000E+00 0. -1.
         -1   -1    0    0    0  501 -0.00000000000E+00 -0.00000000000E+00 -0.11674728315E+03  0.11674728315E+03  0.00000000000E+00 0.  1.
         23    2    1    2    0    0  0.47262123972E+02 -0.55296619250E+02 -0.43214440782E+02  0.12488062720E+03  0.91849108292E+02 0.  0.
          5    1    1    2  502    0 -0.86003761436E+02  0.14781877713E+02  0.88993480105E+02  0.12470951364E+03  0.41800000000E+01 0. -1.
         -5    1    1    2    0  502  0.38741637464E+02  0.40514741537E+02  0.38383711067E+02  0.68067175867E+02  0.41800000000E+01 0. -1.
        -11    1    3    3    0    0 -0.26279060842E+02 -0.26598303177E+01 -0.13660101221E+02  0.29736544880E+02  0.00000000000E+00 0.  1.
         11    1    3    3    0    0  0.73541184814E+02 -0.52636788932E+02 -0.29554339561E+02  0.95144082316E+02  0.00000000000E+00 0. -1.
</event>
<event>
 7    1  0.5831876E-006  0.9109981E+02  0.7561462E-02  0.1300210E+00
         -2   -1    0    0    0  501 -0.00000000000E+00  0.00000000000E+00  0.42298883154E+02  0.42298883154E+02  0.00000000000E+00 0.  1.
          2   -1    0    0  501    0  0.00000000000E+00 -0.00000000000E+00 -0.43478388741E+03  0.43478388741E+03  0.00000000000E+00 0. -1.
         23    2    1    2    0    0  0.11789579193E+02 -0.77387506936E+02 -0.12519786566E+03  0.17352363030E+03  0.91148912783E+02 0.  0.
          5    1    1    2  502    0 -0.20726076312E+02  0.35516724595E+02 -0.25568524645E+03  0.25900468262E+03  0.41800000000E+01 0. -1.
         -5    1    1    2    0  502  0.89364971194E+01  0.41870782342E+02 -0.11601892154E+02  0.44554457647E+02  0.41800000000E+01 0.  1.
        -11    1    3    3    0    0  0.13107098685E+02  0.60250019180E+01  0.78966815664E+01  0.16445493724E+02  0.00000000000E+00 0.  1.
         11    1    3    3    0    0 -0.13175194928E+01 -0.83412508854E+02 -0.13309454722E+03  0.15707813658E+03  0.00000000000E+00 0. -1.
</event>
<event>
 7    1  0.5831876E-006  0.1007618E+03  0.7561462E-02  0.1278702E+00
         -2   -1    0    0    0  501 -0.00000000000E+00  0.00000000000E+00  0.10495492710E+02  0.10495492710E+02  0.00000000000E+00 0.  1.
          2   -1    0    0  501    0  0.00000000000E+00 -0.00000000000E+00 -0.10443850259E+04  0.10443850259E+04  0.00000000000E+00 0. -1.
         23    2    1    2    0    0 -0.17685445675E+01 -0.60020182088E+01 -0.32254949815E+03  0.33436425598E+03  0.87875622028E+02 0.  0.
          5    1    1    2  502    0  0.54037325556E+02 -0.16200001068E+02 -0.40465231337E+03  0.40858712621E+03  0.41800000000E+01 0. -1.
         -5    1    1    2    0  502 -0.52268780988E+02  0.22202019277E+02 -0.30668772170E+03  0.31192913645E+03  0.41800000000E+01 0.  1.
        -11    1    3    3    0    0 -0.38345791265E+02 -0.25996987867E+02 -0.16243680719E+03  0.16891405927E+03  0.00000000000E+00 0.  1.
         11    1    3    3    0    0  0.36577246697E+02  0.19994969658E+02 -0.16011269095E+03  0.16545019671E+03  0.00000000000E+00 0. -1.
</event>
<event>
 7    1  0.5831876E-006  0.9422804E+02  0.7561462E-02  0.1292924E+00
         -2   -1    0    0    0  501 -0.00000000000E+00  0.00000000000E+00  0.39795921442E+02  0.39795921442E+02  0.00000000000E+00 0. -1.
          2   -1    0    0  501    0  0.00000000000E+00 -0.00000000000E+00 -0.32071357158E+03  0.32071357158E+03  0.00000000000E+00 0.  1.
         23    2    1    2    0    0 -0.29787775852E+02 -0.54815331192E+01 -0.10752954218E+03  0.14457273428E+03  0.91767719048E+02 0.  0.
          5    1    1    2  502    0 -0.38039218341E+02 -0.24327322254E+02 -0.10760875814E+03  0.11677293338E+03  0.41800000000E+01 0.  1.
         -5    1    1    2    0  502  0.67826994193E+02  0.29808855373E+02 -0.65779349813E+02  0.99163825369E+02  0.41800000000E+01 0.  1.
        -11    1    3    3    0    0 -0.23357158401E+02  0.27052339004E+02 -0.41219411611E+01  0.35977441447E+02  0.00000000000E+00 0. -1.
         11    1    3    3    0    0 -0.64306174506E+01 -0.32533872123E+02 -0.10340760102E+03  0.10859529283E+03  0.00000000000E+00 0.  1.
</event>
<event>
 7    1  0.5831876E-006  0.1922189E+03  0.7561462E-02  0.1156475E+00
          1   -1    0    0  501    0  0.00000000000E+00  0.00000000000E+00  0.22494446454E+04  0.22494446454E+04  0.00000000000E+00 0. -1.
         -1   -1    0    0    0  501 -0.00000000000E+00 -0.00000000000E+00 -0.94859908000E+02  0.94859908000E+02  0.00000000000E+00 0.  1.
         23    2    1    2    0    0 -0.11851845339E+03 -0.11488190104E+03  0.93540043469E+01  0.18911134902E+03  0.91821184641E+02 0.  0.
          5    1    1    2  502    0  0.12004787294E+03  0.13550554828E+03  0.20288827088E+04  0.20369476586E+04  0.41800000000E+01 0. -1.
         -5    1    1    2    0  502 -0.15294195482E+01 -0.20623647238E+02  0.11634802427E+03  0.11824554580E+03  0.41800000000E+01 0. -1.
        -11    1    3    3    0    0 -0.19313414074E+02 -0.71356441265E+02  0.28258497557E+02  0.79140965103E+02  0.00000000000E+00 0. -1.
         11    1    3    3    0    0 -0.99205039319E+02 -0.43525459773E+02 -0.18904493210E+02  0.10997038391E+03  0.00000000000E+00 0.  1.
</event>
<event>
 7    1  0.5831876E-006  0.1158094E+03  0.7561462E-02  0.1250175E+00
         -1   -1    0    0    0  501 -0.00000000000E+00  0.00000000000E+00  0.36769455990E+02  0.36769455990E+02  0.00000000000E+00 0.  1.
          1   -1    0    0  501    0  0.00000000000E+00 -0.00000000000E+00 -0.40639602598E+03  0.40639602598E+03  0.00000000000E+00 0. -1.
         23    2    1    2    0    0  0.40487917206E+02  0.94090913544E+01 -0.97235078020E+02  0.14055560560E+03  0.92592739604E+02 0.  0.
          5    1    1    2  502    0 -0.10603787916E+02 -0.66167082089E+02 -0.15083465993E+03  0.16510327104E+03  0.41800000000E+01 0.  1.
         -5    1    1    2    0  502 -0.29884129290E+02  0.56757990735E+02 -0.12155683204E+03  0.13750660534E+03  0.41800000000E+01 0.  1.
        -11    1    3    3    0    0 -0.48238081176E+01 -0.35838290100E+02 -0.24661847453E+02  0.43770525263E+02  0.00000000000E+00 0.  1.
         11    1    3    3    0    0  0.45311725324E+02  0.45247381454E+02 -0.72573230567E+02  0.96785080333E+02  0.00000000000E+00 0. -1.
</event>
<event>
 7    1  0.5831876E-006  0.1055944E+03  0.7561462E-02  0.1268953E+00
         -2   -1    0    0    0  501 -0.00000000000E+00  0.00000000000E+00  0.17371228694E+02  0.17371228694E+02  0.00000000000E+00 0.  1.
          2   -1    0    0  501    0  0.00000000000E+00 -0.00000000000E+00 -0.10208532268E+04  0.10208532268E+04  0.00000000000E+00 0. -1.
         23    2    1    2    0    0  0.20199167250E+02 -0.37431508978E+02 -0.20009823920E+03  0.22404909963E+03  0.91375978760E+02 0.  0.
          5    1    1    2  502    0 -0.36720269616E+02  0.67743309975E+02 -0.30610512996E+03  0.31568236763E+03  0.41800000000E+01 0. -1.
         -5    1    1    2    0  502  0.16521102366E+02 -0.30311800997E+02 -0.49727862892E+03  0.49849298820E+03  0.41800000000E+01 0. -1.
        -11    1    3    3    0    0  0.37334729091E+02  0.17840871104E+02 -0.64660596294E+02  0.76766994152E+02  0.00000000000E+00 0. -1.
         11    1    3    3    0    0 -0.17135561841E+02 -0.55272380082E+02 -0.13543764290E+03  0.14728210548E+03  0.00000000000E+00 0.  1.
</event>
<event>
 7    1  0.5831876E-006  0.1014496E+03  0.7561462E-02  0.1277277E+00
          1   -1    0    0  501    0  0.00000000000E+00  0.00000000000E+00  0.16080467881E+03  0.16080467881E+03  0.00000000000E+00 0. -1.
         -1   -1    0    0    0  501 -0.00000000000E+00 -0.00000000000E+00 -0.83192985968E+02  0.83192985968E+02  0.00000000000E+00 0.  1.
         23    2    1    2    0    0 -0.11545300708E+02 -0.32887106525E+02  0.19619698698E+02  0.10178942394E+03  0.93601808236E+02 0.  0.
          5    1    1    2  502    0  0.58096893753E+02 -0.14726675903E+02  0.12256428784E+02  0.61317342518E+02  0.41800000000E+01 0.  1.
         -5    1    1    2    0  502 -0.46551593045E+02  0.47613782428E+02  0.45735565358E+02  0.80890898319E+02  0.41800000000E+01 0.  1.
        -11    1    3    3    0    0 -0.25477198335E+02 -0.48738304299E+02  0.43354470956E+02  0.70029423051E+02  0.00000000000E+00 0. -1.
         11    1    3    3    0    0  0.13931897628E+02  0.15851197774E+02 -0.23734772258E+02  0.31760000889E+02  0.00000000000E+00 0.  1.
</event>
<event>
 7    1  0.5831876E-006  0.1281835E+03  0.7561462E-02  0.1230176E+00
         -2   -1    0    0    0  501 -0.00000000000E+00  0.00000000000E+00  0.27650205127E+02  0.27650205127E+02  0.00000000000E+00 0.  1.
          2   -1    0    0  501    0  0.00000000000E+00 -0.00000000000E+00 -0.93004590918E+03  0.93004590918E+03  0.00000000000E+00 0. -1.
         23    2    1    2    0    0  0.77923181016E+02  0.81030702368E+02 -0.31045727300E+03  0.34233025616E+03  0.90378587390E+02 0.  0.
          5    1    1    2  502    0 -0.56679798484E+02 -0.94367678081E+02 -0.25895073980E+03  0.28140862862E+03  0.41800000000E+01 0. -1.
         -5    1    1    2    0  502 -0.21243382532E+02  0.13336975714E+02 -0.33298769126E+03  0.33395722953E+03  0.41800000000E+01 0. -1.
        -11    1    3    3    0    0  0.57425246698E+02  0.27928423886E+02 -0.68006932834E+02  0.93287720160E+02  0.00000000000E+00 0.  1.
         11    1    3    3    0    0  0.20497934318E+02  0.53102278482E+02 -0.24245034016E+03  0.24904253600E+03  0.00000000000E+00 0. -1.
</event>
<event>
 7    1  0.5831876E-006  0.7078828E+02  0.7561462E-02  0.1357433E+00
         -2   -1    0    0    0  501 -0.00000000000E+00  0.00000000000E+00  0.34682244228E+02  0.34682244228E+02  0.00000000000E+00 0.  1.
          2   -1    0    0  501    0  0.00000000000E+00 -0.00000000000E+00 -0.51463662403E+03  0.51463662403E+03  0.00000000000E+00 0. -1.
         23    2    1    2    0    0  0.22420965315E+02 -0.22495458628E+02 -0.71524396444E+02  0.12097997114E+03  0.92258705748E+02 0.  0.
          5    1    1    2  502    0 -0.49850609160E+02 -0.23519240083E+02 -0.32094232016E+03  0.32566805670E+03  0.41800000000E+01 0.  1.
         -5    1    1    2    0  502  0.27429643845E+02  0.46014698711E+02 -0.87487663194E+02  0.10267084041E+03  0.41800000000E+01 0.  1.
        -11    1    3    3    0    0  0.17577432165E+02 -0.12855055841E+02 -0.93765087150E+02  0.96260636557E+02  0.00000000000E+00 0. -1.
         11    1    3    3    0    0  0.48435331503E+01 -0.96404027872E+01  0.22240690705E+02  0.24719334585E+02  0.00000000000E+00 0.  1.
</event>
<event>
 6    1  0.5831876E-006  0.7815791E+02  0.7561462E-02  0.1334362E+00
          1   -1    0    0  501    0  0.00000000000E+00  0.00000000000E+00  0.23626525469E+03  0.23626525469E+03  0.00000000000E+00 0. -1.
         -1   -1    0    0    0  501 -0.00000000000E+00 -0.00000000000E+00 -0.35754157004E+02  0.35754157004E+02  0.00000000000E+00 0.  1.
          5    1    1    2  502    0  0.17872301572E+02  0.54966937638E+02  0.11788785012E+03  0.13136133755E+03  0.41800000000E+01 0.  1.
         -5    1    1    2    0  502 -0.31053195270E+02 -0.53084789562E+02  0.56158605088E+02  0.83387991610E+02  0.41800000000E+01 0.  1.
        -11    1    1    2    0    0  0.17953630791E+01  0.15685884449E+02 -0.74161151453E+01  0.17443309989E+02  0.00000000000E+00 0.  1.
         11    1    1    2    0    0  0.11385530619E+02 -0.17568032525E+02  0.33880757623E+02  0.39826772545E+02  0.00000000000E+00 0. -1.
</event>
<event>
 7    1  0.5831876E-006  0.1809633E+03  0.7561462E-02  0.1166874E+00
         -2   -1    0    0    0  501 -0.00000000000E+00  0.00000000000E+00  0.47108670978E+03  0.47108670978E+03  0.00000000000E+00 0.  1.
          2   -1    0    0  501    0  0.00000000000E+00 -0.00000000000E+00 -0.96126300582E+02  0.96126300582E+02  0.00000000000E+00 0. -1.
         23    2    1    2    0    0  0.14179359438E+03 -0.72745771274E+02  0.29902174983E+03  0.35084524276E+03  0.91000037615E+02 0.  0.
          5    1    1    2  502    0 -0.52211345132E+02  0.79274950289E+02 -0.53321284084E+01  0.95165362907E+02  0.41800000000E+01 0.  1.
         -5    1    1    2    0  502 -0.89582249249E+02 -0.65291790151E+01  0.81270787772E+02  0.12120240470E+03  0.41800000000E+01 0.  1.
        -11    1    3    3    0    0  0.11095454408E+03 -0.88903156818E+02  0.27146446067E+03  0.30644352751E+03  0.00000000000E+00 0.  1.
         11    1    3    3    0    0  0.30839050298E+02  0.16157385544E+02  0.27557289160E+02  0.44401715246E+02  0.00000000000E+00 0. -1.
</event>
<event>
 7    1  0.5831876E-006  0.1077343E+03  0.7561462E-02  0.1264824E+00
         -2   -1    0    0    0  501 -0.00000000000E+00  0.00000000000E+00  0.22128700803E+02  0.22128700803E+02  0.00000000000E+00 0.  1.
          2   -1    0    0  501    0  0.00000000000E+00 -0.00000000000E+00 -0.89246317756E+03  0.89246317756E+03  0.00000000000E+00 0. -1.
         23    2    1    2    0    0 -0.59759529335E+02 -0.54489062866E+02 -0.26551150968E+03  0.29169603182E+03  0.89721535242E+02 0.  0.
          5    1    1    2  502    0 -0.14563931157E+01 -0.28626734584E+02 -0.44287450700E+02  0.52919388728E+02  0.41800000000E+01 0. -1.
         -5    1    1    2    0  502  0.61215922451E+02  0.83115797450E+02 -0.56053551638E+03  0.56997645782E+03  0.41800000000E+01 0. -1.
        -11    1    3    3    0    0 -0.27364568540E+02 -0.12306447644E+02 -0.11430584305E+02  0.32108044514E+02  0.00000000000E+00 0.  1.
         11    1    3    3    0    0 -0.32394960795E+02 -0.42182615221E+02 -0.25408092537E+03  0.25958798730E+03  0.00000000000E+00 0. -1.
</event>
<event>
 7    1  0.5831876E-006  0.2528320E+03  0.7561462E-02  0.1111528E+00
         -2   -1    0    0    0  501 -0.00000000000E+00  0.00000000000E+00  0.36266949059E+02  0.36266949059E+02  0.00000000000E+00 0.  1.
          2   -1    0    0  501    0  0.00000000000E+00 -0.00000000000E+00 -0.20189786463E+04  0.20189786463E+04  0.00000000000E+00 0. -1.
         23    2    1    2    0    0 -0.23583765245E+03 -0.49052423944E+02 -0.92501941385E+03  0.96328133377E+03  0.11926639671E+03 0.  0.
          5    1    1    2  502    0  0.14445872678E+03  0.24434636827E+02 -0.86404685954E+03  0.87639022308E+03  0.41800000000E+01 0.  1.
         -5    1    1    2    0  502  0.91378925677E+02  0.24617787116E+02 -0.19364542382E+03  0.21557403848E+03  0.41800000000E+01 0.  1.
        -11    1    3    3    0    0 -0.12720560293E+03 -0.81397591783E+02 -0.44005195398E+03  0.46524461906E+03  0.00000000000E+00 0.  1.
         11    1    3    3    0    0 -0.10863204953E+03  0.32345167840E+02 -0.48496745987E+03  0.49803671471E+03  0.00000000000E+00 0. -1.
</event>
<event>
 7    1  0.5831876E-006  0.9643401E+02  0.7561462E-02  0.1287979E+00
          2   -1    0    0  501    0  0.00000000000E+00  0.00000000000E+00  0.60689349679E+03  0.60689349679E+03  0.00000000000E+00 0. -1.
         -2   -1    0    0    0  501 -0.00000000000E+00 -0.00000000000E+00 -0.32174752485E+02  0.32174752485E+02  0.00000000000E+00 0.  1.
         23    2    1    2    0    0 -0.73051054594E+02 -0.60558595997E+00  0.16480762287E+03  0.20253044032E+03  0.92304947804E+02 0.  0.
          5    1    1    2  502    0  0.31330589684E+02  0.26687478664E+02  0.37197536944E+03  0.37426858703E+03  0.41800000000E+01 0. -1.
         -5    1    1    2    0  502  0.41720464910E+02 -0.26081892704E+02  0.37935751989E+02  0.62269221919E+02  0.41800000000E+01 0.  1.
        -11    1    3    3    0    0 -0.54263473587E+02 -0.33834943631E+02  0.14720413649E+03  0.16049419234E+03  0.00000000000E+00 0.  1.
         11    1    3    3    0    0 -0.18787581008E+02  0.33229357671E+02  0.17603486380E+02  0.42036247978E+02  0.00000000000E+00 0. -1.
</event>
<event>
 7    1  0.5831876E-006  0.8832191E+02  0.7561462E-02  0.1306967E+00
          1   -1    0    0  501    0  0.00000000000E+00  0.00000000000E+00  0.31552479180E+03  0.31552479180E+03  0.00000000000E+00 0. -1.
         -1   -1    0    0    0  501 -0.00000000000E+00 -0.00000000000E+00 -0.39464827381E+02  0.39464827381E+02  0.00000000000E+00 0.  1.
         23    2    1    2    0    0  0.34464311252E+02 -0.23396562589E+02  0.11509381051E+03  0.15248866507E+03  0.90945147566E+02 0.  0.
          5    1    1    2  502    0 -0.74876899685E+02  0.65024617835E+01  0.12387391013E+03  0.14495188901E+03  0.41800000000E+01 0. -1.
         -5    1    1    2    0  502  0.40412588434E+02  0.16894100806E+02  0.37092243774E+02  0.57549065102E+02  0.41800000000E+01 0.  1.
        -11    1    3    3    0    0  0.39956611889E+01  0.10830692945E+02 -0.12440567211E+02  0.16971650790E+02  0.00000000000E+00 0.  1.
         11    1    3    3    0    0  0.30468650063E+02 -0.34227255534E+02  0.12753437773E+03  0.13551701428E+03  0.00000000000E+00 0. -1.
</event>
<event>
 7    1  0.5831876E-006  0.1612955E+03  0.7561462E-02  0.1187242E+00
          2   -1    0    0  501    0  0.00000000000E+00  0.00000000000E+00  0.12928168596E+04  0.12928168596E+04  0.00000000000E+00 0. -1.
         -2   -1    0    0    0  501 -0.00000000000E+00 -0.00000000000E+00 -0.28085481578E+02  0.28085481578E+02  0.00000000000E+00 0.  1.
         23    2    1    2    0    0  0.14807645847E+03 -0.44562217235E+02  0.64210942004E+03  0.66728208135E+03  0.95123288612E+02 0.  0.
          5    1    1    2  502    0 -0.12197235572E+03  0.33691712810E+02  0.25316281442E+03  0.28305700853E+03  0.41800000000E+01 0. -1.
         -5    1    1    2    0  502 -0.26104102747E+02  0.10870504425E+02  0.36945914355E+03  0.37056325128E+03  0.41800000000E+01 0. -1.
        -11    1    3    3    0    0  0.10017693086E+03  0.25533345041E+01  0.24790079198E+03  0.26738874258E+03  0.00000000000E+00 0.  1.
         11    1    3    3    0    0  0.47899527610E+02 -0.47115551739E+02  0.39420862806E+03  0.39989333877E+03  0.00000000000E+00 0. -1.
</event>
<event>
 7    1  0.5831876E-006  0.9926766E+02  0.7561462E-02  0.1281844E+00
          1   -1    0    0  501    0  0.00000000000E+00  0.00000000000E+00  0.13944323364E+04  0.13944323364E+04  0.00000000000E+00 0. -1.
         -1   -1    0    0    0  501 -0.00000000000E+00 -0.00000000000E+00 -0.13589424851E+02  0.13589424851E+02  0.00000000000E+00 0.  1.
         23    2    1    2    0    0 -0.60753101255E+02  0.50429914693E+02  0.46562287248E+03  0.48092374417E+03  0.90823304960E+02 0.  0.
          5    1    1    2  502    0  0.62278204703E+01 -0.14391000440E+02  0.73775953118E+03  0.73793799528E+03  0.41800000000E+01 0. -1.
         -5    1    1    2    0  502  0.54525280785E+02 -0.36038914253E+02  0.17746050794E+03  0.18916002184E+03  0.41800000000E+01 0. -1.
        -11    1    3    3    0    0 -0.78650575602E+02  0.19423810478E+02  0.26412584816E+03  0.27627099219E+03  0.00000000000E+00 0.  1.
         11    1    3    3    0    0  0.17897474347E+02  0.31006104215E+02  0.20149702432E+03  0.20465275198E+03  0.00000000000E+00 0. -1.
</event>
<event>
 7    1  0.5831876E-006  0.1020265E+03  0.7561462E-02  0.1276091E+00
          1   -1    0    0  501    0  0.00000000000E+00  0.00000000000E+00  0.92667916132E+02  0.92667916132E+02  0.00000000000E+00 0. -1.
         -1   -1    0    0    0  501 -0.00000000000E+00 -0.00000000000E+00 -0.14766029980E+03  0.14766029980E+03  0.00000000000E+00 0.  1.
         23    2    1    2    0    0  0.15485907757E+02  0.27457359321E+02 -0.57112533332E+02  0.11130951735E+03  0.90190061917E+02 0.  0.
          5    1    1    2  502    0  0.49340913551E+02 -0.16650214729E+01  0.24972424706E+02  0.55483262721E+02  0.41800000000E+01 0. -1.
         -5    1    1    2    0  502 -0.64826821308E+02 -0.25792337848E+02 -0.22852275037E+02  0.73535435859E+02  0.41800000000E+01 0. -1.
        -11    1    3    3    0    0  0.46504696846E+02  0.26616210575E+02 -0.59641829371E+02  0.80176413644E+02  0.00000000000E+00 0.  1.
         11    1    3    3    0    0 -0.31018789089E+02  0.84114874632E+00  0.25292960391E+01  0.31133103703E+02  0.00000000000E+00 0. -1.
</event>
<event>
 7    1  0.5831876E-006  0.1280335E+03  0.7561462E-02  0.1230403E+00
          2   -1    0    0  501    0  0.00000000000E+00  0.00000000000E+00  0.59012867400E+03  0.59012867400E+03  0.00000000000E+00 0. -1.
         -2   -1    0    0    0  501 -0.00000000000E+00 -0.00000000000E+00 -0.37078744197E+02  0.37078744197E+02  0.00000000000E+00 0.  1.
         23    2    1    2    0    0  0.86194815419E+02 -0.56605163128E+01  0.16475593594E+03  0.21021631492E+03  0.97901955968E+02 0.  0.
          5    1    1    2  502    0  0.20770975157E+02  0.10111724387E+01  0.19361511424E+03  0.19477356273E+03  0.41800000000E+01 0.  1.
         -5    1    1    2    0  502 -0.10696579058E+03  0.46493438740E+01  0.19467887963E+03  0.22221754054E+03  0.41800000000E+01 0.  1.
        -11    1    3    3    0    0  0.65198480300E+00  0.33584995826E+02  0.25656475305E+02  0.42268566972E+02  0.00000000000E+00 0. -1.
         11    1    3    3    0    0  0.85542830616E+02 -0.39245512139E+02  0.13909946063E+03  0.16794774795E+03  0.00000000000E+00 0.  1.
</event>
<event>
 7    1  0.5831876E-006  0.1642657E+03  0.7561462E-02  0.1183963E+00
          2   -1    0    0  501    0  0.00000000000E+00  0.00000000000E+00  0.70225187703E+03  0.70225187703E+03  0.00000000000E+00 0. -1.
         -2   -1    0    0    0  501 -0.00000000000E+00 -0.00000000000E+00 -0.10690333455E+03  0.10690333455E+03  0.00000000000E+00 0.  1.
         23    2    1    2    0    0 -0.62875424225E+02 -0.14409512534E+03  0.57495333783E+01  0.18626467864E+03  0.99723363644E+02 0.  0.
          5    1    1    2  502    0  0.43329648659E+02  0.12911143171E+03  0.27110338449E+03  0.30341677233E+03  0.41800000000E+01 0.  1.
         -5    1    1    2    0  502  0.19545775566E+02  0.14983693630E+02  0.31849562462E+03  0.31947376061E+03  0.41800000000E+01 0.  1.
        -11    1    3    3    0    0 -0.69980602033E+01 -0.87456552297E+02  0.43811307773E+02  0.98066569610E+02  0.00000000000E+00 0. -1.
         11    1    3    3    0    0 -0.55877364021E+02 -0.56638573041E+02 -0.38061774394E+02  0.88198109028E+02  0.00000000000E+00 0.  1.
</event>
<event>
 7    1  0.5831876E-006  0.1467379E+03  0.7561462E-02  0.1204540E+00
          1   -1    0    0  501    0  0.00000000000E+00  0.00000000000E+00  0.92993550086E+02  0.92993550086E+02  0.00000000000E+00 0. -1.
         -1   -1    0    0    0  501 -0.00000000000E+00 -0.00000000000E+00 -0.24995434045E+03  0.24995434045E+03  0.00000000000E+00 0.  1.
         23    2    1    2    0    0 -0.75513326706E+02  0.64700395450E+02 -0.11575651661E+03  0.17792094692E+03  0.91476163740E+02 0.  0.
          5    1    1    2  502    0  0.91579444240E+02 -0.11402062775E+00 -0.12880190774E+02  0.92575263016E+02  0.41800000000E+01 0.  1.
         -5    1    1    2    0  502 -0.16066117534E+02 -0.64586374822E+02 -0.28324082977E+02  0.72451680600E+02  0.41800000000E+01 0.  1.
        -11    1    3    3    0    0  0.78903535884E+01  0.49762741752E+02 -0.42898829124E+02  0.66173239959E+02  0.00000000000E+00 0. -1.
         11    1    3    3    0    0 -0.83403680295E+02  0.14937653698E+02 -0.72857687486E+02  0.11174770696E+03  0.00000000000E+00 0.  1.
</event>
<event>
 7    1  0.5831876E-006  0.1239965E+03  0.7561462E-02  0.1236646E+00
          2   -1    0    0  501    0  0.00000000000E+00  0.00000000000E+00  0.39280567005E+02  0.39280567005E+02  0.00000000000E+00 0.  1.
         -2   -1    0    0    0  501 -0.00000000000E+00 -0.00000000000E+00 -0.44498578637E+03  0.44498578637E+03  0.00000000000E+00 0. -1.
         23    2    1    2    0    0 -0.45034825862E+02  0.17613040942E+01 -0.25672079455E+03  0.28458020423E+03  0.11423260722E+03 0.  0.
          5    1    1    2  502    0  0.22449677441E+00 -0.59447662538E+02 -0.72336464746E+02  0.93723591011E+02  0.41800000000E+01 0. -1.
         -5    1    1    2    0  502  0.44810329088E+02  0.57686358444E+02 -0.76647960068E+02  0.10596255813E+03  0.41800000000E+01 0. -1.
        -11    1    3    3    0    0  0.16929870042E+02 -0.38005236463E+02 -0.14443291706E+03  0.15030597470E+03  0.00000000000E+00 0. -1.
         11    1    3    3    0    0 -0.61964695904E+02  0.39766540557E+02 -0.11228787749E+03  0.13427422953E+03  0.00000000000E+00 0.  1.
</event>
<event>
 7    1  0.5831876E-006  0.1066658E+03  0.7561462E-02  0.1266872E+00
          4   -1    0    0  501    0  0.00000000000E+00  0.00000000000E+00  0.43074661946E+02  0.43074661946E+02  0.00000000000E+00 0.  1.
         -4   -1    0    0    0  501 -0.00000000000E+00 -0.00000000000E+00 -0.34301223625E+03  0.34301223625E+03  0.00000000000E+00 0. -1.
         23    2    1    2    0    0 -0.77632435027E+01 -0.44862036436E+02 -0.18142704529E+03  0.20786017268E+03  0.90648818853E+02 0.  0.
          5    1    1    2  502    0  0.17139674743E+02 -0.38617490752E+02 -0.15400790552E+02  0.45163434234E+02  0.41800000000E+01 0. -1.
         -5    1    1    2    0  502 -0.93764312400E+01  0.83479527188E+02 -0.10310973846E+03  0.13306329129E+03  0.41800000000E+01 0. -1.
        -11    1    3    3    0    0  0.31662014942E+02 -0.76936950352E+01 -0.21585346090E+02  0.39084565999E+02  0.00000000000E+00 0.  1.
         11    1    3    3    0    0 -0.39425258445E+02 -0.37168341401E+02 -0.15984169920E+03  0.16877560668E+03  0.00000000000E+00 0. -1.
</event>
<event>
 7    1  0.5831876E-006  0.1066089E+03  0.7561462E-02  0.1266982E+00
         -2   -1    0    0    0  501 -0.00000000000E+00  0.00000000000E+00  0.33617150063E+02  0.33617150063E+02  0.00000000000E+00 0.  1.
          2   -1    0    0  501    0  0.00000000000E+00 -0.00000000000E+00 -0.56871688980E+03  0.56871688980E+03  0.00000000000E+00 0. -1.
         23    2    1    2    0    0 -0.17942110672E+02 -0.83575739038E+02 -0.22298523650E+03  0.25539627298E+03  0.90542901772E+02 0.  0.
          5    1    1    2  502    0  0.17573254023E+02  0.27190736681E+02 -0.28003309050E+03  0.28192935213E+03  0.41800000000E+01 0. -1.
         -5    1    1    2    0  502  0.36885664879E+00  0.56385002357E+02 -0.32081412738E+02  0.65008414758E+02  0.41800000000E+01 0. -1.
        -11    1    3    3    0    0 -0.40440338819E+02 -0.31987602594E+01 -0.83805735557E+02  0.93107756837E+02  0.00000000000E+00 0. -1.
         11    1    3    3    0    0  0.22498228147E+02 -0.80376978778E+02 -0.13917950095E+03  0.16228851614E+03  0.00000000000E+00 0.  1.
</event>
<event>
 7    1  0.5831876E-006  0.1295541E+03  0.7561462E-02  0.1228119E+00
          2   -1    0    0  501    0  0.00000000000E+00  0.00000000000E+00  0.18589665275E+03  0.18589665275E+03  0.00000000000E+00 0. -1.
         -2   -1    0    0    0  501 -0.00000000000E+00 -0.00000000000E+00 -0.13068982581E+03  0.13068982581E+03  0.00000000000E+00 0.  1.
         23    2    1    2    0    0  0.93742097866E+02  0.38501623625E+02 -0.21798172739E+02  0.13813076809E+03  0.91296181868E+02 0.  0.
          5    1    1    2  502    0 -0.51454082972E+02 -0.63310116169E+02  0.95694837517E+02  0.12581998169E+03  0.41800000000E+01 0. -1.
         -5    1    1    2    0  502 -0.42288014894E+02  0.24808492545E+02 -0.18689837839E+02  0.52635728782E+02  0.41800000000E+01 0. -1.
        -11    1    3    3    0    0  0.10295197696E+02 -0.22568866513E+02 -0.24256404088E+02  0.34694638931E+02  0.00000000000E+00 0.  1.
         11    1    3    3    0    0  0.83446900170E+02  0.61070490138E+02  0.24582313493E+01  0.10343612916E+03  0.00000000000E+00 0. -1.
</event>
<event>
 7    1  0.5831876E-006  0.1783082E+03  0.7561462E-02  0.1169451E+00
          2   -1    0    0  501    0  0.00000000000E+00  0.00000000000E+00  0.63914414197E+03  0.63914414197E+03  0.00000000000E+00 0.  1.
         -2   -1    0    0    0  501 -0.00000000000E+00 -0.00000000000E+00 -0.63111743923E+02  0.63111743923E+02  0.00000000000E+00 0. -1.
         23    2    1    2    0    0  0.11861843753E+03 -0.11921730274E+03  0.25128276317E+03  0.31573989123E+03  0.90915085940E+02 0.  0.
          5    1    1    2  502    0 -0.12051822802E+03  0.10261608769E+03  0.33200114940E+03  0.36782732408E+03  0.41800000000E+01 0.  1.
         -5    1    1    2    0  502  0.18997904848E+01  0.16601215052E+02 -0.72515145249E+01  0.18688670579E+02  0.41800000000E+01 0.  1.
        -11    1    3    3    0    0  0.10939869171E+03 -0.67564712059E+02  0.21952132334E+03  0.25440651616E+03  0.00000000000E+00 0. -1.
         11    1    3    3    0    0  0.92197458202E+01 -0.51652590685E+02  0.31761439834E+02  0.61333375073E+02  0.00000000000E+00 0.  1.
</event>
<event>
 7    1  0.5831876E-006  0.9611924E+02  0.7561462E-02  0.1288675E+00
         -1   -1    0    0    0  501 -0.00000000000E+00  0.00000000000E+00  0.25950386143E+03  0.25950386143E+03  0.00000000000E+00 0.  1.
          1   -1    0    0  501    0  0.00000000000E+00 -0.00000000000E+00 -0.45935011669E+02  0.45935011669E+02  0.00000000000E+00 0. -1.
         23    2    1    2    0    0 -0.30161792874E+00  0.15449326803E+02  0.93878610611E+02  0.13162259878E+03  0.90953517286E+02 0.  0.
          5    1    1    2  502    0  0.35756517872E+02  0.34086720408E+02  0.13599275452E+02  0.51408615730E+02  0.41800000000E+01 0. -1.
         -5    1    1    2    0  502 -0.35454899943E+02 -0.49536047211E+02  0.10609096370E+03  0.12240765859E+03  0.41800000000E+01 0. -1.
        -11    1    3    3    0    0  0.39680901905E+02  0.33215995211E+01  0.76753261087E+02  0.86467740151E+02  0.00000000000E+00 0.  1.
         11    1    3    3    0    0 -0.39982519834E+02  0.12127727282E+02  0.17125349525E+02  0.45154858627E+02  0.00000000000E+00 0. -1.
</event>
<event>
 7    1  0.5831876E-006  0.1544203E+03  0.7561462E-02  0.1195144E+00
         -2   -1    0    0    0  501 -0.00000000000E+00  0.00000000000E+00  0.46016669521E+02  0.46016669521E+02  0.00000000000E+00 0.  1.
          2   -1    0    0  501    0  0.00000000000E+00 -0.00000000000E+00 -0.65975411694E+03  0.65975411694E+03  0.00000000000E+00 0. -1.
         23    2    1    2    0    0 -0.10370583265E+02  0.13158384160E+03 -0.22055823252E+03  0.27257364091E+03  0.90711627786E+02 0.  0.
          5    1    1    2  502    0  0.36774433387E+02 -0.17860383003E+02 -0.22314823068E+03  0.22690076573E+03  0.41800000000E+01 0.  1.
         -5    1    1    2    0  502 -0.26403850122E+02 -0.11372345860E+03 -0.17003098421E+03  0.20629637982E+03  0.41800000000E+01 0.  1.
        -11    1    3    3    0    0  0.27911127494E+02  0.24279265301E+02 -0.20354970582E+02  0.42223673324E+02  0.00000000000E+00 0.  1.
         11    1    3    3    0    0 -0.38281710759E+02  0.10730457630E+03 -0.20020326194E+03  0.23034996758E+03  0.00000000000E+00 0. -1.
</event>
<event>
 7    1  0.5831876E-006  0.9305092E+02  0.7561462E-02  0.1295627E+00
          2   -1    0    0  501    0  0.00000000000E+00  0.00000000000E+00  0.33430633758E+02  0.33430633758E+02  0.00000000000E+00 0. -1.
         -2   -1    0    0    0  501 -0.00000000000E+00 -0.00000000000E+00 -0.45356975507E+03  0.45356975507E+03  0.00000000000E+00 0.  1.
         23    2    1    2    0    0 -0.30348119322E+02 -0.45358407406E+02 -0.22440353787E+03  0.24838335058E+03  0.91427280220E+02 0.  0.
          5    1    1    2  502    0 -0.74343546102E+01 -0.10080052339E+02  0.13479164480E+02  0.18868952241E+02  0.41800000000E+01 0. -1.
         -5    1    1    2    0  502  0.37782473932E+02  0.55438459745E+02 -0.20921474793E+03  0.21974808601E+03  0.41800000000E+01 0. -1.
        -11    1    3    3    0    0 -0.11029466918E+02 -0.71961040517E+02 -0.16802938877E+03  0.18312268014E+03  0.00000000000E+00 0. -1.
         11    1    3    3    0    0 -0.19318652403E+02  0.26602633110E+02 -0.56374149098E+02  0.65260670435E+02  0.00000000000E+00 0.  1.
</event>
<event>
 7    1  0.5831876E-006  0.9094060E+02  0.7561462E-02  0.1300590E+00
         -2   -1    0    0    0  501 -0.00000000000E+00  0.00000000000E+00  0.79368964882E+02  0.79368964882E+02  0.00000000000E+00 0.  1.
          2   -1    0    0  501    0  0.00000000000E+00 -0.00000000000E+00 -0.20872955750E+03  0.20872955750E+03  0.00000000000E+00 0. -1.
         23    2    1    2    0    0  0.33922437254E+02  0.46341901303E+02 -0.15207938196E+02  0.10928582014E+03  0.91726798344E+02 0.  0.
          5    1    1    2  502    0 -0.40471813432E+02 -0.14531302602E+01  0.13802987690E+02  0.42989232829E+02  0.41800000000E+01 0.  1.
         -5    1    1    2    0  502  0.65493761780E+01 -0.44888771043E+02 -0.12795564211E+03  0.13582346941E+03  0.41800000000E+01 0.  1.
        -11    1    3    3    0    0  0.39631217003E+02  0.64983961767E+02  0.10697562369E+02  0.76863427510E+02  0.00000000000E+00 0.  1.
         11    1    3    3    0    0 -0.57087797486E+01 -0.18642060463E+02 -0.25905500564E+02  0.32422392632E+02  0.00000000000E+00 0. -1.
</event>
<event>
 7    1  0.5831876E-006  0.8730276E+02  0.7561462E-02  0.1309518E+00
          1   -1    0    0  501    0  0.00000000000E+00  0.00000000000E+00  0.52570586455E+03  0.52570586455E+03  0.00000000000E+00 0. -1.
         -1   -1    0    0    0  501 -0.00000000000E+00 -0.00000000000E+00 -0.30842010953E+02  0.30842010953E+02  0.00000000000E+00 0.  1.
         23    2    1    2    0    0  0.20162504515E+02 -0.11156406744E+02  0.83877268700E+02  0.12632608465E+03  0.91607267506E+02 0.  0.
          5    1    1    2  502    0 -0.44705855097E+02 -0.26134432380E+02  0.35359622388E+03  0.35739247890E+03  0.41800000000E+01 0. -1.
         -5    1    1    2    0  502  0.24543350583E+02  0.37290839125E+02  0.57390361023E+02  0.72829311948E+02  0.41800000000E+01 0. -1.
        -11    1    3    3    0    0  0.14505780058E+02  0.31555407488E+02  0.74550784761E+02  0.82243424694E+02  0.00000000000E+00 0. -1.
         11    1    3    3    0    0  0.56567244564E+01 -0.42711814232E+02  0.93264839385E+01  0.44082659961E+02  0.00000000000E+00 0.  1.
</event>
<event>
 7    1  0.5831876E-006  0.1049185E+03  0.7561462E-02  0.1270280E+00
         -2   -1    0    0    0  501 -0.00000000000E+00  0.00000000000E+00  0.91026125705E+02  0.91026125705E+02  0.00000000000E+00 0. -1.
          2   -1    0    0  501    0  0.00000000000E+00 -0.00000000000E+00 -0.29240678285E+03  0.29240678285E+03  0.00000000000E+00 0.  1.
         23    2    1    2    0    0 -0.76515832643E+02 -0.37093087180E+02  0.93253702182E+01  0.12405827852E+03  0.89849452848E+02 0.  0.
          5    1    1    2  502    0 -0.48889250783E+01  0.13740918102E+02  0.13100085887E+02  0.20044926264E+02  0.41800000000E+01 0. -1.
         -5    1    1    2    0  502  0.81404757722E+02  0.23352169078E+02 -0.22380611325E+03  0.23932970378E+03  0.41800000000E+01 0. -1.
        -11    1    3    3    0    0 -0.46958931541E+02  0.15578871513E+02  0.32688269098E+02  0.59298949618E+02  0.00000000000E+00 0.  1.
         11    1    3    3    0    0 -0.29556901102E+02 -0.52671958693E+02 -0.23362898880E+02  0.64759328899E+02  0.00000000000E+00 0. -1.
</event>
<event>
 7    1  0.5831876E-006  0.1066810E+03  0.7561462E-02  0.1266843E+00
         -3   -1    0    0    0  501 -0.00000000000E+00  0.00000000000E+00  0.14429078261E+02  0.14429078261E+02  0.00000000000E+00 0.  1.
          3   -1    0    0  501    0  0.00000000000E+00 -0.00000000000E+00 -0.15796669455E+04  0.15796669455E+04  0.00000000000E+00 0. -1.
         23    2    1    2    0    0  0.28760907326E+02  0.92775094769E+02 -0.53390454198E+03  0.55067360594E+03  0.93557214220E+02 0.  0.
          5    1    1    2  502    0 -0.19999543684E+02 -0.16085849440E+02 -0.78083997870E+03  0.78127285953E+03  0.41800000000E+01 0. -1.
         -5    1    1    2    0  502 -0.87613636419E+01 -0.76689245329E+02 -0.25049334653E+03  0.26214955826E+03  0.41800000000E+01 0. -1.
        -11    1    3    3    0    0  0.64537518225E+01  0.86696234708E+02 -0.51022543372E+03  0.51757886475E+03  0.00000000000E+00 0. -1.
         11    1    3    3    0    0  0.22307155504E+02  0.60788600612E+01 -0.23679108267E+02  0.33094741193E+02  0.00000000000E+00 0.  1.
</event>
<event>
 7    1  0.5831876E-006  0.2987786E+03  0.7561462E-02  0.1085853E+00
         -2   -1    0    0    0  501 -0.00000000000E+00  0.00000000000E+00  0.29556506735E+02  0.29556506735E+02  0.00000000000E+00 0.  1.
          2   -1    0    0  501    0  0.00000000000E+00 -0.00000000000E+00 -0.32141172653E+04  0.32141172653E+04  0.00000000000E+00 0. -1.
         23    2    1    2    0    0  0.11158195968E+03  0.26540335796E+03 -0.15243358546E+04  0.15540329489E+04  0.92353302998E+02 0.  0.
          5    1    1    2  502    0 -0.85035686164E+02 -0.26045769162E+03 -0.13100360309E+04  0.13383875193E+04  0.41800000000E+01 0. -1.
         -5    1    1    2    0  502 -0.26546273513E+02 -0.49456663378E+01 -0.35018887298E+03  0.35125330377E+03  0.41800000000E+01 0. -1.
        -11    1    3    3    0    0  0.97650856644E+02  0.14384831194E+03 -0.10429242302E+04  0.10573168762E+04  0.00000000000E+00 0. -1.
         11    1    3    3    0    0  0.13931103034E+02  0.12155504601E+03 -0.48141162442E+03  0.49671607279E+03  0.00000000000E+00 0.  1.
</event>
<event>
 7    1  0.5831876E-006  0.1049385E+03  0.7561462E-02  0.1270241E+00
         -1   -1    0    0    0  501 -0.00000000000E+00  0.00000000000E+00  0.12259594903E+02  0.12259594903E+02  0.00000000000E+00 0.  1.
          1   -1    0    0  501    0  0.00000000000E+00 -0.00000000000E+00 -0.11490395219E+04  0.11490395219E+04  0.00000000000E+00 0. -1.
         23    2    1    2    0    0  0.33205518062E+02  0.78626021244E+01 -0.32108324936E+03  0.33536141304E+03  0.90600206372E+02 0.  0.
          5    1    1    2  502    0  0.43577989497E+02 -0.11193815903E+02 -0.44790220646E+03  0.45017574528E+03  0.41800000000E+01 0. -1.
         -5    1    1    2    0  502 -0.76783507559E+02  0.33312137787E+01 -0.36779447119E+03  0.37576195850E+03  0.41800000000E+01 0. -1.
        -11    1    3    3    0    0  0.57931092849E+02 -0.77977040388E+01 -0.27203805298E+03  0.27824722456E+03  0.00000000000E+00 0. -1.
         11    1    3    3    0    0 -0.24725574787E+02  0.15660306163E+02 -0.49045196383E+02  0.57114188481E+02  0.00000000000E+00 0.  1.
</event>
<event>
 7    1  0.5831876E-006  0.1015635E+03  0.7561462E-02  0.1277042E+00
          4   -1    0    0  501    0  0.00000000000E+00  0.00000000000E+00  0.83599536955E+02  0.83599536955E+02  0.00000000000E+00 0. -1.
         -4   -1    0    0    0  501 -0.00000000000E+00 -0.00000000000E+00 -0.15351115564E+03  0.15351115564E+03  0.00000000000E+00 0.  1.
         23    2    1    2    0    0  0.50580740681E+02  0.37714526380E+01 -0.26623854028E+02  0.95357591162E+02  0.76233886206E+02 0.  0.
          5    1    1    2  502    0  0.30061952062E+02 -0.64283773444E+01  0.21870403523E+02  0.37958292207E+02  0.41800000000E+01 0. -1.
         -5    1    1    2    0  502 -0.80642692743E+02  0.26569247064E+01 -0.65158168182E+02  0.10379480923E+03  0.41800000000E+01 0. -1.
        -11    1    3    3    0    0 -0.14157817998E+02 -0.18095570466E+02 -0.98416442676E+01  0.24995028363E+02  0.00000000000E+00 0. -1.
         11    1    3    3    0    0  0.64738558679E+02  0.21867023104E+02 -0.16782209760E+02  0.70362562800E+02  0.00000000000E+00 0.  1.
</event>
<event>
 7    1  0.5831876E-006  0.9238943E+02  0.7561462E-02  0.1297166E+00
         -2   -1    0    0    0  501 -0.00000000000E+00  0.00000000000E+00  0.22388778913E+03  0.22388778913E+03  0.00000000000E+00 0.  1.
          2   -1    0    0  501    0  0.00000000000E+00 -0.00000000000E+00 -0.65354888954E+02  0.65354888954E+02  0.00000000000E+00 0. -1.
         23    2    1    2    0    0  0.36353309779E+02  0.25512277623E+02  0.71302530019E+02  0.12311358527E+03  0.90002581345E+02 0.  0.
          5    1    1    2  502    0  0.39417592347E+02  0.15123955221E+02  0.64318372479E+02  0.77050671939E+02  0.41800000000E+01 0. -1.
         -5    1    1    2    0  502 -0.75770902126E+02 -0.40636232843E+02  0.22911997680E+02  0.89078420880E+02  0.41800000000E+01 0.  1.
        -11    1    3    3    0    0 -0.46045168370E+01  0.12461240758E+02 -0.18952256702E+02  0.23144591822E+02  0.00000000000E+00 0.  1.
         11    1    3    3    0    0  0.40957826616E+02  0.13051036864E+02  0.90254786721E+02  0.99968993445E+02  0.00000000000E+00 0. -1.
</event>
<event>
 7    1  0.5831876E-006  0.1145057E+03  0.7561462E-02  0.1252446E+00
          1   -1    0    0  501    0  0.00000000000E+00  0.00000000000E+00  0.10380485004E+04  0.10380485004E+04  0.00000000000E+00 0. -1.
         -1   -1    0    0    0  501 -0.00000000000E+00 -0.00000000000E+00 -0.20995240290E+02  0.20995240290E+02  0.00000000000E+00 0.  1.
         23    2    1    2    0    0 -0.17210978657E+02 -0.83493725503E+02  0.28477449952E+03  0.31128284021E+03  0.92374623403E+02 0.  0.
          5    1    1    2  502    0  0.62390761904E+02  0.23253803590E+02  0.47481873536E+03  0.47948269041E+03  0.41800000000E+01 0. -1.
         -5    1    1    2    0  502 -0.45179783247E+02  0.60239921913E+02  0.25746002520E+03  0.26827821004E+03  0.41800000000E+01 0. -1.
        -11    1    3    3    0    0 -0.16515346201E+02 -0.38632013582E+02  0.25260403162E+03  0.25607418051E+03  0.00000000000E+00 0. -1.
         11    1    3    3    0    0 -0.69563245676E+00 -0.44861711921E+02  0.32170467898E+02  0.55208659699E+02  0.00000000000E+00 0.  1.
</event>
<event>
 7    1  0.5831876E-006  0.2587863E+03  0.7561462E-02  0.1107875E+00
         -1   -1    0    0    0  501 -0.00000000000E+00  0.00000000000E+00  0.12121299391E+03  0.12121299391E+03  0.00000000000E+00 0.  1.
          1   -1    0    0  501    0  0.00000000000E+00 -0.00000000000E+00 -0.69920121834E+03  0.69920121834E+03  0.00000000000E+00 0. -1.
         23    2    1    2    0    0 -0.19528327867E+03  0.13259797964E+03 -0.96770038898E+02  0.27001741713E+03  0.88471362565E+02 0.  0.
          5    1    1    2  502    0  0.39790782446E+02  0.22453968390E+02 -0.10817366214E+03  0.11750106657E+03  0.41800000000E+01 0. -1.
         -5    1    1    2    0  502  0.15549249622E+03 -0.15505194803E+03 -0.37304452340E+03  0.43289572856E+03  0.41800000000E+01 0. -1.
        -11    1    3    3    0    0 -0.19023501534E+03  0.92286507319E+02 -0.80029092348E+02  0.22607701369E+03  0.00000000000E+00 0.  1.
         11    1    3    3    0    0 -0.50482633231E+01  0.40311472323E+02 -0.16740946549E+02  0.43940403444E+02  0.00000000000E+00 0. -1.
</event>
<event>
 7    1  0.5831876E-006  0.1270894E+03  0.7561462E-02  0.1231840E+00
          1   -1    0    0  501    0  0.00000000000E+00  0.00000000000E+00  0.10521355239E+03  0.10521355239E+03  0.00000000000E+00 0. -1.
         -1   -1    0    0    0  501 -0.00000000000E+00 -0.00000000000E+00 -0.21285833486E+03  0.21285833486E+03  0.00000000000E+00 0.  1.
         23    2    1    2    0    0  0.29009443672E+02 -0.63856156861E+02 -0.12816620592E+03  0.17320052532E+03  0.93019831428E+02 0.  0.
          5    1    1    2  502    0 -0.49772942106E+02 -0.22220981666E+02  0.52313301851E+01  0.54917729446E+02  0.41800000000E+01 0. -1.
         -5    1    1    2    0  502  0.20763498434E+02  0.86077138527E+02  0.15290093274E+02  0.89953632481E+02  0.41800000000E+01 0. -1.
        -11    1    3    3    0    0 -0.27223196735E+02 -0.20397262903E+01 -0.57920704437E+02  0.64031796213E+02  0.00000000000E+00 0.  1.
         11    1    3    3    0    0  0.56232640407E+02 -0.61816430571E+02 -0.70245501488E+02  0.10916872911E+03  0.00000000000E+00 0. -1.
</event>
<event>
 7    1  0.5831876E-006  0.9321326E+02  0.7561462E-02  0.1295252E+00
          3   -1    0    0  501    0  0.00000000000E+00  0.00000000000E+00  0.13183953103E+03  0.13183953103E+03  0.00000000000E+00 0. -1.
         -3   -1    0    0    0  501 -0.00000000000E+00 -0.00000000000E+00 -0.36655161531E+03  0.36655161531E+03  0.00000000000E+00 0.  1.
         23    2    1    2    0    0  0.22628088938E+02  0.55208220172E+02 -0.31943134344E+03  0.33729435535E+03  0.90394253125E+02 0.  0.
          5    1    1    2  502    0 -0.44789299731E+02 -0.48925667105E+02  0.10881141770E+03  0.12750372267E+03  0.41800000000E+01 0. -1.
         -5    1    1    2    0  502  0.22161210793E+02 -0.62825530667E+01 -0.24092158535E+02  0.33593068328E+02  0.41800000000E+01 0.  1.
        -11    1    3    3    0    0  0.13051998262E+01 -0.19151886868E+02 -0.18796036552E+02  0.26866136813E+02  0.00000000000E+00 0. -1.
         11    1    3    3    0    0  0.21322889112E+02  0.74360107039E+02 -0.30063530689E+03  0.31042821854E+03  0.00000000000E+00 0.  1.
</event>
<event>
 7    1  0.5831876E-006  0.1680305E+03  0.7561462E-02  0.1179917E+00
          3   -1    0    0  501    0  0.00000000000E+00  0.00000000000E+00  0.10561380442E+03  0.10561380442E+03  0.00000000000E+00 0. -1.
         -3   -1    0    0    0  501 -0.00000000000E+00 -0.00000000000E+00 -0.30276636622E+03  0.30276636622E+03  0.00000000000E+00 0.  1.
         23    2    1    2    0    0 -0.60188926357E+02 -0.12650073920E+03 -0.11624338536E+03  0.20388867782E+03  0.91830955713E+02 0.  0.
          5    1    1    2  502    0  0.13468480716E+02  0.13626432914E+03 -0.43590072147E+02  0.14375998803E+03  0.41800000000E+01 0.  1.
         -5    1    1    2    0  502  0.46720445641E+02 -0.97635899413E+01 -0.37319104290E+02  0.60731504793E+02  0.41800000000E+01 0.  1.
        -11    1    3    3    0    0 -0.51866940302E+02 -0.43370082952E+02 -0.96861014838E+02  0.11812366311E+03  0.00000000000E+00 0.  1.
         11    1    3    3    0    0 -0.83219860551E+01 -0.83130656251E+02 -0.19382370527E+02  0.85765014708E+02  0.00000000000E+00 0. -1.
</event>
<event>
 7    1  0.5831876E-006  0.1067301E+03  0.7561462E-02  0.1266748E+00
          1   -1    0    0  501    0  0.00000000000E+00  0.00000000000E+00  0.96465239718E+02  0.96465239718E+02  0.00000000000E+00 0. -1.
         -1   -1    0    0    0  501 -0.00000000000E+00 -0.00000000000E+00 -0.20615050595E+03  0.20615050595E+03  0.00000000000E+00 0.  1.
         23    2    1    2    0    0 -0.62999759681E+02  0.14431941162E+02 -0.11476756387E+03  0.16173569097E+03  0.93859412797E+02 0.  0.
          5    1    1    2  502    0  0.29788143103E+02 -0.45509178150E+02  0.52025322734E+02  0.75382526961E+02  0.41800000000E+01 0. -1.
         -5    1    1    2    0  502  0.33211616578E+02  0.31077236989E+02 -0.46943025089E+02  0.65497527733E+02  0.41800000000E+01 0. -1.
        -11    1    3    3    0    0 -0.21314868765E+02  0.52574304060E+02 -0.66618706458E+02  0.87501046439E+02  0.00000000000E+00 0.  1.
         11    1    3    3    0    0 -0.41684890916E+02 -0.38142362899E+02 -0.48148857415E+02  0.74234644530E+02  0.00000000000E+00 0. -1.
</event>
<event>
 7    1  0.5831876E-006  0.1484051E+03  0.7561462E-02  0.1202447E+00
         -2   -1    0    0    0  501 -0.00000000000E+00  0.00000000000E+00  0.19473065478E+03  0.19473065478E+03  0.00000000000E+00 0.  1.
          2   -1    0    0  501    0  0.00000000000E+00 -0.00000000000E+00 -0.24835403728E+03  0.24835403728E+03  0.00000000000E+00 0. -1.
         23    2    1    2    0    0 -0.11428769625E+03 -0.49633421447E+02  0.11981728657E+03  0.19558862409E+03  0.91507232902E+02 0.  0.
          5    1    1    2  502    0  0.13188910017E+03  0.44432457042E+02 -0.99336666930E+02  0.17103866165E+03  0.41800000000E+01 0. -1.
         -5    1    1    2    0  502 -0.17601403921E+02  0.52009644047E+01 -0.74104002131E+02  0.76457406329E+02  0.41800000000E+01 0. -1.
        -11    1    3    3    0    0 -0.81361752407E+02 -0.63316233378E+02  0.12216818840E+03  0.15985539222E+03  0.00000000000E+00 0.  1.
         11    1    3    3    0    0 -0.32925943843E+02  0.13682811930E+02 -0.23509018366E+01  0.35733231868E+02  0.00000000000E+00 0. -1.
</event>
<event>
 7    1  0.5831876E-006  0.1177318E+03  0.7561462E-02  0.1246886E+00
         -2   -1    0    0    0  501 -0.00000000000E+00  0.00000000000E+00  0.11754164448E+02  0.11754164448E+02  0.00000000000E+00 0.  1.
          2   -1    0    0  501    0  0.00000000000E+00 -0.00000000000E+00 -0.16373930691E+04  0.16373930691E+04  0.00000000000E+00 0. -1.
         23    2    1    2    0    0 -0.10680553543E+02  0.61858519858E+02 -0.40582888842E+03  0.42133511451E+03  0.94263679889E+02 0.  0.
          5    1    1    2  502    0 -0.54257731781E+02 -0.45947933227E+02 -0.72454889899E+03  0.72804099710E+03  0.41800000000E+01 0. -1.
         -5    1    1    2    0  502  0.64938285323E+02 -0.15910586631E+02 -0.49526111721E+03  0.49977112190E+03  0.41800000000E+01 0. -1.
        -11    1    3    3    0    0 -0.13559675800E+02  0.78855485841E+02 -0.38935138171E+03  0.39748779968E+03  0.00000000000E+00 0. -1.
         11    1    3    3    0    0  0.28791222575E+01 -0.16996965983E+02 -0.16477506712E+02  0.23847314839E+02  0.00000000000E+00 0.  1.
</event>
<event>
 7    1  0.5831876E-006  0.1693467E+03  0.7561462E-02  0.1178531E+00
          2   -1    0    0  501    0  0.00000000000E+00  0.00000000000E+00  0.14205976726E+03  0.14205976726E+03  0.00000000000E+00 0. -1.
         -2   -1    0    0    0  501 -0.00000000000E+00 -0.00000000000E+00 -0.29967854181E+03  0.29967854181E+03  0.00000000000E+00 0.  1.
         23    2    1    2    0    0 -0.54090660826E+02 -0.12206882110E+03 -0.19683111688E+03  0.25462508984E+03  0.90911226666E+02 0.  0.
          5    1    1    2  502    0  0.51886282681E+02 -0.67326223939E+01  0.33396413342E+00  0.52489031871E+02  0.41800000000E+01 0.  1.
         -5    1    1    2    0  502  0.22043781448E+01  0.12880144349E+03  0.38878378196E+02  0.13462418735E+03  0.41800000000E+01 0.  1.
        -11    1    3    3    0    0 -0.27190761206E+02  0.48146451747E+01 -0.60217559168E+02  0.66247058314E+02  0.00000000000E+00 0.  1.
         11    1    3    3    0    0 -0.26899899620E+02 -0.12688346627E+03 -0.13661355771E+03  0.18837803153E+03  0.00000000000E+00 0. -1.
</event>
<event>
 7    1  0.5831876E-006  0.1211908E+03  0.7561462E-02  0.1241145E+00
         -2   -1    0    0    0  501 -0.00000000000E+00  0.00000000000E+00  0.10460716622E+03  0.10460716622E+03  0.00000000000E+00 0. -1.
          2   -1    0    0  501    0  0.00000000000E+00 -0.00000000000E+00 -0.16614983996E+03  0.16614983996E+03  0.00000000000E+00 0.  1.
         23    2    1    2    0    0 -0.53961640737E+01  0.72539960321E+02 -0.13594831053E+02  0.11831817906E+03  0.92321219849E+02 0.  0.
          5    1    1    2  502    0  0.59469880294E+02 -0.37964086513E+02  0.24592424892E+01  0.70720992644E+02  0.41800000000E+01 0.  1.
         -5    1    1    2    0  502 -0.54073716220E+02 -0.34575873808E+02 -0.50407085175E+02  0.81717834475E+02  0.41800000000E+01 0.  1.
        -11    1    3    3    0    0 -0.85826534228E+01  0.89609715634E+02 -0.29540550862E+02  0.94742847862E+02  0.00000000000E+00 0.  1.
         11    1    3    3    0    0  0.31864893492E+01 -0.17069755313E+02  0.15945719810E+02  0.23575331197E+02  0.00000000000E+00 0. -1.
</event>
<event>
 7    1  0.5831876E-006  0.2309946E+03  0.7561462E-02  0.1125942E+00
         -2   -1    0    0    0  501 -0.00000000000E+00  0.00000000000E+00  0.30096545527E+03  0.30096545527E+03  0.00000000000E+00 0.  1.
          2   -1    0    0  501    0  0.00000000000E+00 -0.00000000000E+00 -0.20180837074E+03  0.20180837074E+03  0.00000000000E+00 0. -1.
         23    2    1    2    0    0 -0.63873545321E+02  0.20726628958E+03  0.83961113970E+02  0.25193877312E+03  0.96873794986E+02 0.  0.
          5    1    1    2  502    0 -0.15969958781E+02 -0.13894087416E+03  0.34016853996E+02  0.14399383615E+03  0.41800000000E+01 0.  1.
         -5    1    1    2    0  502  0.79843504102E+02 -0.68325415425E+02 -0.18820883435E+02  0.10684121674E+03  0.41800000000E+01 0.  1.
        -11    1    3    3    0    0 -0.91815554642E+01  0.33017337332E+02  0.58144665329E+02  0.67492574640E+02  0.00000000000E+00 0.  1.
         11    1    3    3    0    0 -0.54691989856E+02  0.17424895225E+03  0.25816448641E+02  0.18444619848E+03  0.00000000000E+00 0. -1.
</event>
<event>
 7    1  0.5831876E-006  0.9886928E+02  0.7561462E-02  0.1282692E+00
          1   -1    0    0  501    0  0.00000000000E+00  0.00000000000E+00  0.18730859445E+03  0.18730859445E+03  0.00000000000E+00 0. -1.
         -1   -1    0    0    0  501 -0.00000000000E+00 -0.00000000000E+00 -0.98272725504E+02  0.98272725504E+02  0.00000000000E+00 0.  1.
         23    2    1    2    0    0  0.11268827075E+01 -0.49792120028E+01 -0.45519221177E+02  0.10179285716E+03  0.90905026571E+02 0.  0.
          5    1    1    2  502    0 -0.15563783159E+02 -0.54026448942E+02  0.32854073915E+02  0.65252977743E+02  0.41800000000E+01 0. -1.
         -5    1    1    2    0  502  0.14436900452E+02  0.59005660945E+02  0.10170101621E+03  0.11853548505E+03  0.41800000000E+01 0. -1.
        -11    1    3    3    0    0  0.32548005455E+02  0.21809450207E+02 -0.46097718191E+02  0.60498135507E+02  0.00000000000E+00 0. -1.
         11    1    3    3    0    0 -0.31421122748E+02 -0.26788662210E+02  0.57849701445E+00  0.41294721655E+02  0.00000000000E+00 0.  1.
</event>
<event>
 7    1  0.5831876E-006  0.1035894E+03  0.7561462E-02  0.1272924E+00
         -1   -1    0    0    0  501 -0.00000000000E+00  0.00000000000E+00  0.28178576465E+02  0.28178576465E+02  0.00000000000E+00 0.  1.
          1   -1    0    0  501    0  0.00000000000E+00 -0.00000000000E+00 -0.47744199541E+03  0.47744199541E+03  0.00000000000E+00 0. -1.
         23    2    1    2    0    0 -0.25192034987E+02 -0.40801796830E+02 -0.81493542462E+02  0.11421333531E+03  0.64062963146E+02 0.  0.
          5    1    1    2  502    0  0.69871446426E+02  0.32843184570E+01 -0.14437539381E+03  0.16048218752E+03  0.41800000000E+01 0.  1.
         -5    1    1    2    0  502 -0.44679411440E+02  0.37517478373E+02 -0.22339448267E+03  0.23092504905E+03  0.41800000000E+01 0.  1.
        -11    1    3    3    0    0 -0.33003642544E+02  0.39010109436E+01 -0.24127840933E+02  0.41068370014E+02  0.00000000000E+00 0.  1.
         11    1    3    3    0    0  0.78116075567E+01 -0.44702807774E+02 -0.57365701529E+02  0.73144965291E+02  0.00000000000E+00 0. -1.
</event>
<event>
 7    1  0.5831876E-006  0.1232411E+03  0.7561462E-02  0.1237844E+00
          4   -1    0    0  501    0  0.00000000000E+00  0.00000000000E+00  0.13133085868E+03  0.13133085868E+03  0.00000000000E+00 0. -1.
         -4   -1    0    0    0  501 -0.00000000000E+00 -0.00000000000E+00 -0.14351575976E+03  0.14351575976E+03  0.00000000000E+00 0.  1.
         23    2    1    2    0    0  0.68442264400E+01  0.79719608651E+02 -0.23465821532E+02  0.12592965740E+03  0.94369350924E+02 0.  0.
          5    1    1    2  502    0  0.43469741987E+02 -0.45139004459E+01  0.34001842939E+02  0.55530095344E+02  0.41800000000E+01 0. -1.
         -5    1    1    2    0  502 -0.50313968427E+02 -0.75205708205E+02 -0.22720922488E+02  0.93386865694E+02  0.41800000000E+01 0. -1.
        -11    1    3    3    0    0 -0.14346800858E+02 -0.11476744069E+02 -0.26510063392E+02  0.32254144080E+02  0.00000000000E+00 0.  1.
         11    1    3    3    0    0  0.21191027298E+02  0.91196352720E+02  0.30442418597E+01  0.93675513321E+02  0.00000000000E+00 0. -1.
</event>
<event>
 7    1  0.5831876E-006  0.1522325E+03  0.7561462E-02  0.1197756E+00
         -2   -1    0    0    0  501 -0.00000000000E+00  0.00000000000E+00  0.30032570923E+02  0.30032570923E+02  0.00000000000E+00 0.  1.
          2   -1    0    0  501    0  0.00000000000E+00 -0.00000000000E+00 -0.13219416531E+04  0.13219416531E+04  0.00000000000E+00 0. -1.
         23    2    1    2    0    0 -0.13761125871E+03 -0.13185049929E+02 -0.28858580974E+03  0.33277230227E+03  0.91350596683E+02 0.  0.
          5    1    1    2  502    0  0.94858197208E+02 -0.12456693037E+02 -0.89234354194E+03  0.89746738995E+03  0.41800000000E+01 0. -1.
         -5    1    1    2    0  502  0.42753061500E+02  0.25641742966E+02 -0.11097973046E+03  0.12173453176E+03  0.41800000000E+01 0.  1.
        -11    1    3    3    0    0 -0.70749521611E+02 -0.45800693780E+02 -0.10469215001E+03  0.13440105890E+03  0.00000000000E+00 0.  1.
         11    1    3    3    0    0 -0.66861737096E+02  0.32615643851E+02 -0.18389365972E+03  0.19837124337E+03  0.00000000000E+00 0. -1.
</event>
<event>
 7    1  0.5831876E-006  0.8408199E+02  0.7561462E-02  0.1317851E+00
         -1   -1    0    0    0  501 -0.00000000000E+00  0.00000000000E+00  0.26731029430E+02  0.26731029430E+02  0.00000000000E+00 0.  1.
          1   -1    0    0  501    0  0.00000000000E+00 -0.00000000000E+00 -0.48564390567E+03  0.48564390567E+03  0.00000000000E+00 0. -1.
         23    2    1    2    0    0 -0.23261948642E+02  0.27051733491E+02 -0.20637188510E+03  0.22830191672E+03  0.90881767575E+02 0.  0.
          5    1    1    2  502    0  0.32504093947E+02  0.11387417969E+02 -0.70741216116E+01  0.35407697015E+02  0.41800000000E+01 0. -1.
         -5    1    1    2    0  502 -0.92421453058E+01 -0.38439151460E+02 -0.24546686953E+03  0.24866532137E+03  0.41800000000E+01 0. -1.
        -11    1    3    3    0    0  0.26014766060E+02 -0.14032682266E+02 -0.98026052904E+02  0.10238550323E+03  0.00000000000E+00 0.  1.
         11    1    3    3    0    0 -0.49276714702E+02  0.41084415757E+02 -0.10834583219E+03  0.12591641348E+03  0.00000000000E+00 0. -1.
</event>
<event>
 7    1  0.5831876E-006  0.5892382E+02  0.7561462E-02  0.1402404E+00
          1   -1    0    0  501    0  0.00000000000E+00  0.00000000000E+00  0.13973758466E+04  0.13973758466E+04  0.00000000000E+00 0. -1.
         -1   -1    0    0    0  501 -0.00000000000E+00 -0.00000000000E+00 -0.13601313740E+02  0.13601313740E+02  0.00000000000E+00 0.  1.
         23    2    1    2    0    0  0.24227722215E+02  0.74757744626E+01  0.20494611140E+03  0.22525964071E+03  0.89978483151E+02 0.  0.
          5    1    1    2  502    0 -0.35948203405E+02 -0.38151785692E+01  0.93803885830E+02  0.10061545762E+03  0.41800000000E+01 0.  1.
         -5    1    1    2    0  502  0.11720481189E+02 -0.36605958933E+01  0.10850245356E+04  0.10851020620E+04  0.41800000000E+01 0.  1.
        -11    1    3    3    0    0  0.15476104594E+02  0.35713784256E+02  0.33712840255E+02  0.51493104366E+02  0.00000000000E+00 0.  1.
         11    1    3    3    0    0  0.87516176216E+01 -0.28238009793E+02  0.17123327114E+03  0.17376653635E+03  0.00000000000E+00 0. -1.
</event>
<event>
 7    1  0.5831876E-006  0.1873955E+03  0.7561462E-02  0.1160832E+00
          1   -1    0    0  501    0  0.00000000000E+00  0.00000000000E+00  0.14853092454E+04  0.14853092454E+04  0.00000000000E+00 0. -1.
         -1   -1    0    0    0  501 -0.00000000000E+00 -0.00000000000E+00 -0.37154758296E+02  0.37154758296E+02  0.00000000000E+00 0.  1.
         23    2    1    2    0    0 -0.16145249563E+00 -0.17952205227E+03  0.34417900066E+03  0.39701332016E+03  0.83259825665E+02 0.  0.
          5    1    1    2  502    0  0.10141500366E+01  0.16468725826E+03  0.10955450964E+04  0.11078625602E+04  0.41800000000E+01 0. -1.
         -5    1    1    2    0  502 -0.85269754099E+00  0.14834794014E+02  0.84303899661E+01  0.17588123308E+02  0.41800000000E+01 0. -1.
        -11    1    3    3    0    0 -0.37606720069E+02 -0.94563050766E+02  0.14377283938E+03  0.17614501215E+03  0.00000000000E+00 0.  1.
         11    1    3    3    0    0  0.37445267574E+02 -0.84959001508E+02  0.20040616128E+03  0.22086830801E+03  0.00000000000E+00 0. -1.
</event>
<event>
 7    1  0.5831876E-006  0.1278670E+03  0.7561462E-02  0.1230656E+00
         -1   -1    0    0    0  501 -0.00000000000E+00  0.00000000000E+00  0.59737548398E+02  0.59737548398E+02  0.00000000000E+00 0.  1.
          1   -1    0    0  501    0  0.00000000000E+00 -0.00000000000E+00 -0.51789280764E+03  0.51789280764E+03  0.00000000000E+00 0. -1.
         23    2    1    2    0    0  0.14497132918E+01 -0.11504205894E+03 -0.89306891973E+02  0.17151160915E+03  0.90574467296E+02 0.  0.
          5    1    1    2  502    0  0.22920172829E+02  0.43652290190E+02 -0.29951993757E+03  0.30357951539E+03  0.41800000000E+01 0.  1.
         -5    1    1    2    0  502 -0.24369886121E+02  0.71389768750E+02 -0.69328429696E+02  0.10253923150E+03  0.41800000000E+01 0.  1.
        -11    1    3    3    0    0  0.24637712394E+02 -0.10017010249E+03 -0.32128141296E+02  0.10804297186E+03  0.00000000000E+00 0.  1.
         11    1    3    3    0    0 -0.23187999103E+02 -0.14871956452E+02 -0.57178750677E+02  0.63468637295E+02  0.00000000000E+00 0. -1.
</event>
<event>
 7    1  0.5831876E-006  0.9481118E+02  0.7561462E-02  0.1291602E+00
         -2   -1    0    0    0  501 -0.00000000000E+00  0.00000000000E+00  0.94944147617E+02  0.94944147617E+02  0.00000000000E+00 0.  1.
          2   -1    0    0  501    0  0.00000000000E+00 -0.00000000000E+00 -0.15748202506E+03  0.15748202506E+03  0.00000000000E+00 0. -1.
         23    2    1    2    0    0  0.54788636009E+01  0.53769048521E+01  0.30795342260E+02  0.96164006189E+02  0.90775734253E+02 0.  0.
          5    1    1    2  502    0 -0.51656797604E+00 -0.64970819676E+02 -0.53737882328E+02  0.84419823791E+02  0.41800000000E+01 0. -1.
         -5    1    1    2    0  502 -0.49622956249E+01  0.59593914824E+02 -0.39595337371E+02  0.71842342692E+02  0.41800000000E+01 0. -1.
        -11    1    3    3    0    0  0.13536215554E+01  0.34816033937E+02 -0.17854755763E+02  0.39150744741E+02  0.00000000000E+00 0. -1.
         11    1    3    3    0    0  0.41252420455E+01 -0.29439129085E+02  0.48650098024E+02  0.57013261448E+02  0.00000000000E+00 0.  1.
</event>
<event>
 7    1  0.5831876E-006  0.9567984E+02  0.7561462E-02  0.1289652E+00
         -3   -1    0    0    0  501 -0.00000000000E+00  0.00000000000E+00  0.73499270314E+02  0.73499270314E+02  0.00000000000E+00 0.  1.
          3   -1    0    0  501    0  0.00000000000E+00 -0.00000000000E+00 -0.20990154643E+03  0.20990154643E+03  0.00000000000E+00 0. -1.
         23    2    1    2    0    0  0.26075836086E+02  0.46612669417E+01 -0.32598925083E-01  0.96461177348E+02  0.92752795298E+02 0.  0.
          5    1    1    2  502    0 -0.16404694148E+02 -0.49139160245E+02 -0.13097924217E+03  0.14091417722E+03  0.41800000000E+01 0. -1.
         -5    1    1    2    0  502 -0.96711419388E+01  0.44477893303E+02 -0.53904350139E+01  0.46025462178E+02  0.41800000000E+01 0. -1.
        -11    1    3    3    0    0  0.57432818966E+02 -0.11234963841E+02 -0.11180699747E+02  0.59579872052E+02  0.00000000000E+00 0. -1.
         11    1    3    3    0    0 -0.31356982880E+02  0.15896230783E+02  0.11148100822E+02  0.36881305296E+02  0.00000000000E+00 0.  1.
</event>
<event>
 7    1  0.5831876E-006  0.1741033E+03  0.7561462E-02  0.1173635E+00
          2   -1    0    0  501    0  0.00000000000E+00  0.00000000000E+00  0.41789019016E+03  0.41789019016E+03  0.00000000000E+00 0. -1.
         -2   -1    0    0    0  501 -0.00000000000E+00 -0.00000000000E+00 -0.84274398562E+02  0.84274398562E+02  0.00000000000E+00 0.  1.
         23    2    1    2    0    0 -0.12957179272E+03 -0.80075243790E+02  0.13940482471E+03  0.22545827363E+03  0.90536367590E+02 0.  0.
          5    1    1    2  502    0  0.93653644584E+02 -0.36012991207E+01  0.50556306120E+02  0.10657104198E+03  0.41800000000E+01 0.  1.
         -5    1    1    2    0  502  0.35918148139E+02  0.83676542910E+02  0.14365466077E+03  0.17013527312E+03  0.41800000000E+01 0.  1.
        -11    1    3    3    0    0 -0.23031993203E+02 -0.45889066120E+02  0.65455796240E+01  0.51760252249E+02  0.00000000000E+00 0.  1.
         11    1    3    3    0    0 -0.10653979952E+03 -0.34186177670E+02  0.13285924508E+03  0.17369802138E+03  0.00000000000E+00 0. -1.
</event>
<event>
 7    1  0.5831876E-006  0.1250869E+03  0.7561462E-02  0.1234934E+00
         -2   -1    0    0    0  501 -0.00000000000E+00  0.00000000000E+00  0.37091840053E+02  0.37091840053E+02  0.00000000000E+00 0. -1.
          2   -1    0    0  501    0  0.00000000000E+00 -0.00000000000E+00 -0.73026377047E+03  0.73026377047E+03  0.00000000000E+00 0.  1.
         23    2    1    2    0    0 -0.52528404127E+01 -0.99076002350E+02 -0.14638586985E+03  0.19773474114E+03  0.88467838160E+02 0.  0.
          5    1    1    2  502    0  0.38518904882E+02  0.55292615605E+02 -0.10789157638E+03  0.12727546514E+03  0.41800000000E+01 0. -1.
         -5    1    1    2    0  502 -0.33266064470E+02  0.43783386746E+02 -0.43889448419E+03  0.44234540424E+03  0.41800000000E+01 0. -1.
        -11    1    3    3    0    0 -0.21281897853E+02 -0.10737337948E+03 -0.10119114239E+03  0.14906914200E+03  0.00000000000E+00 0. -1.
         11    1    3    3    0    0  0.16029057440E+02  0.82973771341E+01 -0.45194727463E+02  0.48665599146E+02  0.00000000000E+00 0.  1.
</event>
<event>
 7    1  0.5831876E-006  0.9103102E+02  0.7561462E-02  0.1300374E+00
          1   -1    0    0  501    0  0.00000000000E+00  0.00000000000E+00  0.81878439079E+02  0.81878439079E+02  0.00000000000E+00 0. -1.
         -1   -1    0    0    0  501 -0.00000000000E+00 -0.00000000000E+00 -0.17907543605E+03  0.17907543605E+03  0.00000000000E+00 0.  1.
         23    2    1    2    0    0  0.15787919689E+02  0.48170648688E+02 -0.74387576667E+02  0.12407015252E+03  0.85382793232E+02 0.  0.
          5    1    1    2  502    0  0.29709343458E+02 -0.31525888534E+02 -0.61083551978E+02  0.75001329714E+02  0.41800000000E+01 0.  1.
         -5    1    1    2    0  502 -0.45497263148E+02 -0.16644760154E+02  0.38274131678E+02  0.61882392893E+02  0.41800000000E+01 0.  1.
        -11    1    3    3    0    0  0.44197151830E+02  0.16018295165E+02 -0.64885140057E+02  0.80125248268E+02  0.00000000000E+00 0.  1.
         11    1    3    3    0    0 -0.28409232141E+02  0.32152353523E+02 -0.95024366100E+01  0.43944904249E+02  0.00000000000E+00 0. -1.
</event>
<event>
 7    1  0.5831876E-006  0.1202702E+03  0.7561462E-02  0.1242652E+00
         -2   -1    0    0    0  501 -0.00000000000E+00  0.00000000000E+00  0.32373113476E+02  0.32373113476E+02  0.00000000000E+00 0.  1.
          2   -1    0    0  501    0  0.00000000000E+00 -0.00000000000E+00 -0.50209284050E+03  0.50209284050E+03  0.00000000000E+00 0. -1.
         23    2    1    2    0    0 -0.40563815519E+02 -0.48306319825E+02 -0.16319421255E+03  0.19744343151E+03  0.91502098190E+02 0.  0.
          5    1    1    2  502    0  0.82139692334E+02  0.49688131324E+02 -0.18432211735E+03  0.20786523229E+03  0.41800000000E+01 0.  1.
         -5    1    1    2    0  502 -0.41575876815E+02 -0.13818114991E+01 -0.12220339713E+03  0.12915729018E+03  0.41800000000E+01 0.  1.
        -11    1    3    3    0    0 -0.60988836071E+02 -0.13779595853E+02 -0.59714719395E+02  0.86460182162E+02  0.00000000000E+00 0.  1.
         11    1    3    3    0    0  0.20425020551E+02 -0.34526723972E+02 -0.10347949316E+03  0.11098324935E+03  0.00000000000E+00 0. -1.
</event>
<event>
 7    1  0.5831876E-006  0.1412352E+03  0.7561462E-02  0.1211677E+00
          1   -1    0    0  501    0  0.00000000000E+00  0.00000000000E+00  0.78150687862E+02  0.78150687862E+02  0.00000000000E+00 0. -1.
         -1   -1    0    0    0  501 -0.00000000000E+00 -0.00000000000E+00 -0.32608154165E+03  0.32608154165E+03  0.00000000000E+00 0.  1.
         23    2    1    2    0    0  0.11606019111E+03  0.39333817005E+01 -0.12422394682E+03  0.19343097410E+03  0.92187381587E+02 0.  0.
          5    1    1    2  502    0 -0.54673329641E+01  0.43598515126E+02 -0.10207968032E+02  0.45303391289E+02  0.41800000000E+01 0. -1.
         -5    1    1    2    0  502 -0.11059285815E+03 -0.47531896827E+02 -0.11349893893E+03  0.16549786412E+03  0.41800000000E+01 0. -1.
        -11    1    3    3    0    0  0.27645307495E+02 -0.77257260101E+01  0.11588834053E+02  0.30955628625E+02  0.00000000000E+00 0.  1.
         11    1    3    3    0    0  0.88414883619E+02  0.11659107711E+02 -0.13581278088E+03  0.16247534547E+03  0.00000000000E+00 0. -1.
</event>
<event>
 7    1  0.5831876E-006  0.8986258E+02  0.7561462E-02  0.1303185E+00
          2   -1    0    0  501    0  0.00000000000E+00  0.00000000000E+00  0.42698122052E+03  0.42698122052E+03  0.00000000000E+00 0. -1.
         -2   -1    0    0    0  501 -0.00000000000E+00 -0.00000000000E+00 -0.38367052685E+02  0.38367052685E+02  0.00000000000E+00 0.  1.
         23    2    1    2    0    0 -0.34746274030E+02 -0.13334142458E+02  0.80590980720E+02  0.13081749868E+03  0.96089587747E+02 0.  0.
          5    1    1    2  502    0 -0.35877986357E+02  0.25351291525E+02  0.49880441211E+02  0.66599164427E+02  0.41800000000E+01 0. -1.
         -5    1    1    2    0  502  0.70624260387E+02 -0.12017149067E+02  0.25814274590E+03  0.26793161010E+03  0.41800000000E+01 0. -1.
        -11    1    3    3    0    0 -0.29450916334E+02 -0.32553856813E+02 -0.38384156766E+01  0.44066353391E+02  0.00000000000E+00 0.  1.
         11    1    3    3    0    0 -0.52953576955E+01  0.19219714355E+02  0.84429396397E+02  0.86751145289E+02  0.00000000000E+00 0. -1.
</event>
<event>
 7    1  0.5831876E-006  0.1920161E+03  0.7561462E-02  0.1156655E+00
         -1   -1    0    0    0  501 -0.00000000000E+00  0.00000000000E+00  0.89268621299E+02  0.89268621299E+02  0.00000000000E+00 0.  1.
          1   -1    0    0  501    0  0.00000000000E+00 -0.00000000000E+00 -0.55112333833E+03  0.55112333833E+03  0.00000000000E+00 0. -1.
         23    2    1    2    0    0 -0.14771539994E+03 -0.10392654204E+03 -0.12484517067E+03  0.23809472740E+03  0.92098952531E+02 0.  0.
          5    1    1    2  502    0  0.70937758520E+02  0.76791586486E+02 -0.77288001349E+02  0.13007698064E+03  0.41800000000E+01 0. -1.
         -5    1    1    2    0  502  0.76777641417E+02  0.27134955549E+02 -0.25972154502E+03  0.27222025160E+03  0.41800000000E+01 0. -1.
        -11    1    3    3    0    0 -0.61301523661E+02  0.17890230711E+01 -0.15734081030E+02  0.63313811389E+02  0.00000000000E+00 0. -1.
         11    1    3    3    0    0 -0.86413876275E+02 -0.10571556511E+03 -0.10911108964E+03  0.17478091601E+03  0.00000000000E+00 0.  1.
</event>
<event>
 7    1  0.5831876E-006  0.1163421E+03  0.7561462E-02  0.1249256E+00
          3   -1    0    0  501    0  0.00000000000E+00  0.00000000000E+00  0.10135175416E+04  0.10135175416E+04  0.00000000000E+00 0. -1.
         -3   -1    0    0    0  501 -0.00000000000E+00 -0.00000000000E+00 -0.14908654840E+02  0.14908654840E+02  0.00000000000E+00 0.  1.
         23    2    1    2    0    0 -0.43700013935E+02  0.22300443702E+02  0.33321997848E+03  0.34960576300E+03  0.93710375410E+02 0.  0.
          5    1    1    2  502    0  0.19577156594E+02 -0.73149921819E+02  0.43902506314E+03  0.44552738927E+03  0.41800000000E+01 0. -1.
         -5    1    1    2    0  502  0.24122857340E+02  0.50849478117E+02  0.22636384511E+03  0.23329304414E+03  0.41800000000E+01 0. -1.
        -11    1    3    3    0    0 -0.21548903925E+02  0.56043840538E+02  0.14201536962E+03  0.15418700506E+03  0.00000000000E+00 0.  1.
         11    1    3    3    0    0 -0.22151110010E+02 -0.33743396836E+02  0.19120460886E+03  0.19541875794E+03  0.00000000000E+00 0. -1.
</event>
<event>
 7    1  0.5831876E-006  0.1171077E+03  0.7561462E-02  0.1247946E+00
         -2   -1    0    0    0  501 -0.00000000000E+00  0.00000000000E+00  0.26362773134E+02  0.26362773134E+02  0.00000000000E+00 0.  1.
          2   -1    0    0  501    0  0.00000000000E+00 -0.00000000000E+00 -0.82161330259E+03  0.82161330259E+03  0.00000000000E+00 0. -1.
         23    2    1    2    0    0 -0.56177530935E+02 -0.77458763682E+02 -0.40339385248E+03  0.42565521021E+03  0.96436417964E+02 0.  0.
          5    1    1    2  502    0 -0.16756883949E+01  0.26319894019E+02 -0.30444662857E+03  0.30561539032E+03  0.41800000000E+01 0.  1.
         -5    1    1    2    0  502  0.57853219330E+02  0.51138869662E+02 -0.87410048408E+02  0.11670547519E+03  0.41800000000E+01 0.  1.
        -11    1    3    3    0    0 -0.49358336405E+02  0.29888310942E+01 -0.97988586665E+02  0.10975856049E+03  0.00000000000E+00 0. -1.
         11    1    3    3    0    0 -0.68191945295E+01 -0.80447594776E+02 -0.30540526581E+03  0.31589664972E+03  0.00000000000E+00 0.  1.
</event>
<event>
 7    1  0.5831876E-006  0.7792610E+02  0.7561462E-02  0.1335042E+00
         -1   -1    0    0    0  501 -0.00000000000E+00  0.00000000000E+00  0.67192546405E+02  0.67192546405E+02  0.00000000000E+00 0.  1.
          1   -1    0    0  501    0  0.00000000000E+00 -0.00000000000E+00 -0.26365177443E+03  0.26365177443E+03  0.00000000000E+00 0. -1.
         23    2    1    2    0    0  0.46536202172E+02  0.46202482565E+02 -0.36900574903E+02  0.11775655912E+03  0.90579618463E+02 0.  0.
          5    1    1    2  502    0  0.11101292954E+01 -0.33031323090E+02  0.11296104835E+02  0.35176342569E+02  0.41800000000E+01 0. -1.
         -5    1    1    2    0  502 -0.47646331467E+02 -0.13171159475E+02 -0.17085475795E+03  0.17791141914E+03  0.41800000000E+01 0. -1.
        -11    1    3    3    0    0  0.16839506502E+02 -0.13198451154E+01 -0.56047714951E+02  0.58537657295E+02  0.00000000000E+00 0. -1.
         11    1    3    3    0    0  0.29696695670E+02  0.47522327680E+02  0.19147140048E+02  0.59218901830E+02  0.00000000000E+00 0.  1.
</event>
<event>
 7    1  0.5831876E-006  0.9800367E+02  0.7561462E-02  0.1284551E+00
          1   -1    0    0  501    0  0.00000000000E+00  0.00000000000E+00  0.51521166641E+02  0.51521166641E+02  0.00000000000E+00 0. -1.
         -1   -1    0    0    0  501 -0.00000000000E+00 -0.00000000000E+00 -0.41027696542E+03  0.41027696542E+03  0.00000000000E+00 0.  1.
         23    2    1    2    0    0 -0.57699260274E+02  0.15952475910E+02 -0.28344319554E+03  0.30399032270E+03  0.92121577670E+02 0.  0.
          5    1    1    2  502    0  0.18631384503E+02  0.23625471412E+02 -0.94161072732E+02  0.98939736234E+02  0.41800000000E+01 0. -1.
         -5    1    1    2    0  502  0.39067875771E+02 -0.39577947322E+02  0.18848469495E+02  0.58868073128E+02  0.41800000000E+01 0. -1.
        -11    1    3    3    0    0 -0.21253417111E+02  0.53480138170E+02 -0.14951763971E+03  0.16021035391E+03  0.00000000000E+00 0.  1.
         11    1    3    3    0    0 -0.36445843163E+02 -0.37527662259E+02 -0.13392555584E+03  0.14377996879E+03  0.00000000000E+00 0. -1.
</event>
<event>
 7    1  0.5831876E-006  0.1397235E+03  0.7561462E-02  0.1213701E+00
          3   -1    0    0  501    0  0.00000000000E+00  0.00000000000E+00  0.42971641000E+03  0.42971641000E+03  0.00000000000E+00 0. -1.
         -3   -1    0    0    0  501 -0.00000000000E+00 -0.00000000000E+00 -0.90271628097E+02  0.90271628097E+02  0.00000000000E+00 0.  1.
         23    2    1    2    0    0 -0.96397602286E+02  0.60221221698E+02  0.53357899059E+01  0.14556153007E+03  0.90777723665E+02 0.  0.
          5    1    1    2  502    0  0.39361860116E+02 -0.91747055228E+02  0.23910055131E+03  0.25913977736E+03  0.41800000000E+01 0. -1.
         -5    1    1    2    0  502  0.57035742170E+02  0.31525833530E+02  0.95008440683E+02  0.11528673066E+03  0.41800000000E+01 0. -1.
        -11    1    3    3    0    0 -0.48895408306E+02  0.37189696923E+02 -0.42194083212E+02  0.74526338758E+02  0.00000000000E+00 0.  1.
         11    1    3    3    0    0 -0.47502193981E+02  0.23031524775E+02  0.47529873118E+02  0.71035191314E+02  0.00000000000E+00 0. -1.
</event>
<event>
 7    1  0.5831876E-006  0.8296734E+02  0.7561462E-02  0.1320835E+00
          2   -1    0    0  501    0  0.00000000000E+00  0.00000000000E+00  0.65481950634E+03  0.65481950634E+03  0.00000000000E+00 0. -1.
         -2   -1    0    0    0  501 -0.00000000000E+00 -0.00000000000E+00 -0.35349906788E+02  0.35349906788E+02  0.00000000000E+00 0.  1.
         23    2    1    2    0    0  0.25994551108E+02  0.39800453071E+02  0.55154502670E+02  0.11020215194E+03  0.82720628472E+02 0.  0.
          5    1    1    2  502    0 -0.27581657155E-01 -0.51051739004E+02  0.53999724866E+03  0.54242122172E+03  0.41800000000E+01 0.  1.
         -5    1    1    2    0  502 -0.25966969451E+02  0.11251285934E+02  0.24317848225E+02  0.37546039470E+02  0.41800000000E+01 0.  1.
        -11    1    3    3    0    0 -0.22638066282E+02  0.28100897773E+02  0.46570739142E+00  0.36088216693E+02  0.00000000000E+00 0.  1.
         11    1    3    3    0    0  0.48632617391E+02  0.11699555298E+02  0.54688795279E+02  0.74113935245E+02  0.00000000000E+00 0. -1.
</event>
<event>
 7    1  0.5831876E-006  0.7800078E+02  0.7561462E-02  0.1334823E+00
          3   -1    0    0  501    0  0.00000000000E+00  0.00000000000E+00  0.23132568494E+03  0.23132568494E+03  0.00000000000E+00 0. -1.
         -3   -1    0    0    0  501 -0.00000000000E+00 -0.00000000000E+00 -0.55409896036E+02  0.55409896036E+02  0.00000000000E+00 0.  1.
         23    2    1    2    0    0  0.14674468541E+02  0.69909903741E+01  0.22996048827E+02  0.95465010746E+02  0.91216972333E+02 0.  0.
          5    1    1    2  502    0  0.41010608775E+02  0.17134985693E+01  0.11759515998E+03  0.12462303222E+03  0.41800000000E+01 0. -1.
         -5    1    1    2    0  502 -0.55685077316E+02 -0.87044889434E+01  0.35324580094E+02  0.66647538006E+02  0.41800000000E+01 0.  1.
        -11    1    3    3    0    0  0.34616268781E+02  0.13638651342E+02  0.49318746926E+02  0.61778941988E+02  0.00000000000E+00 0. -1.
         11    1    3    3    0    0 -0.19941800240E+02 -0.66476609676E+01 -0.26322698099E+02  0.33686068758E+02  0.00000000000E+00 0.  1.
</event>
<event>
 7    1  0.5831876E-006  0.1155402E+03  0.7561462E-02  0.1250641E+00
         -3   -1    0    0    0  501 -0.00000000000E+00  0.00000000000E+00  0.10644963642E+03  0.10644963642E+03  0.00000000000E+00 0.  1.
          3   -1    0    0  501    0  0.00000000000E+00 -0.00000000000E+00 -0.17202096924E+03  0.17202096924E+03  0.00000000000E+00 0. -1.
         23    2    1    2    0    0  0.69905236688E+02 -0.34411304807E+02 -0.39018720766E+01  0.11871484027E+03  0.89482449005E+02 0.  0.
          5    1    1    2  502    0 -0.10220886421E+03  0.41778953423E+02 -0.61291908014E+02  0.12635783815E+03  0.41800000000E+01 0. -1.
         -5    1    1    2    0  502  0.32303627526E+02 -0.73676486152E+01 -0.37755272849E+00  0.33397927234E+02  0.41800000000E+01 0. -1.
        -11    1    3    3    0    0  0.57607847064E+02 -0.81395777908E+01 -0.41327162138E+02  0.71364214423E+02  0.00000000000E+00 0. -1.
         11    1    3    3    0    0  0.12297389625E+02 -0.26271727017E+02  0.37425290061E+02  0.47350625848E+02  0.00000000000E+00 0.  1.
</event>
<event>
 7    1  0.5831876E-006  0.1241831E+03  0.7561462E-02  0.1236352E+00
         -1   -1    0    0    0  501 -0.00000000000E+00  0.00000000000E+00  0.17462325557E+03  0.17462325557E+03  0.00000000000E+00 0.  1.
          1   -1    0    0  501    0  0.00000000000E+00 -0.00000000000E+00 -0.26226566155E+03  0.26226566155E+03  0.00000000000E+00 0. -1.
         23    2    1    2    0    0  0.54854612916E+02 -0.95317216222E+02  0.10930856536E+03  0.17895985535E+03  0.89352487932E+02 0.  0.
          5    1    1    2  502    0  0.61692642719E+01  0.40351079625E+02 -0.16447002880E+03  0.16951145160E+03  0.41800000000E+01 0. -1.
         -5    1    1    2    0  502 -0.61023877187E+02  0.54966136597E+02 -0.32480942546E+02  0.88417610169E+02  0.41800000000E+01 0. -1.
        -11    1    3    3    0    0  0.61943899362E+02 -0.51058962315E+02  0.10741537341E+03  0.13409745242E+03  0.00000000000E+00 0. -1.
         11    1    3    3    0    0 -0.70892864469E+01 -0.44258253907E+02  0.18931919556E+01  0.44862402934E+02  0.00000000000E+00 0.  1.
</event>
<event>
 7    1  0.5831876E-006  0.2069193E+03  0.7561462E-02  0.1144029E+00
         -2   -1    0    0    0  501 -0.00000000000E+00  0.00000000000E+00  0.25506391369E+02  0.25506391369E+02  0.00000000000E+00 0.  1.
          2   -1    0    0  501    0  0.00000000000E+00 -0.00000000000E+00 -0.17440430407E+04  0.17440430407E+04  0.00000000000E+00 0. -1.
         23    2    1    2    0    0 -0.12364819177E+03 -0.12910030793E+03 -0.73594219323E+03  0.76302355773E+03  0.92942310255E+02 0.  0.
          5    1    1    2  502    0  0.74678601152E+02 -0.52350008970E+01 -0.35632377687E+03  0.36412690792E+03  0.41800000000E+01 0.  1.
         -5    1    1    2    0  502  0.48969590614E+02  0.13433530883E+03 -0.62627067919E+03  0.64239896639E+03  0.41800000000E+01 0.  1.
        -11    1    3    3    0    0 -0.91317403136E+02 -0.37569962380E+02 -0.28112348957E+03  0.29796104876E+03  0.00000000000E+00 0.  1.
         11    1    3    3    0    0 -0.32330788629E+02 -0.91530345550E+02 -0.45481870366E+03  0.46506250897E+03  0.00000000000E+00 0. -1.
</event>
<event>
 7    1  0.5831876E-006  0.2570347E+03  0.7561462E-02  0.1108938E+00
          2   -1    0    0  501    0  0.00000000000E+00  0.00000000000E+00  0.12352058141E+03  0.12352058141E+03  0.00000000000E+00 0. -1.
         -2   -1    0    0    0  501 -0.00000000000E+00 -0.00000000000E+00 -0.64400688814E+03  0.64400688814E+03  0.00000000000E+00 0.  1.
         23    2    1    2    0    0  0.21792176358E+03 -0.11282647241E+03 -0.37110005283E+03  0.45418586240E+03  0.91377461517E+02 0.  0.
          5    1    1    2  502    0 -0.43485591203E+02 -0.20262949993E+02 -0.58613593864E+02  0.75859142958E+02  0.41800000000E+01 0. -1.
         -5    1    1    2    0  502 -0.17443617238E+03  0.13308942240E+03 -0.90772660028E+02  0.23748246419E+03  0.41800000000E+01 0. -1.
        -11    1    3    3    0    0  0.71876785901E+02 -0.25306004489E+02 -0.51220879601E+02  0.91816364129E+02  0.00000000000E+00 0. -1.
         11    1    3    3    0    0  0.14604497768E+03 -0.87520467916E+02 -0.31987917323E+03  0.36236949827E+03  0.00000000000E+00 0.  1.
</event>
<event>
 7    1  0.5831876E-006  0.1803973E+03  0.7561462E-02  0.1167419E+00
          2   -1    0    0  501    0  0.00000000000E+00  0.00000000000E+00  0.23904593432E+03  0.23904593432E+03  0.00000000000E+00 0. -1.
         -2   -1    0    0    0  501 -0.00000000000E+00 -0.00000000000E+00 -0.16409239510E+03  0.16409239510E+03  0.00000000000E+00 0.  1.
         23    2    1    2    0    0 -0.40553579269E+02 -0.16040259026E+03  0.34259901542E+02  0.19176962218E+03  0.90709775564E+02 0.  0.
          5    1    1    2  502    0 -0.92917324801E+00  0.11733949167E+03  0.77818266646E+02  0.14086367414E+03  0.41800000000E+01 0. -1.
         -5    1    1    2    0  502  0.41482752517E+02  0.43063098593E+02 -0.37124628961E+02  0.70505033099E+02  0.41800000000E+01 0. -1.
        -11    1    3    3    0    0 -0.17158564990E+02  0.38020572555E+01  0.17926597556E+02  0.25104479517E+02  0.00000000000E+00 0. -1.
         11    1    3    3    0    0 -0.23395014279E+02 -0.16420464752E+03  0.16333303986E+02  0.16666514266E+03  0.00000000000E+00 0.  1.
</event>
<event>
 7    1  0.5831876E-006  0.1397228E+03  0.7561462E-02  0.1213702E+00
          2   -1    0    0  501    0  0.00000000000E+00  0.00000000000E+00  0.62127781063E+03  0.62127781063E+03  0.00000000000E+00 0. -1.
         -2   -1    0    0    0  501 -0.00000000000E+00 -0.00000000000E+00 -0.36887869883E+02  0.36887869883E+02  0.00000000000E+00 0.  1.
         23    2    1    2    0    0 -0.20998729853E+02  0.10199509995E+03  0.28055490119E+03  0.31348198215E+03  0.93359270993E+02 0.  0.
          5    1    1    2  502    0  0.50551736196E+01 -0.11709207641E+03  0.15598415591E+03  0.19515285914E+03  0.41800000000E+01 0.  1.
         -5    1    1    2    0  502  0.15943556233E+02  0.15096976458E+02  0.14785088364E+03  0.14953083922E+03  0.41800000000E+01 0.  1.
        -11    1    3    3    0    0  0.29652485526E+02  0.45554994809E+01  0.57232986385E+02  0.64619170561E+02  0.00000000000E+00 0.  1.
         11    1    3    3    0    0 -0.50651215379E+02  0.97439600466E+02  0.22332191481E+03  0.24886281159E+03  0.00000000000E+00 0. -1.
</event>
<event>
 7    1  0.5831876E-006  0.9715774E+02  0.7561462E-02  0.1286389E+00
          1   -1    0    0  501    0  0.00000000000E+00  0.00000000000E+00  0.14490768120E+03  0.14490768120E+03  0.00000000000E+00 0. -1.
         -1   -1    0    0    0  501 -0.00000000000E+00 -0.00000000000E+00 -0.95266657358E+02  0.95266657358E+02  0.00000000000E+00 0.  1.
         23    2    1    2    0    0  0.27138878532E+02  0.12400645540E+02 -0.15582859259E+02  0.95979893153E+02  0.89883366922E+02 0.  0.
          5    1    1    2  502    0 -0.13053056399E+02  0.46246997511E+02  0.68346920959E+02  0.83653697257E+02  0.41800000000E+01 0. -1.
         -5    1    1    2    0  502 -0.14085822132E+02 -0.58647643052E+02 -0.31230378597E+01  0.60540748146E+02  0.41800000000E+01 0. -1.
        -11    1    3    3    0    0  0.55559563045E+02  0.28314247237E+01 -0.29443907826E+02  0.62943035515E+02  0.00000000000E+00 0.  1.
         11    1    3    3    0    0 -0.28420684513E+02  0.95692208166E+01  0.13861048567E+02  0.33036857638E+02  0.00000000000E+00 0. -1.
</event>
<event>
 7    1  0.5831876E-006  0.1058088E+03  0.7561462E-02  0.1268534E+00
         -2   -1    0    0    0  501 -0.00000000000E+00  0.00000000000E+00  0.25345755321E+02  0.25345755321E+02  0.00000000000E+00 0.  1.
          2   -1    0    0  501    0  0.00000000000E+00 -0.00000000000E+00 -0.78218009674E+03  0.78218009674E+03  0.00000000000E+00 0. -1.
         23    2    1    2    0    0 -0.67661307554E+02 -0.32033381343E+02 -0.20461027650E+03  0.23638619248E+03  0.91699927389E+02 0.  0.
          5    1    1    2  502    0 -0.94384286885E+01  0.46093294155E+01 -0.38254701803E+03  0.38271402281E+03  0.41800000000E+01 0. -1.
         -5    1    1    2    0  502  0.77099736242E+02  0.27424051927E+02 -0.16967704689E+03  0.18842563678E+03  0.41800000000E+01 0. -1.
        -11    1    3    3    0    0 -0.51389182975E+02 -0.64254666616E+02 -0.14295873754E+03  0.16494456932E+03  0.00000000000E+00 0.  1.
         11    1    3    3    0    0 -0.16272124578E+02  0.32221285273E+02 -0.61651538957E+02  0.71441623153E+02  0.00000000000E+00 0. -1.
</event>
<event>
 7    1  0.5831876E-006  0.9710289E+02  0.7561462E-02  0.1286509E+00
          2   -1    0    0  501    0  0.00000000000E+00  0.00000000000E+00  0.58944219344E+03  0.58944219344E+03  0.00000000000E+00 0. -1.
         -2   -1    0    0    0  501 -0.00000000000E+00 -0.00000000000E+00 -0.25962625027E+02  0.25962625027E+02  0.00000000000E+00 0.  1.
         23    2    1    2    0    0  0.24449765758E+02  0.15421481129E+02  0.13108532148E+03  0.16435263996E+03  0.94830457279E+02 0.  0.
          5    1    1    2  502    0 -0.21666946214E+02  0.53750205394E+02  0.17039719410E+03  0.18003115645E+03  0.41800000000E+01 0. -1.
         -5    1    1    2    0  502 -0.27828195442E+01 -0.69171686523E+02  0.26199705283E+03  0.27102102205E+03  0.41800000000E+01 0. -1.
        -11    1    3    3    0    0  0.44359273769E+02  0.61409817774E+01  0.16569998776E+02  0.47749572626E+02  0.00000000000E+00 0.  1.
         11    1    3    3    0    0 -0.19909508011E+02  0.92804993517E+01  0.11451532270E+03  0.11660306733E+03  0.00000000000E+00 0. -1.
</event>
<event>
 7    1  0.5831876E-006  0.7761862E+02  0.7561462E-02  0.1335949E+00
          2   -1    0    0  501    0  0.00000000000E+00  0.00000000000E+00  0.48070911487E+03  0.48070911487E+03  0.00000000000E+00 0. -1.
         -2   -1    0    0    0  501 -0.00000000000E+00 -0.00000000000E+00 -0.40173202017E+02  0.40173202017E+02  0.00000000000E+00 0.  1.
         23    2    1    2    0    0 -0.61449710850E+01  0.67087206080E+02  0.99486904432E+02  0.15142415857E+03  0.92158438325E+02 0.  0.
          5    1    1    2  502    0 -0.96907827493E+01 -0.70187324763E+02  0.34508418961E+03  0.35230773785E+03  0.41800000000E+01 0.  1.
         -5    1    1    2    0  502  0.15835753834E+02  0.31001186833E+01 -0.40351811866E+01  0.17150420478E+02  0.41800000000E+01 0.  1.
        -11    1    3    3    0    0 -0.66489720658E+01  0.44029489663E+02 -0.46435989668E+01  0.44770166416E+02  0.00000000000E+00 0.  1.
         11    1    3    3    0    0  0.50400098077E+00  0.23057716417E+02  0.10413050340E+03  0.10665399215E+03  0.00000000000E+00 0. -1.
</event>
<event>
 7    1  0.5831876E-006  0.2306988E+03  0.7561462E-02  0.1126149E+00
         -2   -1    0    0    0  501 -0.00000000000E+00  0.00000000000E+00  0.14981432155E+03  0.14981432155E+03  0.00000000000E+00 0.  1.
          2   -1    0    0  501    0  0.00000000000E+00 -0.00000000000E+00 -0.38272023671E+03  0.38272023671E+03  0.00000000000E+00 0. -1.
         23    2    1    2    0    0  0.47332753366E+02  0.20506966557E+03 -0.79742742720E+02  0.24374152072E+03  0.93579199778E+02 0.  0.
          5    1    1    2  502    0  0.28124162171E+02 -0.14317404088E+03 -0.10547543028E+03  0.18008973672E+03  0.41800000000E+01 0. -1.
         -5    1    1    2    0  502 -0.75456915537E+02 -0.61895624687E+02 -0.47687742159E+02  0.10870330082E+03  0.41800000000E+01 0. -1.
        -11    1    3    3    0    0  0.31130320373E+02  0.34751687991E+02  0.13927853085E+02  0.48690468845E+02  0.00000000000E+00 0.  1.
         11    1    3    3    0    0  0.16202432993E+02  0.17031797757E+03 -0.93670595805E+02  0.19505105188E+03  0.00000000000E+00 0. -1.
</event>
<event>
 7    1  0.5831876E-006  0.1036067E+03  0.7561462E-02  0.1272889E+00
         -1   -1    0    0    0  501 -0.00000000000E+00  0.00000000000E+00  0.26641120451E+03  0.26641120451E+03  0.00000000000E+00 0.  1.
          1   -1    0    0  501    0  0.00000000000E+00 -0.00000000000E+00 -0.62438558650E+02  0.62438558650E+02  0.00000000000E+00 0. -1.
         23    2    1    2    0    0  0.51207882134E+02 -0.12314000381E+02  0.13752340567E+03  0.17772883494E+03  0.99503617342E+02 0.  0.
          5    1    1    2  502    0  0.32924212089E+02  0.40053128516E+01  0.56827870227E+02  0.65931218002E+02  0.41800000000E+01 0. -1.
         -5    1    1    2    0  502 -0.84132094223E+02  0.83086875292E+01  0.96213699629E+01  0.85189710216E+02  0.41800000000E+01 0. -1.
        -11    1    3    3    0    0  0.65002129637E+01 -0.37341586693E+02  0.84157147989E+01  0.38826165415E+02  0.00000000000E+00 0. -1.
         11    1    3    3    0    0  0.44707669170E+02  0.25027586312E+02  0.12910769087E+03  0.13890266952E+03  0.00000000000E+00 0.  1.
</event>
<event>
 7    1  0.5831876E-006  0.9094532E+02  0.7561462E-02  0.1300578E+00
         -3   -1    0    0    0  501 -0.00000000000E+00  0.00000000000E+00  0.13894361641E+03  0.13894361641E+03  0.00000000000E+00 0.  1.
          3   -1    0    0  501    0  0.00000000000E+00 -0.00000000000E+00 -0.13286134613E+03  0.13286134613E+03  0.00000000000E+00 0. -1.
         23    2    1    2    0    0 -0.50043500974E+02 -0.49720353496E+02  0.44657545151E+02  0.12310412424E+03  0.90464708720E+02 0.  0.
          5    1    1    2  502    0  0.22268773091E+02  0.54963726852E+02  0.35543345929E+02  0.69265513528E+02  0.41800000000E+01 0. -1.
         -5    1    1    2    0  502  0.27774727883E+02 -0.52433733560E+01 -0.74118620795E+02  0.79435324772E+02  0.41800000000E+01 0. -1.
        -11    1    3    3    0    0 -0.16419597379E+02 -0.57124766470E+02 -0.82222085115E+01  0.60003723511E+02  0.00000000000E+00 0. -1.
         11    1    3    3    0    0 -0.33623903595E+02  0.74044129734E+01  0.52879753663E+02  0.63100400727E+02  0.00000000000E+00 0.  1.
</event>
<event>
 7    1  0.5831876E-006  0.1007872E+03  0.7561462E-02  0.1278649E+00
          1   -1    0    0  501    0  0.00000000000E+00  0.00000000000E+00  0.88123852016E+03  0.88123852016E+03  0.00000000000E+00 0. -1.
         -1   -1    0    0    0  501 -0.00000000000E+00 -0.00000000000E+00 -0.27385231190E+02  0.27385231190E+02  0.00000000000E+00 0.  1.
         23    2    1    2    0    0 -0.49414970899E+02  0.39288923637E+02  0.12549685754E+03  0.16691262682E+03  0.90138254200E+02 0.  0.
          5    1    1    2  502    0  0.18227498802E+02  0.44775998810E+02  0.20130181501E+03  0.20706768195E+03  0.41800000000E+01 0.  1.
         -5    1    1    2    0  502  0.31187472097E+02 -0.84064922447E+02  0.52705461642E+03  0.53464344258E+03  0.41800000000E+01 0.  1.
        -11    1    3    3    0    0 -0.13945381628E+02  0.13730716159E+02 -0.11779963865E+02  0.22842368170E+02  0.00000000000E+00 0.  1.
         11    1    3    3    0    0 -0.35469589271E+02  0.25558207479E+02  0.13727682141E+03  0.14407025865E+03  0.00000000000E+00 0. -1.
</event>
<event>
 7    1  0.5831876E-006  0.1097567E+03  0.7561462E-02  0.1261021E+00
          2   -1    0    0  501    0  0.00000000000E+00  0.00000000000E+00  0.15643649868E+04  0.15643649868E+04  0.00000000000E+00 0. -1.
         -2   -1    0    0    0  501 -0.00000000000E+00 -0.00000000000E+00 -0.21002251288E+02  0.21002251288E+02  0.00000000000E+00 0.  1.
         23    2    1    2    0    0  0.73954597543E+02 -0.13707925933E+02  0.18767869382E+03  0.22184799508E+03  0.91301977406E+02 0.  0.
          5    1    1    2  502    0  0.34132225280E+02  0.56583127411E+01  0.23055370309E+03  0.23317269933E+03  0.41800000000E+01 0.  1.
         -5    1    1    2    0  502 -0.10808682282E+03  0.80496131922E+01  0.11251303386E+04  0.11303465436E+04  0.41800000000E+01 0.  1.
        -11    1    3    3    0    0  0.28143404335E+02  0.76538166536E+00  0.16731527565E+03  0.16966743495E+03  0.00000000000E+00 0. -1.
         11    1    3    3    0    0  0.45811193208E+02 -0.14473307599E+02  0.20363418161E+02  0.52180560127E+02  0.00000000000E+00 0.  1.
</event>
<event>
 7    1  0.5831876E-006  0.1723034E+03  0.7561462E-02  0.1175467E+00
         -1   -1    0    0    0  501 -0.00000000000E+00  0.00000000000E+00  0.69973238837E+02  0.69973238837E+02  0.00000000000E+00 0.  1.
          1   -1    0    0  501    0  0.00000000000E+00 -0.00000000000E+00 -0.52043175103E+03  0.52043175103E+03  0.00000000000E+00 0. -1.
         23    2    1    2    0    0  0.65865955941E+02 -0.13138505312E+03 -0.12985428982E+03  0.21619208587E+03  0.90975409169E+02 0.  0.
          5    1    1    2  502    0  0.25130076380E+02  0.72147875270E+02 -0.82682185450E+02  0.11265279773E+03  0.41800000000E+01 0.  1.
         -5    1    1    2    0  502 -0.90996032321E+02  0.59237177849E+02 -0.23792203693E+03  0.26156010627E+03  0.41800000000E+01 0.  1.
        -11    1    3    3    0    0  0.74853372146E+02 -0.89881739247E+02 -0.53065270981E+02  0.12844328459E+03  0.00000000000E+00 0.  1.
         11    1    3    3    0    0 -0.89874162044E+01 -0.41503313871E+02 -0.76789018836E+02  0.87748801280E+02  0.00000000000E+00 0. -1.
</event>
<event>
 7    1  0.5831876E-006  0.1186414E+03  0.7561462E-02  0.1245355E+00
          3   -1    0    0  501    0  0.00000000000E+00  0.00000000000E+00  0.21746147292E+03  0.21746147292E+03  0.00000000000E+00 0. -1.
         -3   -1    0    0    0  501 -0.00000000000E+00 -0.00000000000E+00 -0.12766310551E+03  0.12766310551E+03  0.00000000000E+00 0.  1.
         23    2    1    2    0    0 -0.94274000023E+01  0.87123466178E+02 -0.65087242233E+02  0.13122641160E+03  0.72833012909E+02 0.  0.
          5    1    1    2  502    0  0.55125044438E+01 -0.10503482364E+03  0.68729228641E+02  0.12571348835E+03  0.41800000000E+01 0. -1.
         -5    1    1    2    0  502  0.39148955585E+01  0.17911357467E+02  0.86156380999E+02  0.88184678490E+02  0.41800000000E+01 0.  1.
        -11    1    3    3    0    0  0.92297921553E+01 -0.10410728153E+02 -0.13228744060E+02  0.19198228911E+02  0.00000000000E+00 0. -1.
         11    1    3    3    0    0 -0.18657192158E+02  0.97534194331E+02 -0.51858498173E+02  0.11202818269E+03  0.00000000000E+00 0.  1.
</event>
<event>
 6    1  0.5831876E-006  0.1638536E+03  0.7561462E-02  0.1184414E+00
         -1   -1    0    0    0  501 -0.00000000000E+00  0.00000000000E+00  0.24066650335E+02  0.24066650335E+02  0.00000000000E+00 0.  1.
          1   -1    0    0  501    0  0.00000000000E+00 -0.00000000000E+00 -0.15079101727E+04  0.15079101727E+04  0.00000000000E+00 0. -1.
          5    1    1    2  502    0  0.31802493948E+02  0.23365056019E+02 -0.57940405197E+03  0.58076144181E+03  0.41800000000E+01 0. -1.
         -5    1    1    2    0  502  0.49491906053E+02  0.75952555063E+02 -0.21071034127E+03  0.22942223019E+03  0.41800000000E+01 0. -1.
        -11    1    1    2    0    0 -0.49755878330E+01  0.38989705474E+02 -0.18384521192E+03  0.18800004136E+03  0.00000000000E+00 0. -1.
         11    1    1    2    0    0 -0.76318812168E+02 -0.13830731656E+03 -0.50988391725E+03  0.53379310971E+03  0.00000000000E+00 0.  1.
</event>
<event>
 7    1  0.5831876E-006  0.1254877E+03  0.7561462E-02  0.1234309E+00
          1   -1    0    0  501    0  0.00000000000E+00  0.00000000000E+00  0.71855715002E+03  0.71855715002E+03  0.00000000000E+00 0. -1.
         -1   -1    0    0    0  501 -0.00000000000E+00 -0.00000000000E+00 -0.45373091952E+02  0.45373091952E+02  0.00000000000E+00 0.  1.
         23    2    1    2    0    0  0.27379578727E+02 -0.11150622243E+03  0.13249963481E+03  0.19721982900E+03  0.90311841722E+02 0.  0.
          5    1    1    2  502    0 -0.88089617365E+01  0.34884587364E+01  0.32100283953E+03  0.32116983441E+03  0.41800000000E+01 0.  1.
         -5    1    1    2    0  502 -0.18570616991E+02  0.10801776369E+03  0.21968158373E+03  0.24554057856E+03  0.41800000000E+01 0.  1.
        -11    1    3    3    0    0 -0.18829906915E+02 -0.15497808627E+02 -0.32993167532E+01  0.24609611084E+02  0.00000000000E+00 0.  1.
         11    1    3    3    0    0  0.46209485642E+02 -0.96008413803E+02  0.13579895157E+03  0.17261021792E+03  0.00000000000E+00 0. -1.
</event>
<event>
 7    1  0.5831876E-006  0.2192811E+03  0.7561462E-02  0.1134420E+00
         -2   -1    0    0    0  501 -0.00000000000E+00  0.00000000000E+00  0.14935620406E+03  0.14935620406E+03  0.00000000000E+00 0.  1.
          2   -1    0    0  501    0  0.00000000000E+00 -0.00000000000E+00 -0.39478595193E+03  0.39478595193E+03  0.00000000000E+00 0. -1.
         23    2    1    2    0    0  0.82717311765E+02 -0.67351591814E+02 -0.31557834308E+02  0.15108732343E+03  0.10224036292E+03 0.  0.
          5    1    1    2  502    0  0.98650893989E+02  0.43511356041E+02 -0.17562617427E+03  0.20612438594E+03  0.41800000000E+01 0. -1.
         -5    1    1    2    0  502 -0.18136820575E+03  0.23840235773E+02 -0.38245739293E+02  0.18693044662E+03  0.41800000000E+01 0.  1.
        -11    1    3    3    0    0  0.27909499645E+02 -0.85508246627E+02 -0.21487041975E+02  0.92478610416E+02  0.00000000000E+00 0. -1.
         11    1    3    3    0    0  0.54807812120E+02  0.18156654813E+02 -0.10070792332E+02  0.58608713018E+02  0.00000000000E+00 0.  1.
</event>
<event>
 7    1  0.5831876E-006  0.1018394E+03  0.7561462E-02  0.1276475E+00
          2   -1    0    0  501    0  0.00000000000E+00  0.00000000000E+00  0.43080914081E+03  0.43080914081E+03  0.00000000000E+00 0. -1.
         -2   -1    0    0    0  501 -0.00000000000E+00 -0.00000000000E+00 -0.29873330746E+02  0.29873330746E+02  0.00000000000E+00 0.  1.
         23    2    1    2    0    0  0.18714743012E+02  0.25939289434E+02  0.14304368712E+03  0.17227420471E+03  0.90519704171E+02 0.  0.
          5    1    1    2  502    0 -0.80181871223E+01  0.47136094409E+02  0.15078828236E+03  0.15824247602E+03  0.41800000000E+01 0.  1.
         -5    1    1    2    0  502 -0.10696555890E+02 -0.73075383843E+02  0.10710384059E+03  0.13016579083E+03  0.41800000000E+01 0.  1.
        -11    1    3    3    0    0 -0.13403600888E+02  0.43211666003E+02  0.32054283350E+02  0.55447107018E+02  0.00000000000E+00 0.  1.
         11    1    3    3    0    0  0.32118343901E+02 -0.17272376570E+02  0.11098940377E+03  0.11682709770E+03  0.00000000000E+00 0. -1.
</event>
<event>
 6    1  0.5831876E-006  0.9920796E+02  0.7561462E-02  0.1281970E+00
         -1   -1    0    0    0  501 -0.00000000000E+00  0.00000000000E+00  0.24728277344E+02  0.24728277344E+02  0.00000000000E+00 0.  1.
          1   -1    0    0  501    0  0.00000000000E+00 -0.00000000000E+00 -0.65441766620E+03  0.65441766620E+03  0.00000000000E+00 0. -1.
          5    1    1    2  502    0  0.75655281469E+02  0.54272847610E+02 -0.44377850133E+03  0.45346013524E+03  0.41800000000E+01 0. -1.
         -5    1    1    2    0  502 -0.25557500697E+02 -0.32398572245E+02 -0.13665443145E+03  0.14281022148E+03  0.41800000000E+01 0. -1.
        -11    1    1    2    0    0 -0.33981985866E+02  0.29823681331E+01 -0.38303877979E+02  0.51291879975E+02  0.00000000000E+00 0. -1.
         11    1    1    2    0    0 -0.16115794906E+02 -0.24856643498E+02 -0.10952578091E+02  0.31583706848E+02  0.00000000000E+00 0.  1.
</event>
<event>
 7    1  0.5831876E-006  0.9026190E+02  0.7561462E-02  0.1302219E+00
          3   -1    0    0  501    0  0.00000000000E+00  0.00000000000E+00  0.23861742977E+03  0.23861742977E+03  0.00000000000E+00 0. -1.
         -3   -1    0    0    0  501 -0.00000000000E+00 -0.00000000000E+00 -0.54334153084E+02  0.54334153084E+02  0.00000000000E+00 0.  1.
         23    2    1    2    0    0  0.33885442715E+02  0.39313803921E+01  0.99779925301E+02  0.13775180123E+03  0.88633211997E+02 0.  0.
          5    1    1    2  502    0 -0.69217557518E+02  0.14319197385E+02  0.90348230353E+02  0.11478843500E+03  0.41800000000E+01 0. -1.
         -5    1    1    2    0  502  0.35332114802E+02 -0.18250577777E+02 -0.58448789685E+01  0.40411346621E+02  0.41800000000E+01 0.  1.
        -11    1    3    3    0    0  0.35528465493E+02 -0.23275826649E+02  0.96035427918E+01  0.43546113496E+02  0.00000000000E+00 0. -1.
         11    1    3    3    0    0 -0.16430227773E+01  0.27207207041E+02  0.90176382509E+02  0.94205687733E+02  0.00000000000E+00 0.  1.
</event>
<event>
 7    1  0.5831876E-006  0.9147135E+02  0.7561462E-02  0.1299327E+00
         -2   -1    0    0    0  501 -0.00000000000E+00  0.00000000000E+00  0.16607118289E+03  0.16607118289E+03  0.00000000000E+00 0. -1.
          2   -1    0    0  501    0  0.00000000000E+00 -0.00000000000E+00 -0.14185132624E+03  0.14185132624E+03  0.00000000000E+00 0.  1.
         23    2    1    2    0    0  0.19647968566E+02  0.64926922091E+01  0.11774911263E+03  0.15036997283E+03  0.91203494907E+02 0.  0.
          5    1    1    2  502    0  0.19598165092E+01  0.52631049524E+02 -0.11501653023E+02  0.54070589760E+02  0.41800000000E+01 0. -1.
         -5    1    1    2    0  502 -0.21607785075E+02 -0.59123741733E+02 -0.82027602957E+02  0.10348194654E+03  0.41800000000E+01 0. -1.
        -11    1    3    3    0    0 -0.26777905823E+00 -0.27566511804E+02  0.10552280707E+03  0.10906441716E+03  0.00000000000E+00 0. -1.
         11    1    3    3    0    0  0.19915747624E+02  0.34059204013E+02  0.12226305556E+02  0.41305555667E+02  0.00000000000E+00 0.  1.
</event>
<event>
 7    1  0.5831876E-006  0.8038096E+02  0.7561462E-02  0.1327974E+00
         -3   -1    0    0    0  501 -0.00000000000E+00  0.00000000000E+00  0.10580523830E+03  0.10580523830E+03  0.00000000000E+00 0.  1.
          3   -1    0    0  501    0  0.00000000000E+00 -0.00000000000E+00 -0.22700560528E+03  0.22700560528E+03  0.00000000000E+00 0. -1.
         23    2    1    2    0    0  0.62385056780E+02  0.21387403605E+02  0.38015420866E+02  0.11986418667E+03  0.92590143538E+02 0.  0.
          5    1    1    2  502    0 -0.48694086056E+02 -0.19503898728E+02 -0.18005930574E+03  0.18759089015E+03  0.41800000000E+01 0. -1.
         -5    1    1    2    0  502 -0.13690970724E+02 -0.18835048767E+01  0.20843517889E+02  0.25355766760E+02  0.41800000000E+01 0. -1.
        -11    1    3    3    0    0  0.76594413996E+02  0.14675384453E+02 -0.79628006757E+00  0.77991699726E+02  0.00000000000E+00 0. -1.
         11    1    3    3    0    0 -0.14209357216E+02  0.67120191518E+01  0.38811700933E+02  0.41872486945E+02  0.00000000000E+00 0.  1.
</event>
<event>
 7    1  0.5831876E-006  0.2178593E+03  0.7561462E-02  0.1135489E+00
         -2   -1    0    0    0  501 -0.00000000000E+00  0.00000000000E+00  0.72322514134E+02  0.72322514134E+02  0.00000000000E+00 0.  1.
          2   -1    0    0  501    0  0.00000000000E+00 -0.00000000000E+00 -0.10600633217E+04  0.10600633217E+04  0.00000000000E+00 0. -1.
         23    2    1    2    0    0  0.15839832622E+03 -0.12986009768E+03 -0.19113514628E+03  0.29383883066E+03  0.88628096790E+02 0.  0.
          5    1    1    2  502    0 -0.14064140586E+03  0.14442404353E+03 -0.78844470509E+03  0.81381867438E+03  0.41800000000E+01 0. -1.
         -5    1    1    2    0  502 -0.17756920359E+02 -0.14563945852E+02 -0.81609562441E+01  0.24728330842E+02  0.41800000000E+01 0.  1.
        -11    1    3    3    0    0  0.84951517925E+02 -0.10062993059E+03 -0.16384710849E+03  0.21021184146E+03  0.00000000000E+00 0.  1.
         11    1    3    3    0    0  0.73446808293E+02 -0.29230167088E+02 -0.27288037795E+02  0.83626989203E+02  0.00000000000E+00 0. -1.
</event>
<event>
 7    1  0.5831876E-006  0.1074168E+03  0.7561462E-02  0.1265430E+00
          1   -1    0    0  501    0  0.00000000000E+00  0.00000000000E+00  0.24580155156E+03  0.24580155156E+03  0.00000000000E+00 0. -1.
         -1   -1    0    0    0  501 -0.00000000000E+00 -0.00000000000E+00 -0.77261169860E+02  0.77261169860E+02  0.00000000000E+00 0.  1.
         23    2    1    2    0    0  0.38534001962E+02 -0.19688094070E+02 -0.13515094351E+02  0.10252716235E+03  0.91960159246E+02 0.  0.
          5    1    1    2  502    0 -0.41748393576E+02  0.65212012474E+02  0.12812465586E+03  0.14976292858E+03  0.41800000000E+01 0. -1.
         -5    1    1    2    0  502  0.32143916143E+01 -0.45523918405E+02  0.53930820187E+02  0.70772630490E+02  0.41800000000E+01 0.  1.
        -11    1    3    3    0    0 -0.20084612461E+02 -0.25608197056E+02 -0.26767014969E+02  0.42138397033E+02  0.00000000000E+00 0. -1.
         11    1    3    3    0    0  0.58618614423E+02  0.59201029862E+01  0.13251920618E+02  0.60388765315E+02  0.00000000000E+00 0.  1.
</event>
<event>
 7    1  0.5831876E-006  0.8982357E+02  0.7561462E-02  0.1303280E+00
         -1   -1    0    0    0  501 -0.00000000000E+00  0.00000000000E+00  0.16462268869E+03  0.16462268869E+03  0.00000000000E+00 0.  1.
          1   -1    0    0  501    0  0.00000000000E+00 -0.00000000000E+00 -0.86920849679E+02  0.86920849679E+02  0.00000000000E+00 0. -1.
         23    2    1    2    0    0  0.34220754699E+02  0.13219294854E+02  0.70695542977E+02  0.12098620199E+03  0.91071353708E+02 0.  0.
          5    1    1    2  502    0  0.91019130017E+01  0.28727012844E+02 -0.42609222420E+02  0.52355556749E+02  0.41800000000E+01 0. -1.
         -5    1    1    2    0  502 -0.43322667700E+02 -0.41946307698E+02  0.49615518452E+02  0.78201779631E+02  0.41800000000E+01 0. -1.
        -11    1    3    3    0    0 -0.80203988028E+01  0.38648914378E+02  0.57853276336E+02  0.70036183237E+02  0.00000000000E+00 0.  1.
         11    1    3    3    0    0  0.42241153501E+02 -0.25429619525E+02  0.12842266641E+02  0.50950018752E+02  0.00000000000E+00 0. -1.
</event>
<event>
 7    1  0.5831876E-006  0.8981590E+02  0.7561462E-02  0.1303298E+00
         -2   -1    0    0    0  501 -0.00000000000E+00  0.00000000000E+00  0.56301013285E+02  0.56301013285E+02  0.00000000000E+00 0. -1.
          2   -1    0    0  501    0  0.00000000000E+00 -0.00000000000E+00 -0.26154005724E+03  0.26154005724E+03  0.00000000000E+00 0.  1.
         23    2    1    2    0    0 -0.28207477915E+02 -0.29440927025E+02 -0.42378967130E+02  0.10847704746E+03  0.91152964709E+02 0.  0.
          5    1    1    2  502    0 -0.22677599440E+02  0.78380841978E+01 -0.15063786120E+03  0.15259405856E+03  0.41800000000E+01 0.  1.
         -5    1    1    2    0  502  0.50885077355E+02  0.21602842827E+02 -0.12222215621E+02  0.56769964508E+02  0.41800000000E+01 0.  1.
        -11    1    3    3    0    0 -0.40131164096E+02 -0.57057437165E+02 -0.30566450023E+02  0.76160155821E+02  0.00000000000E+00 0. -1.
         11    1    3    3    0    0  0.11923686181E+02  0.27616510141E+02 -0.11812517107E+02  0.32316891634E+02  0.00000000000E+00 0.  1.
</event>
<event>
 7    1  0.5831876E-006  0.1112542E+03  0.7561462E-02  0.1258265E+00
         -1   -1    0    0    0  501 -0.00000000000E+00  0.00000000000E+00  0.27450181529E+02  0.27450181529E+02  0.00000000000E+00 0.  1.
          1   -1    0    0  501    0  0.00000000000E+00 -0.00000000000E+00 -0.94555649062E+03  0.94555649062E+03  0.00000000000E+00 0. -1.
         23    2    1    2    0    0 -0.78802930822E+02 -0.51958240074E+02 -0.22831408605E+03  0.26563769974E+03  0.97603816591E+02 0.  0.
          5    1    1    2  502    0  0.46835741383E+02  0.11109711563E+02 -0.68080255476E+02  0.83482968009E+02  0.41800000000E+01 0. -1.
         -5    1    1    2    0  502  0.31967189439E+02  0.40848528511E+02 -0.62171196756E+03  0.62388600440E+03  0.41800000000E+01 0. -1.
        -11    1    3    3    0    0 -0.47504435153E+02 -0.71067699047E+02 -0.96963278083E+02  0.12926394123E+03  0.00000000000E+00 0.  1.
         11    1    3    3    0    0 -0.31298495669E+02  0.19109458973E+02 -0.13135080797E+03  0.13637375850E+03  0.00000000000E+00 0. -1.
</event>
<event>
 7    1  0.5831876E-006  0.1405879E+03  0.7561462E-02  0.1212540E+00
          2   -1    0    0  501    0  0.00000000000E+00  0.00000000000E+00  0.23792087503E+03  0.23792087503E+03  0.00000000000E+00 0. -1.
         -2   -1    0    0    0  501 -0.00000000000E+00 -0.00000000000E+00 -0.85704859132E+02  0.85704859132E+02  0.00000000000E+00 0.  1.
         23    2    1    2    0    0  0.78253500958E+02  0.45300641230E+02  0.42881212773E+02  0.13447640318E+03  0.89829539109E+02 0.  0.
          5    1    1    2  502    0 -0.13541219646E+02  0.42537868619E+02  0.37540420775E+02  0.58477264712E+02  0.41800000000E+01 0. -1.
         -5    1    1    2    0  502 -0.64712281312E+02 -0.87838509849E+02  0.71794382349E+02  0.13067206626E+03  0.41800000000E+01 0. -1.
        -11    1    3    3    0    0  0.83376399183E+02  0.18410581476E+01  0.23717259986E+02  0.86703643851E+02  0.00000000000E+00 0.  1.
         11    1    3    3    0    0 -0.51228982251E+01  0.43459583082E+02  0.19163952786E+02  0.47772759333E+02  0.00000000000E+00 0. -1.
</event>
<event>
 7    1  0.5831876E-006  0.8154738E+02  0.7561462E-02  0.1324717E+00
         -1   -1    0    0    0  501 -0.00000000000E+00  0.00000000000E+00  0.16648609471E+03  0.16648609471E+03  0.00000000000E+00 0.  1.
          1   -1    0    0  501    0  0.00000000000E+00 -0.00000000000E+00 -0.71986551102E+02  0.71986551102E+02  0.00000000000E+00 0. -1.
         23    2    1    2    0    0 -0.30479894233E+01 -0.16735294476E+02  0.36849701306E+02  0.99692315986E+02  0.91056559674E+02 0.  0.
          5    1    1    2  502    0 -0.37985802875E+02  0.33964275214E+01  0.80938672246E+02  0.89571189592E+02  0.41800000000E+01 0. -1.
         -5    1    1    2    0  502  0.41033792298E+02  0.13338866955E+02 -0.23288829947E+02  0.49209140231E+02  0.41800000000E+01 0. -1.
        -11    1    3    3    0    0 -0.40908629443E+02 -0.26873658682E+01 -0.52784281768E+01  0.41335211409E+02  0.00000000000E+00 0. -1.
         11    1    3    3    0    0  0.37860640020E+02 -0.14047928608E+02  0.42128129483E+02  0.58357104577E+02  0.00000000000E+00 0.  1.
</event>
<event>
 7    1  0.5831876E-006  0.1241179E+03  0.7561462E-02  0.1236454E+00
         -2   -1    0    0    0  501 -0.00000000000E+00  0.00000000000E+00  0.21189342725E+02  0.21189342725E+02  0.00000000000E+00 0.  1.
          2   -1    0    0  501    0  0.00000000000E+00 -0.00000000000E+00 -0.81233802564E+03  0.81233802564E+03  0.00000000000E+00 0. -1.
         23    2    1    2    0    0 -0.47700125721E+02  0.42054469239E+02 -0.23816191218E+03  0.26301365977E+03  0.91712640559E+02 0.  0.
          5    1    1    2  502    0  0.79631879583E+02  0.47206774105E+01 -0.25699837263E+03  0.26912665601E+03  0.41800000000E+01 0. -1.
         -5    1    1    2    0  502 -0.31931753862E+02 -0.46775146649E+02 -0.29598839811E+03  0.30138705258E+03  0.41800000000E+01 0. -1.
        -11    1    3    3    0    0 -0.56459750740E+02  0.65536418699E+02 -0.18178833787E+03  0.20131995782E+03  0.00000000000E+00 0.  1.
         11    1    3    3    0    0  0.87596250191E+01 -0.23481949460E+02 -0.56373574309E+02  0.61693701958E+02  0.00000000000E+00 0. -1.
</event>
<event>
 7    1  0.5831876E-006  0.1233089E+03  0.7561462E-02  0.1237736E+00
          1   -1    0    0  501    0  0.00000000000E+00  0.00000000000E+00  0.92602312342E+03  0.92602312342E+03  0.00000000000E+00 0. -1.
         -1   -1    0    0    0  501 -0.00000000000E+00 -0.00000000000E+00 -0.32521913828E+02  0.32521913828E+02  0.00000000000E+00 0.  1.
         23    2    1    2    0    0  0.58008788116E+02 -0.64026227347E+01  0.87945487050E+02  0.13943693741E+03  0.91116616183E+02 0.  0.
          5    1    1    2  502    0  0.42624640440E+02  0.49371852428E+01  0.34382230593E+03  0.34651477058E+03  0.41800000000E+01 0. -1.
         -5    1    1    2    0  502 -0.10063342856E+03  0.14654374918E+01  0.46173341662E+03  0.47259332927E+03  0.41800000000E+01 0.  1.
        -11    1    3    3    0    0  0.17805767069E+02  0.38551846047E+02  0.58595669800E+02  0.72365341800E+02  0.00000000000E+00 0. -1.
         11    1    3    3    0    0  0.40203021047E+02 -0.44954468781E+02  0.29349817250E+02  0.67071595607E+02  0.00000000000E+00 0.  1.
</event>
<event>
 7    1  0.5831876E-006  0.1641862E+03  0.7561462E-02  0.1184050E+00
         -2   -1    0    0    0  501 -0.00000000000E+00  0.00000000000E+00  0.31815006016E+02  0.31815006016E+02  0.00000000000E+00 0.  1.
          2   -1    0    0  501    0  0.00000000000E+00 -0.00000000000E+00 -0.11229307348E+04  0.11229307348E+04  0.00000000000E+00 0. -1.
         23    2    1    2    0    0 -0.49912374731E+02  0.29443658626E+02 -0.21535867640E+03  0.24181081795E+03  0.93460890175E+02 0.  0.
          5    1    1    2  502    0  0.64793849369E+02  0.98831281608E+02 -0.54837260323E+03  0.56097758379E+03  0.41800000000E+01 0. -1.
         -5    1    1    2    0  502 -0.14881474639E+02 -0.12827494023E+03 -0.32738444911E+03  0.35195733904E+03  0.41800000000E+01 0.  1.
        -11    1    3    3    0    0  0.12724664983E+02  0.54588955460E+01  0.23145896270E+01  0.14038303482E+02  0.00000000000E+00 0.  1.
         11    1    3    3    0    0 -0.62637039714E+02  0.23984763080E+02 -0.21767326603E+03  0.22777251447E+03  0.00000000000E+00 0. -1.
</event>
<event>
 7    1  0.5831876E-006  0.1497808E+03  0.7561462E-02  0.1200743E+00
         -2   -1    0    0    0  501 -0.00000000000E+00  0.00000000000E+00  0.86521885063E+03  0.86521885063E+03  0.00000000000E+00 0.  1.
          2   -1    0    0  501    0  0.00000000000E+00 -0.00000000000E+00 -0.34145837802E+02  0.34145837802E+02  0.00000000000E+00 0. -1.
         23    2    1    2    0    0  0.13006722333E+03  0.30056540714E+02  0.41693964533E+03  0.44662321214E+03  0.88389747971E+02 0.  0.
          5    1    1    2  502    0 -0.12037291090E+03 -0.59344281849E+02  0.23272877781E+03  0.26868483003E+03  0.41800000000E+01 0.  1.
         -5    1    1    2    0  502 -0.96943124303E+01  0.29287741135E+02  0.18140458970E+03  0.18405664627E+03  0.41800000000E+01 0.  1.
        -11    1    3    3    0    0  0.47935904359E+02  0.45227956925E+01  0.48742097274E+02  0.68513492497E+02  0.00000000000E+00 0.  1.
         11    1    3    3    0    0  0.82131318975E+02  0.25533745021E+02  0.36819754806E+03  0.37810971964E+03  0.00000000000E+00 0. -1.
</event>
<event>
 7    1  0.5831876E-006  0.9379914E+02  0.7561462E-02  0.1293904E+00
         -1   -1    0    0    0  501 -0.00000000000E+00  0.00000000000E+00  0.17239751023E+02  0.17239751023E+02  0.00000000000E+00 0.  1.
          1   -1    0    0  501    0  0.00000000000E+00 -0.00000000000E+00 -0.90351742114E+03  0.90351742114E+03  0.00000000000E+00 0. -1.
         23    2    1    2    0    0 -0.32321384081E+02  0.43150315140E+02 -0.22344927036E+03  0.24407720115E+03  0.82082166931E+02 0.  0.
          5    1    1    2  502    0 -0.13852157291E+02 -0.75339960537E+02 -0.45010914300E+03  0.45660015871E+03  0.41800000000E+01 0.  1.
         -5    1    1    2    0  502  0.46173541372E+02  0.32189645397E+02 -0.21271925675E+03  0.22007981231E+03  0.41800000000E+01 0.  1.
        -11    1    3    3    0    0 -0.28441697389E+02  0.32953263772E+02 -0.22810053447E+03  0.23221692783E+03  0.00000000000E+00 0. -1.
         11    1    3    3    0    0 -0.38796866921E+01  0.10197051368E+02  0.46512641073E+01  0.11860273320E+02  0.00000000000E+00 0.  1.
</event>
<event>
 7    1  0.5831876E-006  0.1641756E+03  0.7561462E-02  0.1184062E+00
         -1   -1    0    0    0  501 -0.00000000000E+00  0.00000000000E+00  0.11231648349E+03  0.11231648349E+03  0.00000000000E+00 0.  1.
          1   -1    0    0  501    0  0.00000000000E+00 -0.00000000000E+00 -0.41925669832E+03  0.41925669832E+03  0.00000000000E+00 0. -1.
         23    2    1    2    0    0 -0.33994549363E+02  0.73260857007E+01  0.36243352766E+02  0.11272146372E+03  0.10091207483E+03 0.  0.
          5    1    1    2  502    0  0.70250372478E+02 -0.10219861927E+03 -0.25776631874E+03  0.28607799652E+03  0.41800000000E+01 0. -1.
         -5    1    1    2    0  502 -0.36255823115E+02  0.94872533569E+02 -0.85417248858E+02  0.13277372156E+03  0.41800000000E+01 0.  1.
        -11    1    3    3    0    0 -0.62695545918E+02  0.26535344356E+02  0.88747366872E+01  0.68655785840E+02  0.00000000000E+00 0.  1.
         11    1    3    3    0    0  0.28700996555E+02 -0.19209258655E+02  0.27368616079E+02  0.44065677884E+02  0.00000000000E+00 0. -1.
</event>
<event>
 7    1  0.5831876E-006  0.5750553E+02  0.7561462E-02  0.1408608E+00
          2   -1    0    0  501    0  0.00000000000E+00  0.00000000000E+00  0.37469491348E+03  0.37469491348E+03  0.00000000000E+00 0. -1.
         -2   -1    0    0    0  501 -0.00000000000E+00 -0.00000000000E+00 -0.33644148141E+02  0.33644148141E+02  0.00000000000E+00 0.  1.
         23    2    1    2    0    0 -0.38306107258E+01 -0.28389027964E+02  0.15605313286E+03  0.18318984338E+03  0.91571436348E+02 0.  0.
          5    1    1    2  502    0  0.48974625114E+01  0.26026487708E+02 -0.11079658155E+02  0.29010246919E+02  0.41800000000E+01 0.  1.
         -5    1    1    2    0  502 -0.10668517856E+01  0.23625402559E+01  0.19607729063E+03  0.19613897132E+03  0.41800000000E+01 0.  1.
        -11    1    3    3    0    0 -0.29287738716E+02  0.15053141917E+02  0.21000542665E+02  0.39056260867E+02  0.00000000000E+00 0.  1.
         11    1    3    3    0    0  0.25457127990E+02 -0.43442169881E+02  0.13505259020E+03  0.14413358252E+03  0.00000000000E+00 0. -1.
</event>
<event>
 7    1  0.5831876E-006  0.9954709E+02  0.7561462E-02  0.1281251E+00
          3   -1    0    0  501    0  0.00000000000E+00  0.00000000000E+00  0.30175884407E+03  0.30175884407E+03  0.00000000000E+00 0. -1.
         -3   -1    0    0    0  501 -0.00000000000E+00 -0.00000000000E+00 -0.41896366529E+02  0.41896366529E+02  0.00000000000E+00 0.  1.
         23    2    1    2    0    0  0.23216502399E+02  0.10654506909E+01  0.93034245399E+02  0.13383258636E+03  0.93357641287E+02 0.  0.
          5    1    1    2  502    0  0.36901750720E+02 -0.25898797403E+02  0.12354633183E+03  0.13158136427E+03  0.41800000000E+01 0.  1.
         -5    1    1    2    0  502 -0.60118253120E+02  0.24833346712E+02  0.43281900306E+02  0.78241259966E+02  0.41800000000E+01 0.  1.
        -11    1    3    3    0    0  0.15435809099E+02  0.43156554924E+02  0.73870096999E+02  0.86934134067E+02  0.00000000000E+00 0. -1.
         11    1    3    3    0    0  0.77806933002E+01 -0.42091104233E+02  0.19164148400E+02  0.46898452295E+02  0.00000000000E+00 0.  1.
</event>
<event>
 7    1  0.5831876E-006  0.9710316E+02  0.7561462E-02  0.1286508E+00
          1   -1    0    0  501    0  0.00000000000E+00  0.00000000000E+00  0.77936213954E+03  0.77936213954E+03  0.00000000000E+00 0. -1.
         -1   -1    0    0    0  501 -0.00000000000E+00 -0.00000000000E+00 -0.25141215410E+02  0.25141215410E+02  0.00000000000E+00 0.  1.
         23    2    1    2    0    0 -0.94276707030E+01  0.10022613653E+02  0.10993706630E+03  0.14474800365E+03  0.93147690542E+02 0.  0.
          5    1    1    2  502    0  0.36777571797E+02  0.52175262167E+02  0.43499725527E+03  0.43967594005E+03  0.41800000000E+01 0. -1.
         -5    1    1    2    0  502 -0.27349901094E+02 -0.62197875820E+02  0.20928660255E+03  0.22007941124E+03  0.41800000000E+01 0.  1.
        -11    1    3    3    0    0 -0.28420402230E+02 -0.13882280017E+02  0.10345415031E+01  0.31646599146E+02  0.00000000000E+00 0.  1.
         11    1    3    3    0    0  0.18992731527E+02  0.23904893670E+02  0.10890252480E+03  0.11310140450E+03  0.00000000000E+00 0. -1.
</event>
<event>
 7    1  0.5831876E-006  0.1437939E+03  0.7561462E-02  0.1208313E+00
         -1   -1    0    0    0  501 -0.00000000000E+00  0.00000000000E+00  0.19472066156E+02  0.19472066156E+02  0.00000000000E+00 0.  1.
          1   -1    0    0  501    0  0.00000000000E+00 -0.00000000000E+00 -0.11860482124E+04  0.11860482124E+04  0.00000000000E+00 0. -1.
         23    2    1    2    0    0 -0.98992846168E+02 -0.29646198258E+02 -0.44765127907E+03  0.46851348000E+03  0.91840800464E+02 0.  0.
          5    1    1    2  502    0  0.12323493111E+03  0.38112743411E+02 -0.49394554649E+03  0.51052826049E+03  0.41800000000E+01 0.  1.
         -5    1    1    2    0  502 -0.24242084943E+02 -0.84665451532E+01 -0.22497932071E+03  0.22647853809E+03  0.41800000000E+01 0.  1.
        -11    1    3    3    0    0 -0.43516069940E+01  0.23546232756E+02 -0.39688416965E+02  0.46352259940E+02  0.00000000000E+00 0.  1.
         11    1    3    3    0    0 -0.94641239174E+02 -0.53192431014E+02 -0.40796286210E+03  0.42216122006E+03  0.00000000000E+00 0. -1.
</event>
<event>
 7    1  0.5831876E-006  0.1008639E+03  0.7561462E-02  0.1278490E+00
         -2   -1    0    0    0  501 -0.00000000000E+00  0.00000000000E+00  0.26244592472E+02  0.26244592472E+02  0.00000000000E+00 0.  1.
          2   -1    0    0  501    0  0.00000000000E+00 -0.00000000000E+00 -0.52480114673E+03  0.52480114673E+03  0.00000000000E+00 0. -1.
         23    2    1    2    0    0  0.10489043098E+02  0.84752317320E+01 -0.11805275383E+03  0.15027023487E+03  0.91993702094E+02 0.  0.
          5    1    1    2  502    0 -0.46129074039E+02  0.39898220103E+02 -0.24458930380E+03  0.25211338595E+03  0.41800000000E+01 0. -1.
         -5    1    1    2    0  502  0.35640030941E+02 -0.48373451835E+02 -0.13591449663E+03  0.14866211838E+03  0.41800000000E+01 0. -1.
        -11    1    3    3    0    0  0.26798214713E+02  0.38080376728E+02 -0.28603987184E+02  0.54648398754E+02  0.00000000000E+00 0.  1.
         11    1    3    3    0    0 -0.16309171615E+02 -0.29605144996E+02 -0.89448766642E+02  0.95621836120E+02  0.00000000000E+00 0. -1.
</event>
<event>
 7    1  0.5831876E-006  0.1353802E+03  0.7561462E-02  0.1219684E+00
         -2   -1    0    0    0  501 -0.00000000000E+00  0.00000000000E+00  0.37940900814E+02  0.37940900814E+02  0.00000000000E+00 0. -1.
          2   -1    0    0  501    0  0.00000000000E+00 -0.00000000000E+00 -0.64174256659E+03  0.64174256659E+03  0.00000000000E+00 0.  1.
         23    2    1    2    0    0 -0.10340690869E+03 -0.42449107850E+02 -0.28915047042E+03  0.32310571737E+03  0.91073566614E+02 0.  0.
          5    1    1    2  502    0 -0.16562724879E+02 -0.17335833289E+02 -0.10439429024E+03  0.10719372745E+03  0.41800000000E+01 0.  1.
         -5    1    1    2    0  502  0.11996963357E+03  0.59784941139E+02 -0.21025690512E+03  0.24938402258E+03  0.41800000000E+01 0.  1.
        -11    1    3    3    0    0 -0.46189675642E+02 -0.13100758442E+02 -0.31195284269E+02  0.57256106821E+02  0.00000000000E+00 0. -1.
         11    1    3    3    0    0 -0.57217233045E+02 -0.29348349408E+02 -0.25795518615E+03  0.26584961055E+03  0.00000000000E+00 0.  1.
</event>
<event>
 7    1  0.5831876E-006  0.1166667E+03  0.7561462E-02  0.1248700E+00
         -4   -1    0    0    0  501 -0.00000000000E+00  0.00000000000E+00  0.18997658453E+03  0.18997658453E+03  0.00000000000E+00 0.  1.
          4   -1    0    0  501    0  0.00000000000E+00 -0.00000000000E+00 -0.12544368008E+03  0.12544368008E+03  0.00000000000E+00 0. -1.
         23    2    1    2    0    0  0.61187671026E+02 -0.49210734808E+02  0.10784153608E+03  0.16151909965E+03  0.91065883526E+02 0.  0.
          5    1    1    2  502    0 -0.90955970511E+02  0.41082668178E+02 -0.62013714356E+02  0.11757528382E+03  0.41800000000E+01 0. -1.
         -5    1    1    2    0  502  0.29768299485E+02  0.81280666301E+01  0.18705082719E+02  0.36325881144E+02  0.41800000000E+01 0. -1.
        -11    1    3    3    0    0  0.75126368559E+02 -0.45677629707E+02  0.11555518607E+03  0.14520130211E+03  0.00000000000E+00 0.  1.
         11    1    3    3    0    0 -0.13938697534E+02 -0.35331051011E+01 -0.77136499813E+01  0.16317797542E+02  0.00000000000E+00 0. -1.
</event>
<event>
 7    1  0.5831876E-006  0.1503066E+03  0.7561462E-02  0.1200097E+00
         -2   -1    0    0    0  501 -0.00000000000E+00  0.00000000000E+00  0.34528426311E+02  0.34528426311E+02  0.00000000000E+00 0. -1.
          2   -1    0    0  501    0  0.00000000000E+00 -0.00000000000E+00 -0.65830167884E+03  0.65830167884E+03  0.00000000000E+00 0.  1.
         23    2    1    2    0    0  0.76914085614E+02  0.69509590239E+02 -0.29490470471E+03  0.32602050548E+03  0.92591713640E+02 0.  0.
          5    1    1    2  502    0  0.33012150270E+02 -0.29807676770E+02 -0.10833859653E+03  0.11718798385E+03  0.41800000000E+01 0.  1.
         -5    1    1    2    0  502 -0.10992623588E+03 -0.39701913469E+02 -0.22052995129E+03  0.24962161582E+03  0.41800000000E+01 0.  1.
        -11    1    3    3    0    0  0.10099488629E+02 -0.22857245460E+02 -0.54553878251E+02  0.60004824579E+02  0.00000000000E+00 0.  1.
         11    1    3    3    0    0  0.66814596985E+02  0.92366835699E+02 -0.24035082646E+03  0.26601568090E+03  0.00000000000E+00 0. -1.
</event>
<event>
 7    1  0.5831876E-006  0.1511121E+03  0.7561462E-02  0.1199113E+00
          2   -1    0    0  501    0  0.00000000000E+00  0.00000000000E+00  0.37298828572E+03  0.37298828572E+03  0.00000000000E+00 0. -1.
         -2   -1    0    0    0  501 -0.00000000000E+00 -0.00000000000E+00 -0.22190493010E+03  0.22190493010E+03  0.00000000000E+00 0.  1.
         23    2    1    2    0    0 -0.55880154568E+02  0.75712052051E+02 -0.13237760531E+03  0.19207670478E+03  0.10254132645E+03 0.  0.
          5    1    1    2  502    0 -0.30784336227E+02 -0.69441781913E+02  0.30404927494E+03  0.31342187292E+03  0.41800000000E+01 0. -1.
         -5    1    1    2    0  502  0.86664490795E+02 -0.62702701385E+01 -0.20588314006E+02  0.89394638128E+02  0.41800000000E+01 0.  1.
        -11    1    3    3    0    0  0.29312683629E+02  0.32033488142E+02 -0.39938699640E+02  0.58995571978E+02  0.00000000000E+00 0. -1.
         11    1    3    3    0    0 -0.85192838198E+02  0.43678563909E+02 -0.92438905669E+02  0.13308113280E+03  0.00000000000E+00 0.  1.
</event>
<event>
 7    1  0.5831876E-006  0.1358884E+03  0.7561462E-02  0.1218971E+00
         -1   -1    0    0    0  501 -0.00000000000E+00  0.00000000000E+00  0.29224585960E+02  0.29224585960E+02  0.00000000000E+00 0.  1.
          1   -1    0    0  501    0  0.00000000000E+00 -0.00000000000E+00 -0.88450525904E+03  0.88450525904E+03  0.00000000000E+00 0. -1.
         23    2    1    2    0    0 -0.10853008196E+03  0.85723207051E+01 -0.26448220715E+03  0.30009901259E+03  0.90864272884E+02 0.  0.
          5    1    1    2  502    0  0.50356762654E+02 -0.63883403915E+02 -0.23028502572E+03  0.24426534407E+03  0.41800000000E+01 0. -1.
         -5    1    1    2    0  502  0.58173319310E+02  0.55311083210E+02 -0.36051344021E+03  0.36936548835E+03  0.41800000000E+01 0. -1.
        -11    1    3    3    0    0 -0.74858437524E+02  0.13016569824E+02 -0.25313093881E+03  0.26428864702E+03  0.00000000000E+00 0. -1.
         11    1    3    3    0    0 -0.33671644440E+02 -0.44442491192E+01 -0.11351268333E+02  0.35810365571E+02  0.00000000000E+00 0.  1.
</event>
<event>
 7    1  0.5831876E-006  0.1154570E+03  0.7561462E-02  0.1250785E+00
         -2   -1    0    0    0  501 -0.00000000000E+00  0.00000000000E+00  0.29137302109E+03  0.29137302109E+03  0.00000000000E+00 0. -1.
          2   -1    0    0  501    0  0.00000000000E+00 -0.00000000000E+00 -0.50865688897E+02  0.50865688897E+02  0.00000000000E+00 0.  1.
         23    2    1    2    0    0  0.73191857936E+01 -0.49512531173E+02  0.14111471772E+03  0.17481225989E+03  0.90226944027E+02 0.  0.
          5    1    1    2  502    0  0.19821135340E+02 -0.37410747015E+02  0.22260567319E+02  0.48015066966E+02  0.41800000000E+01 0.  1.
         -5    1    1    2    0  502 -0.27140321133E+02  0.86923278188E+02  0.77132047157E+02  0.11941138313E+03  0.41800000000E+01 0.  1.
        -11    1    3    3    0    0 -0.52845844003E+01  0.23007254339E+02  0.12720604709E+02  0.26815562061E+02  0.00000000000E+00 0.  1.
         11    1    3    3    0    0  0.12603770194E+02 -0.72519785512E+02  0.12839411301E+03  0.14799669783E+03  0.00000000000E+00 0. -1.
</event>
<event>
 7    1  0.5831876E-006  0.1774409E+03  0.7561462E-02  0.1170303E+00
         -2   -1    0    0    0  501 -0.00000000000E+00  0.00000000000E+00  0.10434433389E+03  0.10434433389E+03  0.00000000000E+00 0.  1.
          2   -1    0    0  501    0  0.00000000000E+00 -0.00000000000E+00 -0.37115623629E+03  0.37115623629E+03  0.00000000000E+00 0. -1.
         23    2    1    2    0    0  0.33684941653E+02  0.14928465248E+03 -0.55078026020E+02  0.18584685383E+03  0.89915968374E+02 0.  0.
          5    1    1    2  502    0 -0.74667271483E+02 -0.97521095873E+02 -0.94441010358E+02  0.15499078169E+03  0.41800000000E+01 0.  1.
         -5    1    1    2    0  502  0.40982329830E+02 -0.51763556607E+02 -0.11729286602E+03  0.13466293466E+03  0.41800000000E+01 0.  1.
        -11    1    3    3    0    0  0.21925597708E+02  0.15215585083E+03 -0.28095857865E+02  0.15627383660E+03  0.00000000000E+00 0.  1.
         11    1    3    3    0    0  0.11759343945E+02 -0.28711983474E+01 -0.26982168155E+02  0.29573017234E+02  0.00000000000E+00 0. -1.
</event>
<event>
 7    1  0.5831876E-006  0.1245693E+03  0.7561462E-02  0.1235744E+00
         -1   -1    0    0    0  501 -0.00000000000E+00  0.00000000000E+00  0.84441624997E+02  0.84441624997E+02  0.00000000000E+00 0.  1.
          1   -1    0    0  501    0  0.00000000000E+00 -0.00000000000E+00 -0.27091872402E+03  0.27091872402E+03  0.00000000000E+00 0. -1.
         23    2    1    2    0    0 -0.31953011710E+02  0.71726202059E+02 -0.36259626961E+01  0.12034722961E+03  0.91129934987E+02 0.  0.
          5    1    1    2  502    0  0.71344803838E+02 -0.71050111739E+01 -0.86981060502E+02  0.11279955454E+03  0.41800000000E+01 0. -1.
         -5    1    1    2    0  502 -0.39391792128E+02 -0.64621190885E+02 -0.95870075827E+02  0.12221356487E+03  0.41800000000E+01 0. -1.
        -11    1    3    3    0    0  0.15680023749E+02  0.31509538535E+00  0.25298493927E+02  0.29765352759E+02  0.00000000000E+00 0.  1.
         11    1    3    3    0    0 -0.47633035459E+02  0.71411106674E+02 -0.28924456623E+02  0.90581876854E+02  0.00000000000E+00 0. -1.
</event>
<event>
 7    1  0.5831876E-006  0.1190581E+03  0.7561462E-02  0.1244659E+00
          1   -1    0    0  501    0  0.00000000000E+00  0.00000000000E+00  0.94702778781E+02  0.94702778781E+02  0.00000000000E+00 0. -1.
         -1   -1    0    0    0  501 -0.00000000000E+00 -0.00000000000E+00 -0.17034263349E+03  0.17034263349E+03  0.00000000000E+00 0.  1.
         23    2    1    2    0    0 -0.49678706932E+02  0.41809335158E+02 -0.43172634226E+02  0.12042216799E+03  0.91769427202E+02 0.  0.
          5    1    1    2  502    0 -0.82109206170E+01 -0.63293513804E+02  0.16096584244E+02  0.65954988677E+02  0.41800000000E+01 0. -1.
         -5    1    1    2    0  502  0.57889627549E+02  0.21484178646E+02 -0.48563804726E+02  0.78668255601E+02  0.41800000000E+01 0. -1.
        -11    1    3    3    0    0  0.11241446713E+02 -0.21590449302E+02 -0.68245723470E+01  0.25280277154E+02  0.00000000000E+00 0. -1.
         11    1    3    3    0    0 -0.60920153645E+02  0.63399784460E+02 -0.36348061879E+02  0.95141890837E+02  0.00000000000E+00 0.  1.
</event>
<event>
 7    1  0.5831876E-006  0.1712826E+03  0.7561462E-02  0.1176517E+00
         -3   -1    0    0    0  501 -0.00000000000E+00  0.00000000000E+00  0.19769464609E+03  0.19769464609E+03  0.00000000000E+00 0.  1.
          3   -1    0    0  501    0  0.00000000000E+00 -0.00000000000E+00 -0.38394187507E+03  0.38394187507E+03  0.00000000000E+00 0. -1.
         23    2    1    2    0    0  0.16472922922E+03 -0.38807074096E+02  0.10771294431E+03  0.22010873909E+03  0.90576325242E+02 0.  0.
          5    1    1    2  502    0 -0.63721541811E+02  0.29062786665E+02 -0.23241156413E+03  0.24277085493E+03  0.41800000000E+01 0. -1.
         -5    1    1    2    0  502 -0.10100768741E+03  0.97442874302E+01 -0.61548609159E+02  0.11875692713E+03  0.41800000000E+01 0. -1.
        -11    1    3    3    0    0  0.34720935647E+02  0.14260102459E+01  0.71163562691E+02  0.79194883246E+02  0.00000000000E+00 0.  1.
         11    1    3    3    0    0  0.13000829357E+03 -0.40233084342E+02  0.36549381620E+02  0.14091385585E+03  0.00000000000E+00 0. -1.
</event>
<event>
 7    1  0.5831876E-006  0.1316201E+03  0.7561462E-02  0.1225071E+00
         -1   -1    0    0    0  501 -0.00000000000E+00  0.00000000000E+00  0.44774059108E+02  0.44774059108E+02  0.00000000000E+00 0.  1.
          1   -1    0    0  501    0  0.00000000000E+00 -0.00000000000E+00 -0.41675207566E+03  0.41675207566E+03  0.00000000000E+00 0. -1.
         23    2    1    2    0    0  0.73401270518E+02 -0.41168479306E+01 -0.13411334579E+03  0.18515317586E+03  0.10435810490E+03 0.  0.
          5    1    1    2  502    0  0.29509212895E+02  0.17708502517E+02 -0.40306802069E+02  0.53164794744E+02  0.41800000000E+01 0. -1.
         -5    1    1    2    0  502 -0.10291048341E+03 -0.13591654586E+02 -0.19755786869E+03  0.22320816417E+03  0.41800000000E+01 0.  1.
        -11    1    3    3    0    0  0.32161030129E+02 -0.52216019782E+02 -0.46166187531E+02  0.76760415918E+02  0.00000000000E+00 0.  1.
         11    1    3    3    0    0  0.41240240389E+02  0.48099171851E+02 -0.87947158263E+02  0.10839275994E+03  0.00000000000E+00 0. -1.
</event>
<event>
 7    1  0.5831876E-006  0.1964870E+03  0.7561462E-02  0.1152737E+00
         -2   -1    0    0    0  501 -0.00000000000E+00  0.00000000000E+00  0.13686657194E+03  0.13686657194E+03  0.00000000000E+00 0. -1.
          2   -1    0    0  501    0  0.00000000000E+00 -0.00000000000E+00 -0.33999851494E+03  0.33999851494E+03  0.00000000000E+00 0.  1.
         23    2    1    2    0    0 -0.18000538430E+03  0.19700355977E+02 -0.49056503878E+02  0.20821074231E+03  0.90305759723E+02 0.  0.
          5    1    1    2  502    0 -0.12483184277E+01  0.12052361561E+02  0.14295409693E+02  0.19200230634E+02  0.41800000000E+01 0.  1.
         -5    1    1    2    0  502  0.18125370273E+03 -0.31752717539E+02 -0.16837084882E+03  0.24945411393E+03  0.41800000000E+01 0.  1.
        -11    1    3    3    0    0 -0.86826227790E+02  0.47352646199E+02 -0.50410116007E+02  0.11100561576E+03  0.00000000000E+00 0.  1.
         11    1    3    3    0    0 -0.93179156512E+02 -0.27652290222E+02  0.13536121293E+01  0.97205126555E+02  0.00000000000E+00 0. -1.
</event>
<event>
 7    1  0.5831876E-006  0.1593952E+03  0.7561462E-02  0.1189381E+00
          1   -1    0    0  501    0  0.00000000000E+00  0.00000000000E+00  0.19682107459E+04  0.19682107459E+04  0.00000000000E+00 0. -1.
         -1   -1    0    0    0  501 -0.00000000000E+00 -0.00000000000E+00 -0.16350133819E+02  0.16350133819E+02  0.00000000000E+00 0.  1.
         23    2    1    2    0    0 -0.13027785825E+03  0.62374704018E+01  0.61178546365E+03  0.63198856713E+03  0.90093668278E+02 0.  0.
          5    1    1    2  502    0  0.14988377158E+03 -0.98340296903E+01  0.93605773786E+03  0.94804188416E+03  0.41800000000E+01 0. -1.
         -5    1    1    2    0  502 -0.19605913336E+02  0.35965592885E+01  0.40401741060E+03  0.40453042845E+03  0.41800000000E+01 0.  1.
        -11    1    3    3    0    0  0.26659419459E+01  0.14706557332E+02  0.17773278187E+02  0.23222392050E+02  0.00000000000E+00 0. -1.
         11    1    3    3    0    0 -0.13294380019E+03 -0.84690869305E+01  0.59401218546E+03  0.60876617508E+03  0.00000000000E+00 0.  1.
</event>
<event>
 7    1  0.5831876E-006  0.1615359E+03  0.7561462E-02  0.1186974E+00
          2   -1    0    0  501    0  0.00000000000E+00  0.00000000000E+00  0.34420337812E+03  0.34420337812E+03  0.00000000000E+00 0.  1.
         -2   -1    0    0    0  501 -0.00000000000E+00 -0.00000000000E+00 -0.93800087022E+02  0.93800087022E+02  0.00000000000E+00 0. -1.
         23    2    1    2    0    0  0.49513807854E+02  0.12689095624E+03  0.67177508824E+02  0.17767187948E+03  0.92203834635E+02 0.  0.
          5    1    1    2  502    0  0.16690932222E+02 -0.11374476393E+03  0.13446089059E+03  0.17695666712E+03  0.41800000000E+01 0.  1.
         -5    1    1    2    0  502 -0.66204740076E+02 -0.13146192318E+02  0.48764891681E+02  0.83374918540E+02  0.41800000000E+01 0.  1.
        -11    1    3    3    0    0  0.12832459912E+01  0.47472547517E+02 -0.18803711134E+02  0.51077089193E+02  0.00000000000E+00 0.  1.
         11    1    3    3    0    0  0.48230561863E+02  0.79418408728E+02  0.85981219958E+02  0.12659479029E+03  0.00000000000E+00 0. -1.
</event>
<event>
 7    1  0.5831876E-006  0.1026493E+03  0.7561462E-02  0.1274822E+00
          2   -1    0    0  501    0  0.00000000000E+00  0.00000000000E+00  0.47866611995E+03  0.47866611995E+03  0.00000000000E+00 0. -1.
         -2   -1    0    0    0  501 -0.00000000000E+00 -0.00000000000E+00 -0.33181997250E+02  0.33181997250E+02  0.00000000000E+00 0.  1.
         23    2    1    2    0    0 -0.18835366450E+02 -0.25761054558E+02  0.11951950579E+03  0.15408819190E+03  0.91868687031E+02 0.  0.
          5    1    1    2  502    0 -0.50124381387E+02  0.17534250791E+02  0.24628613505E+03  0.25198062679E+03  0.41800000000E+01 0. -1.
         -5    1    1    2    0  502  0.68959747837E+02  0.82268037669E+01  0.79678481856E+02  0.10577929851E+03  0.41800000000E+01 0.  1.
        -11    1    3    3    0    0 -0.47997977032E+01 -0.52254994036E+02  0.11122140803E+03  0.12297895781E+03  0.00000000000E+00 0.  1.
         11    1    3    3    0    0 -0.14035568747E+02  0.26493939478E+02  0.82980977607E+01  0.31109234089E+02  0.00000000000E+00 0. -1.
</event>
<event>
 7    1  0.5831876E-006  0.1878354E+03  0.7561462E-02  0.1160428E+00
         -1   -1    0    0    0  501 -0.00000000000E+00  0.00000000000E+00  0.34181830273E+02  0.34181830273E+02  0.00000000000E+00 0.  1.
          1   -1    0    0  501    0  0.00000000000E+00 -0.00000000000E+00 -0.12037818828E+04  0.12037818828E+04  0.00000000000E+00 0. -1.
         23    2    1    2    0    0  0.14360777164E+03 -0.54490234148E+02 -0.32662907157E+03  0.37203031380E+03  0.90153348789E+02 0.  0.
          5    1    1    2  502    0 -0.14617726970E+03  0.33942319902E+01 -0.64957978446E+03  0.66584584084E+03  0.41800000000E+01 0.  1.
         -5    1    1    2    0  502  0.25694980584E+01  0.51096002158E+02 -0.19339119654E+03  0.20008755848E+03  0.41800000000E+01 0.  1.
        -11    1    3    3    0    0  0.95697231795E+02 -0.79141674355E+02 -0.22424665373E+03  0.25633557401E+03  0.00000000000E+00 0. -1.
         11    1    3    3    0    0  0.47910539847E+02  0.24651440207E+02 -0.10238241784E+03  0.11569473979E+03  0.00000000000E+00 0.  1.
</event>
<event>
 7    1  0.5831876E-006  0.1012656E+03  0.7561462E-02  0.1277657E+00
         -1   -1    0    0    0  501 -0.00000000000E+00  0.00000000000E+00  0.83785999398E+02  0.83785999398E+02  0.00000000000E+00 0.  1.
          1   -1    0    0  501    0  0.00000000000E+00 -0.00000000000E+00 -0.15739963755E+03  0.15739963755E+03  0.00000000000E+00 0. -1.
         23    2    1    2    0    0 -0.12299925025E+02  0.10813911450E+02  0.18356554136E+02  0.94925641464E+02  0.91682525549E+02 0.  0.
          5    1    1    2  502    0  0.16470408654E+02  0.47962722847E+02 -0.24161142895E+02  0.56328770358E+02  0.41800000000E+01 0. -1.
         -5    1    1    2    0  502 -0.41704836283E+01 -0.58776634297E+02 -0.67809049394E+02  0.89931225126E+02  0.41800000000E+01 0.  1.
        -11    1    3    3    0    0  0.38062449226E+02 -0.78533639190E+01  0.12849911834E+02  0.40933428883E+02  0.00000000000E+00 0.  1.
         11    1    3    3    0    0 -0.50362374252E+02  0.18667275369E+02  0.55066423018E+01  0.53992212581E+02  0.00000000000E+00 0. -1.
</event>
<event>
 7    1  0.5831876E-006  0.1337624E+03  0.7561462E-02  0.1221977E+00
         -1   -1    0    0    0  501 -0.00000000000E+00  0.00000000000E+00  0.82941685142E+02  0.82941685142E+02  0.00000000000E+00 0.  1.
          1   -1    0    0  501    0  0.00000000000E+00 -0.00000000000E+00 -0.30116008581E+03  0.30116008581E+03  0.00000000000E+00 0. -1.
         23    2    1    2    0    0  0.23922947662E+01 -0.10830502286E+03 -0.57008643654E+02  0.15307562738E+03  0.91904630982E+02 0.  0.
          5    1    1    2  502    0 -0.20034486431E+02 -0.12447988994E+02  0.53087125621E+01  0.24535441827E+02  0.41800000000E+01 0. -1.
         -5    1    1    2    0  502  0.17642191665E+02  0.12075301185E+03 -0.16651846957E+03  0.20649070174E+03  0.41800000000E+01 0. -1.
        -11    1    3    3    0    0  0.22609067802E+02 -0.17931301124E+02  0.17906161290E+02  0.33960743793E+02  0.00000000000E+00 0.  1.
         11    1    3    3    0    0 -0.20216773036E+02 -0.90373721732E+02 -0.74914804944E+02  0.11911488358E+03  0.00000000000E+00 0. -1.
</event>
<event>
 7    1  0.5831876E-006  0.1564523E+03  0.7561462E-02  0.1192761E+00
          2   -1    0    0  501    0  0.00000000000E+00  0.00000000000E+00  0.52266316363E+03  0.52266316363E+03  0.00000000000E+00 0. -1.
         -2   -1    0    0    0  501 -0.00000000000E+00 -0.00000000000E+00 -0.14887738286E+03  0.14887738286E+03  0.00000000000E+00 0.  1.
         23    2    1    2    0    0  0.10996584224E+03 -0.35386052187E+02 -0.93251328859E+02  0.17520193793E+03  0.93033593791E+02 0.  0.
          5    1    1    2  502    0 -0.68937743781E+01  0.60747123255E+02  0.18975185734E+03  0.19940154682E+03  0.41800000000E+01 0. -1.
         -5    1    1    2    0  502 -0.10307206786E+03 -0.25361071068E+02  0.27728525229E+03  0.29693706174E+03  0.41800000000E+01 0.  1.
        -11    1    3    3    0    0  0.44013023030E+01  0.23914396739E+02 -0.36827242298E+01  0.24593338348E+02  0.00000000000E+00 0. -1.
         11    1    3    3    0    0  0.10556453993E+03 -0.59300448925E+02 -0.89568604629E+02  0.15060859959E+03  0.00000000000E+00 0.  1.
</event>
<event>
 7    1  0.5831876E-006  0.1051495E+03  0.7561462E-02  0.1269825E+00
          2   -1    0    0  501    0  0.00000000000E+00  0.00000000000E+00  0.37259160503E+03  0.37259160503E+03  0.00000000000E+00 0. -1.
         -2   -1    0    0    0  501 -0.00000000000E+00 -0.00000000000E+00 -0.32188591107E+02  0.32188591107E+02  0.00000000000E+00 0.  1.
         23    2    1    2    0    0 -0.17286757241E+01  0.13279768778E+02  0.16728379977E+03  0.19076547031E+03  0.90709726156E+02 0.  0.
          5    1    1    2  502    0 -0.55389165169E+02 -0.24133388062E+02  0.12315787835E+03  0.13724327101E+03  0.41800000000E+01 0. -1.
         -5    1    1    2    0  502  0.57117840893E+02  0.10853619285E+02  0.49961335812E+02  0.76771454826E+02  0.41800000000E+01 0. -1.
        -11    1    3    3    0    0  0.16876957363E+02  0.48642710133E+02  0.10106777851E+03  0.11342680809E+03  0.00000000000E+00 0.  1.
         11    1    3    3    0    0 -0.18605633087E+02 -0.35362941355E+02  0.66216021252E+02  0.77338662222E+02  0.00000000000E+00 0. -1.
</event>
<event>
 7    1  0.5831876E-006  0.1286345E+03  0.7561462E-02  0.1229496E+00
          2   -1    0    0  501    0  0.00000000000E+00  0.00000000000E+00  0.72817613788E+03  0.72817613788E+03  0.00000000000E+00 0. -1.
         -2   -1    0    0    0  501 -0.00000000000E+00 -0.00000000000E+00 -0.32469640124E+02  0.32469640124E+02  0.00000000000E+00 0.  1.
         23    2    1    2    0    0 -0.76511974844E+02 -0.35835735711E+02  0.15401723755E+03  0.19831850950E+03  0.92036077167E+02 0.  0.
          5    1    1    2  502    0 -0.25717168032E+02  0.37913846956E+02  0.12324142224E+03  0.13154753163E+03  0.41800000000E+01 0.  1.
         -5    1    1    2    0  502  0.10222914288E+03 -0.20781112448E+01  0.41844783796E+03  0.43077973687E+03  0.41800000000E+01 0.  1.
        -11    1    3    3    0    0 -0.70389111693E+02 -0.54669675886E+02  0.73865197171E+02  0.11575607051E+03  0.00000000000E+00 0.  1.
         11    1    3    3    0    0 -0.61228631509E+01  0.18833940175E+02  0.80152040381E+02  0.82562438996E+02  0.00000000000E+00 0. -1.
</event>
<event>
 7    1  0.7131118E-006  0.1489938E+03  0.7561462E-02  0.1201715E+00
         -3   -1    0    0    0  501 -0.00000000000E+00  0.00000000000E+00  0.10917276513E+03  0.10917276513E+03  0.00000000000E+00 0.  1.
          3   -1    0    0  501    0  0.00000000000E+00 -0.00000000000E+00 -0.30627812064E+03  0.30627812064E+03  0.00000000000E+00 0. -1.
         23    2    1    2    0    0 -0.14667714845E+03 -0.16507769282E+02 -0.90956820493E+02  0.19476623061E+03  0.88735838685E+02 0.  0.
          5    1    1    2  502    0  0.91045963842E+02 -0.61701991984E+00  0.90054780280E+01  0.91587768179E+02  0.41800000000E+01 0. -1.
         -5    1    1    2    0  502  0.55631184607E+02  0.17124789202E+02 -0.11515401305E+03  0.12909688698E+03  0.41800000000E+01 0. -1.
        -11    1    3    3    0    0 -0.19948958193E+02 -0.79330963427E+01  0.17536337481E+02  0.27720355027E+02  0.00000000000E+00 0.  1.
         11    1    3    3    0    0 -0.12672819026E+03 -0.85746729396E+01 -0.10849315797E+03  0.16704587558E+03  0.00000000000E+00 0. -1.
</event>
<event>
 7    1  0.5831876E-006  0.9867275E+02  0.7561462E-02  0.1283112E+00
          1   -1    0    0  501    0  0.00000000000E+00  0.00000000000E+00  0.35409045989E+03  0.35409045989E+03  0.00000000000E+00 0. -1.
         -1   -1    0    0    0  501 -0.00000000000E+00 -0.00000000000E+00 -0.72577032596E+02  0.72577032596E+02  0.00000000000E+00 0.  1.
         23    2    1    2    0    0 -0.20344366527E+02  0.47620294112E+02  0.23304709617E+01  0.11638821038E+03  0.10420747939E+03 0.  0.
          5    1    1    2  502    0  0.45435874202E+02 -0.63515876219E+02  0.92178073072E+02  0.12088405499E+03  0.41800000000E+01 0. -1.
         -5    1    1    2    0  502 -0.25091507675E+02  0.15895582107E+02  0.18700488326E+03  0.18939522711E+03  0.41800000000E+01 0. -1.
        -11    1    3    3    0    0  0.26183210458E+02  0.28885670158E+02  0.38311110980E+02  0.54659707966E+02  0.00000000000E+00 0. -1.
         11    1    3    3    0    0 -0.46527576984E+02  0.18734623953E+02 -0.35980640019E+02  0.61728502419E+02  0.00000000000E+00 0.  1.
</event>
<event>
 7    1  0.5831876E-006  0.9255196E+02  0.7561462E-02  0.1296787E+00
         -1   -1    0    0    0  501 -0.00000000000E+00  0.00000000000E+00  0.43098386764E+03  0.43098386764E+03  0.00000000000E+00 0.  1.
          1   -1    0    0  501    0  0.00000000000E+00 -0.00000000000E+00 -0.38526913148E+02  0.38526913148E+02  0.00000000000E+00 0. -1.
         23    2    1    2    0    0  0.54470339140E+01 -0.64939494647E+02  0.21403218409E+03  0.24206537813E+03  0.92407052332E+02 0.  0.
          5    1    1    2  502    0  0.16697796264E+02  0.43635117648E+02  0.18895819086E+03  0.19469337479E+03  0.41800000000E+01 0. -1.
         -5    1    1    2    0  502 -0.22144830178E+02  0.21304376999E+02 -0.10533420460E+02  0.32752027869E+02  0.41800000000E+01 0. -1.
        -11    1    3    3    0    0  0.32708622142E+01  0.20981994648E+02  0.80575873342E+02  0.83327150460E+02  0.00000000000E+00 0. -1.
         11    1    3    3    0    0  0.21761716999E+01 -0.85921489295E+02  0.13345631075E+03  0.15873822767E+03  0.00000000000E+00 0.  1.
</event>
<event>
 7    1  0.5831876E-006  0.8342159E+02  0.7561462E-02  0.1319613E+00
         -2   -1    0    0    0  501 -0.00000000000E+00  0.00000000000E+00  0.16065056835E+02  0.16065056835E+02  0.00000000000E+00 0.  1.
          2   -1    0    0  501    0  0.00000000000E+00 -0.00000000000E+00 -0.15453738516E+04  0.15453738516E+04  0.00000000000E+00 0. -1.
         23    2    1    2    0    0 -0.41547181290E+01 -0.47430184160E+02 -0.27233859676E+03  0.29129910936E+03  0.91760425987E+02 0.  0.
          5    1    1    2  502    0  0.16680988942E+02 -0.14536163491E+02 -0.11083428340E+04  0.11085715428E+04  0.41800000000E+01 0. -1.
         -5    1    1    2    0  502 -0.12526270813E+02  0.61966347650E+02 -0.14862736399E+03  0.16156825625E+03  0.41800000000E+01 0.  1.
        -11    1    3    3    0    0  0.28758644038E+02 -0.84984675686E+01 -0.25843899958E+02  0.39587759762E+02  0.00000000000E+00 0.  1.
         11    1    3    3    0    0 -0.32913362167E+02 -0.38931716591E+02 -0.24649469680E+03  0.25171134960E+03  0.00000000000E+00 0. -1.
</event>
<event>
 7    1  0.5831876E-006  0.1015544E+03  0.7561462E-02  0.1277061E+00
          2   -1    0    0  501    0  0.00000000000E+00  0.00000000000E+00  0.59428432168E+03  0.59428432168E+03  0.00000000000E+00 0.  1.
         -2   -1    0    0    0  501 -0.00000000000E+00 -0.00000000000E+00 -0.27272978244E+02  0.27272978244E+02  0.00000000000E+00 0. -1.
         23    2    1    2    0    0 -0.43500734160E+02 -0.40328179232E+02  0.31535560020E+03  0.33433550402E+03  0.93874377529E+02 0.  0.
          5    1    1    2  502    0  0.71411051021E+02 -0.17562921859E+02  0.14481035057E+03  0.16246693345E+03  0.41800000000E+01 0. -1.
         -5    1    1    2    0  502 -0.27910316861E+02  0.57891101091E+02  0.10684539267E+03  0.12475486246E+03  0.41800000000E+01 0. -1.
        -11    1    3    3    0    0 -0.45278758852E+02 -0.29424733115E+02  0.31834363266E+03  0.32289107974E+03  0.00000000000E+00 0.  1.
         11    1    3    3    0    0  0.17780246916E+01 -0.10903446117E+02 -0.29880324588E+01  0.11444424276E+02  0.00000000000E+00 0. -1.
</event>
<event>
 7    1  0.5831876E-006  0.1172022E+03  0.7561462E-02  0.1247785E+00
         -2   -1    0    0    0  501 -0.00000000000E+00  0.00000000000E+00  0.14506130927E+03  0.14506130927E+03  0.00000000000E+00 0.  1.
          2   -1    0    0  501    0  0.00000000000E+00 -0.00000000000E+00 -0.70124800790E+03  0.70124800790E+03  0.00000000000E+00 0. -1.
         23    2    1    2    0    0  0.71268423089E+02  0.87086323115E+02  0.95680656629E+02  0.17307782979E+03  0.90210483370E+02 0.  0.
          5    1    1    2  502    0 -0.23925551894E+02 -0.44156804756E+01 -0.14210910144E+02  0.28484252397E+02  0.41800000000E+01 0. -1.
         -5    1    1    2    0  502 -0.47342871196E+02 -0.82670642640E+02 -0.63765644511E+03  0.64474723497E+03  0.41800000000E+01 0. -1.
        -11    1    3    3    0    0  0.24880649614E+02  0.16357557419E+02 -0.15349503504E+02  0.33499606979E+02  0.00000000000E+00 0.  1.
         11    1    3    3    0    0  0.46387773475E+02  0.70728765697E+02  0.11103016013E+03  0.13957822281E+03  0.00000000000E+00 0. -1.
</event>
<event>
 7    1  0.5831876E-006  0.1084856E+03  0.7561462E-02  0.1263400E+00
          2   -1    0    0  501    0  0.00000000000E+00  0.00000000000E+00  0.65073275849E+03  0.65073275849E+03  0.00000000000E+00 0. -1.
         -2   -1    0    0    0  501 -0.00000000000E+00 -0.00000000000E+00 -0.23323731880E+02  0.23323731880E+02  0.00000000000E+00 0.  1.
         23    2    1    2    0    0  0.28925897689E+02 -0.19316012129E+02  0.17029490037E+03  0.19886148458E+03  0.96621535254E+02 0.  0.
          5    1    1    2  502    0  0.41611312001E+02  0.39031733563E+01  0.72059451816E+02  0.83407272133E+02  0.41800000000E+01 0.  1.
         -5    1    1    2    0  502 -0.70537209690E+02  0.15412838773E+02  0.38505467443E+03  0.39178773366E+03  0.41800000000E+01 0.  1.
        -11    1    3    3    0    0 -0.22826534469E+02  0.25472831684E+02  0.59548442286E+02  0.68672649640E+02  0.00000000000E+00 0. -1.
         11    1    3    3    0    0  0.51752432157E+02 -0.44788843813E+02  0.11074645808E+03  0.13018883494E+03  0.00000000000E+00 0.  1.
</event>
<event>
 7    1  0.5831876E-006  0.2264521E+03  0.7561462E-02  0.1129162E+00
          4   -1    0    0  501    0  0.00000000000E+00  0.00000000000E+00  0.95122671503E+03  0.95122671503E+03  0.00000000000E+00 0.  1.
         -4   -1    0    0    0  501 -0.00000000000E+00 -0.00000000000E+00 -0.88446287339E+02  0.88446287339E+02  0.00000000000E+00 0. -1.
         23    2    1    2    0    0 -0.10831619741E+03 -0.17158968501E+03  0.10605378956E+03  0.24628961053E+03  0.90751018468E+02 0.  0.
          5    1    1    2  502    0 -0.20767719645E+02  0.62516164237E+02  0.27656384214E+03  0.28433184864E+03  0.41800000000E+01 0.  1.
         -5    1    1    2    0  502  0.12908391705E+03  0.10907352078E+03  0.48016279599E+03  0.50905154319E+03  0.41800000000E+01 0.  1.
        -11    1    3    3    0    0 -0.52698829158E+02 -0.14859854570E+03  0.53814115408E+02  0.16659727907E+03  0.00000000000E+00 0. -1.
         11    1    3    3    0    0 -0.55617368251E+02 -0.22991139317E+02  0.52239674148E+02  0.79692331459E+02  0.00000000000E+00 0.  1.
</event>
<event>
 7    1  0.5831876E-006  0.1110624E+03  0.7561462E-02  0.1258615E+00
         -1   -1    0    0    0  501 -0.00000000000E+00  0.00000000000E+00  0.15413325547E+02  0.15413325547E+02  0.00000000000E+00 0.  1.
          1   -1    0    0  501    0  0.00000000000E+00 -0.00000000000E+00 -0.16605945400E+04  0.16605945400E+04  0.00000000000E+00 0. -1.
         23    2    1    2    0    0  0.30451326527E+02  0.20102444508E+02 -0.18502618605E+03  0.21005025838E+03  0.92493404950E+02 0.  0.
          5    1    1    2  502    0  0.45637803982E+02 -0.13483823179E+02 -0.79180129599E+03  0.79324106510E+03  0.41800000000E+01 0. -1.
         -5    1    1    2    0  502 -0.76089130509E+02 -0.66186213292E+01 -0.66835373240E+03  0.67271654205E+03  0.41800000000E+01 0. -1.
        -11    1    3    3    0    0  0.61123952469E+02  0.26347838281E+02 -0.14217065387E+03  0.15698038403E+03  0.00000000000E+00 0. -1.
         11    1    3    3    0    0 -0.30672625941E+02 -0.62453937730E+01 -0.42855532181E+02  0.53069874355E+02  0.00000000000E+00 0.  1.
</event>
<event>
 7    1  0.5831876E-006  0.1502423E+03  0.7561462E-02  0.1200176E+00
         -1   -1    0    0    0  501 -0.00000000000E+00  0.00000000000E+00  0.53024309274E+02  0.53024309274E+02  0.00000000000E+00 0.  1.
          1   -1    0    0  501    0  0.00000000000E+00 -0.00000000000E+00 -0.47049947620E+03  0.47049947620E+03  0.00000000000E+00 0. -1.
         23    2    1    2    0    0 -0.17448426822E+02 -0.10924465695E+03 -0.19374580246E+03  0.24434821085E+03  0.99648228807E+02 0.  0.
          5    1    1    2  502    0 -0.42778928291E+02  0.82272279301E+02 -0.17112724282E+03  0.19468120167E+03  0.41800000000E+01 0.  1.
         -5    1    1    2    0  502  0.60227355113E+02  0.26972377646E+02 -0.52602121645E+02  0.84494372957E+02  0.41800000000E+01 0.  1.
        -11    1    3    3    0    0 -0.50021301035E+02 -0.36777665538E+02 -0.48470189970E+02  0.78766024119E+02  0.00000000000E+00 0.  1.
         11    1    3    3    0    0  0.32572874213E+02 -0.72466991408E+02 -0.14527561249E+03  0.16558218673E+03  0.00000000000E+00 0. -1.
</event>
<event>
 7    1  0.5831876E-006  0.1533441E+03  0.7561462E-02  0.1196423E+00
          2   -1    0    0  501    0  0.00000000000E+00  0.00000000000E+00  0.58519909899E+02  0.58519909899E+02  0.00000000000E+00 0. -1.
         -2   -1    0    0    0  501 -0.00000000000E+00 -0.00000000000E+00 -0.55199399683E+03  0.55199399683E+03  0.00000000000E+00 0.  1.
         23    2    1    2    0    0 -0.85248313351E+02  0.93398249785E+02 -0.34667993236E+03  0.37990543134E+03  0.90280968475E+02 0.  0.
          5    1    1    2  502    0 -0.29729409013E+01 -0.78991265460E+02 -0.32796802925E+02  0.85682910074E+02  0.41800000000E+01 0. -1.
         -5    1    1    2    0  502  0.88221254253E+02 -0.14406984325E+02 -0.11399735164E+03  0.14492556531E+03  0.41800000000E+01 0. -1.
        -11    1    3    3    0    0 -0.36218858955E+02  0.79057704954E+02 -0.29372514157E+03  0.30632725188E+03  0.00000000000E+00 0.  1.
         11    1    3    3    0    0 -0.49029454397E+02  0.14340544831E+02 -0.52954790789E+02  0.73578179456E+02  0.00000000000E+00 0. -1.
</event>
<event>
 7    1  0.5831876E-006  0.9655326E+02  0.7561462E-02  0.1287716E+00
         -1   -1    0    0    0  501 -0.00000000000E+00  0.00000000000E+00  0.53867894264E+03  0.53867894264E+03  0.00000000000E+00 0.  1.
          1   -1    0    0  501    0  0.00000000000E+00 -0.00000000000E+00 -0.24711698665E+02  0.24711698665E+02  0.00000000000E+00 0. -1.
         23    2    1    2    0    0  0.18138563280E+02 -0.10147533699E+02  0.29956148721E+03  0.31429394198E+03  0.92798800772E+02 0.  0.
          5    1    1    2  502    0  0.33618795196E+02 -0.18814042748E+02  0.15914664873E+02  0.41892010610E+02  0.41800000000E+01 0.  1.
         -5    1    1    2    0  502 -0.51757358476E+02  0.28961576447E+02  0.19849109189E+03  0.20720468871E+03  0.41800000000E+01 0.  1.
        -11    1    3    3    0    0  0.51230899703E+02 -0.26838753205E+02  0.19234545529E+03  0.20085242824E+03  0.00000000000E+00 0.  1.
         11    1    3    3    0    0 -0.33092336423E+02  0.16691219505E+02  0.10721603192E+03  0.11344151374E+03  0.00000000000E+00 0. -1.
</event>
<event>
 7    1  0.5831876E-006  0.2040547E+03  0.7561462E-02  0.1146362E+00
          1   -1    0    0  501    0  0.00000000000E+00  0.00000000000E+00  0.99381554904E+03  0.99381554904E+03  0.00000000000E+00 0. -1.
         -1   -1    0    0    0  501 -0.00000000000E+00 -0.00000000000E+00 -0.53771432358E+02  0.53771432358E+02  0.00000000000E+00 0.  1.
         23    2    1    2    0    0  0.47899152607E+02  0.19438186693E+03  0.36637180042E+03  0.42724380283E+03  0.90721176694E+02 0.  0.
          5    1    1    2  502    0 -0.42149607565E+02 -0.14789975829E+03  0.25198237558E+03  0.29523468279E+03  0.41800000000E+01 0.  1.
         -5    1    1    2    0  502 -0.57495450424E+01 -0.46482108638E+02  0.32168994068E+03  0.32510849578E+03  0.41800000000E+01 0.  1.
        -11    1    3    3    0    0  0.15473545329E+02  0.15698008407E+03  0.20631733298E+03  0.25970949017E+03  0.00000000000E+00 0.  1.
         11    1    3    3    0    0  0.32425607279E+02  0.37401782860E+02  0.16005446744E+03  0.16753431265E+03  0.00000000000E+00 0. -1.
</event>
<event>
 7    1  0.5831876E-006  0.1138992E+03  0.7561462E-02  0.1253515E+00
         -2   -1    0    0    0  501 -0.00000000000E+00  0.00000000000E+00  0.44913707136E+02  0.44913707136E+02  0.00000000000E+00 0.  1.
          2   -1    0    0  501    0  0.00000000000E+00 -0.00000000000E+00 -0.32081079370E+03  0.32081079370E+03  0.00000000000E+00 0. -1.
         23    2    1    2    0    0 -0.57326191735E+02 -0.22838911372E+02 -0.69181701232E+02  0.11634929773E+03  0.70307490105E+02 0.  0.
          5    1    1    2  502    0  0.94938734428E+02  0.32242879017E+02 -0.15380667425E+03  0.18364893680E+03  0.41800000000E+01 0.  1.
         -5    1    1    2    0  502 -0.37612542693E+02 -0.94039676456E+01 -0.52908711083E+02  0.65726266315E+02  0.41800000000E+01 0.  1.
        -11    1    3    3    0    0 -0.54989629120E+02 -0.41971505621E+02 -0.36020259671E+02  0.77993113168E+02  0.00000000000E+00 0.  1.
         11    1    3    3    0    0 -0.23365626146E+01  0.19132594249E+02 -0.33161441561E+02  0.38356184560E+02  0.00000000000E+00 0. -1.
</event>
<event>
 7    1  0.5831876E-006  0.1178516E+03  0.7561462E-02  0.1246684E+00
         -2   -1    0    0    0  501 -0.00000000000E+00  0.00000000000E+00  0.36999105247E+02  0.36999105247E+02  0.00000000000E+00 0.  1.
          2   -1    0    0  501    0  0.00000000000E+00 -0.00000000000E+00 -0.40867729199E+03  0.40867729199E+03  0.00000000000E+00 0. -1.
         23    2    1    2    0    0  0.66511575225E+02 -0.16093599959E+02 -0.19185998766E+03  0.22220555565E+03  0.88782095593E+02 0.  0.
          5    1    1    2  502    0  0.16931410723E+02  0.39117581822E+02 -0.83912443381E+02  0.94210553713E+02  0.41800000000E+01 0. -1.
         -5    1    1    2    0  502 -0.83442985948E+02 -0.23023981863E+02 -0.95905755701E+02  0.12926028787E+03  0.41800000000E+01 0.  1.
        -11    1    3    3    0    0  0.80392771344E+02 -0.30706152422E+02 -0.17810007214E+03  0.19780167132E+03  0.00000000000E+00 0. -1.
         11    1    3    3    0    0 -0.13881196119E+02  0.14612552464E+02 -0.13759915519E+02  0.24403884328E+02  0.00000000000E+00 0.  1.
</event>
<event>
 7    1  0.5831876E-006  0.1057022E+03  0.7561462E-02  0.1268742E+00
         -1   -1    0    0    0  501 -0.00000000000E+00  0.00000000000E+00  0.29313764415E+03  0.29313764415E+03  0.00000000000E+00 0.  1.
          1   -1    0    0  501    0  0.00000000000E+00 -0.00000000000E+00 -0.56171287983E+02  0.56171287983E+02  0.00000000000E+00 0. -1.
         23    2    1    2    0    0 -0.16071357352E+02 -0.53700224771E+02  0.15961453099E+03  0.19191336779E+03  0.90619752617E+02 0.  0.
          5    1    1    2  502    0 -0.33417040654E+02 -0.20610543987E+02  0.50433357653E+02  0.64050675982E+02  0.41800000000E+01 0.  1.
         -5    1    1    2    0  502  0.49488398006E+02  0.74310768758E+02  0.26918467527E+02  0.93344888369E+02  0.41800000000E+01 0.  1.
        -11    1    3    3    0    0  0.21360994968E+02 -0.34229371947E+02  0.13941091001E+03  0.14513215991E+03  0.00000000000E+00 0.  1.
         11    1    3    3    0    0 -0.37432352319E+02 -0.19470852824E+02  0.20203620981E+02  0.46781207879E+02  0.00000000000E+00 0. -1.
</event>
<event>
 7    1  0.5831876E-006  0.3392615E+03  0.7561462E-02  0.1067111E+00
         -1   -1    0    0    0  501 -0.00000000000E+00  0.00000000000E+00  0.74379390527E+02  0.74379390527E+02  0.00000000000E+00 0.  1.
          1   -1    0    0  501    0  0.00000000000E+00 -0.00000000000E+00 -0.22555943491E+04  0.22555943491E+04  0.00000000000E+00 0. -1.
         23    2    1    2    0    0 -0.30316094256E+03 -0.13002803571E+03 -0.45592355044E+03  0.56962949399E+03  0.88304186837E+02 0.  0.
          5    1    1    2  502    0  0.23547997863E+03  0.14524558925E+03 -0.12712877539E+04  0.13010523153E+04  0.41800000000E+01 0. -1.
         -5    1    1    2    0  502  0.67680963925E+02 -0.15217553542E+02 -0.45400365423E+03  0.45929193033E+03  0.41800000000E+01 0.  1.
        -11    1    3    3    0    0 -0.52260698833E+02 -0.39808480188E+02 -0.15040851894E+03  0.16412988244E+03  0.00000000000E+00 0. -1.
         11    1    3    3    0    0 -0.25090024373E+03 -0.90219555524E+02 -0.30551503150E+03  0.40549961156E+03  0.00000000000E+00 0.  1.
</event>
<event>
 7    1  0.5831876E-006  0.1821467E+03  0.7561462E-02  0.1165741E+00
          1   -1    0    0  501    0  0.00000000000E+00  0.00000000000E+00  0.15496985446E+03  0.15496985446E+03  0.00000000000E+00 0. -1.
         -1   -1    0    0    0  501 -0.00000000000E+00 -0.00000000000E+00 -0.24295896104E+03  0.24295896104E+03  0.00000000000E+00 0.  1.
         23    2    1    2    0    0  0.38479928594E+02 -0.15104346716E+03 -0.77512517295E+02  0.19779642889E+03  0.93917000962E+02 0.  0.
          5    1    1    2  502    0  0.31958475646E+02  0.81676879408E+02  0.30615851442E+02  0.92990642298E+02  0.41800000000E+01 0. -1.
         -5    1    1    2    0  502 -0.70438404240E+02  0.69366587750E+02 -0.41092440736E+02  0.10714174431E+03  0.41800000000E+01 0. -1.
        -11    1    3    3    0    0  0.62307540314E+02 -0.73184541315E+02 -0.20174120694E+02  0.98209988358E+02  0.00000000000E+00 0.  1.
         11    1    3    3    0    0 -0.23827611720E+02 -0.77858925843E+02 -0.57338396601E+02  0.99586440535E+02  0.00000000000E+00 0. -1.
</event>
<event>
 7    1  0.5831876E-006  0.1048614E+03  0.7561462E-02  0.1270393E+00
          3   -1    0    0  501    0  0.00000000000E+00  0.00000000000E+00  0.39554767216E+02  0.39554767216E+02  0.00000000000E+00 0. -1.
         -3   -1    0    0    0  501 -0.00000000000E+00 -0.00000000000E+00 -0.42155712392E+03  0.42155712392E+03  0.00000000000E+00 0.  1.
         23    2    1    2    0    0 -0.12075687848E+02 -0.94737557472E+01 -0.28952187664E+03  0.30479265726E+03  0.94021660174E+02 0.  0.
          5    1    1    2  502    0  0.48297802208E+02  0.43091551491E+02 -0.18852959320E+02  0.67546028626E+02  0.41800000000E+01 0. -1.
         -5    1    1    2    0  502 -0.36222114360E+02 -0.33617795744E+02 -0.73627520739E+02  0.88773205245E+02  0.41800000000E+01 0. -1.
        -11    1    3    3    0    0  0.37046665570E+02  0.15501723982E+02 -0.12192441803E+03  0.12836791884E+03  0.00000000000E+00 0. -1.
         11    1    3    3    0    0 -0.49122353417E+02 -0.24975479729E+02 -0.16759745861E+03  0.17642473842E+03  0.00000000000E+00 0.  1.
</event>
<event>
 7    1  0.5831876E-006  0.8152200E+02  0.7561462E-02  0.1324787E+00
         -1   -1    0    0    0  501 -0.00000000000E+00  0.00000000000E+00  0.93876196782E+02  0.93876196782E+02  0.00000000000E+00 0. -1.
          1   -1    0    0  501    0  0.00000000000E+00 -0.00000000000E+00 -0.45968963944E+03  0.45968963944E+03  0.00000000000E+00 0.  1.
         23    2    1    2    0    0 -0.16314084886E+02 -0.75214870017E+02  0.42610217979E+02  0.11953557513E+03  0.80930198366E+02 0.  0.
          5    1    1    2  502    0  0.20719188946E+02  0.56551868121E+02 -0.60213483040E+02  0.85267429411E+02  0.41800000000E+01 0.  1.
         -5    1    1    2    0  502 -0.44051040599E+01  0.18663001895E+02 -0.34821017760E+03  0.34876283168E+03  0.41800000000E+01 0.  1.
        -11    1    3    3    0    0  0.49661021381E+01 -0.49133293833E+02 -0.16030461642E+02  0.51920308491E+02  0.00000000000E+00 0.  1.
         11    1    3    3    0    0 -0.21280187024E+02 -0.26081576184E+02  0.58640679621E+02  0.67615266637E+02  0.00000000000E+00 0. -1.
</event>
<event>
 7    1  0.5831876E-006  0.1506373E+03  0.7561462E-02  0.1199692E+00
         -2   -1    0    0    0  501 -0.00000000000E+00  0.00000000000E+00  0.50758710799E+02  0.50758710799E+02  0.00000000000E+00 0.  1.
          2   -1    0    0  501    0  0.00000000000E+00 -0.00000000000E+00 -0.69712730073E+03  0.69712730073E+03  0.00000000000E+00 0. -1.
         23    2    1    2    0    0  0.14504480411E+03 -0.38097792639E+01 -0.20934440804E+03  0.27071802058E+03  0.91709628031E+02 0.  0.
          5    1    1    2  502    0 -0.56982489050E+02  0.14151574946E+02 -0.42042401367E+02  0.72334687699E+02  0.41800000000E+01 0. -1.
         -5    1    1    2    0  502 -0.88062315060E+02 -0.10341795682E+02 -0.39498178053E+03  0.40483330325E+03  0.41800000000E+01 0. -1.
        -11    1    3    3    0    0  0.89877910119E+01  0.13785337450E+02  0.41250081276E+01  0.16965600725E+02  0.00000000000E+00 0.  1.
         11    1    3    3    0    0  0.13605701310E+03 -0.17595116714E+02 -0.21346941617E+03  0.25375241986E+03  0.00000000000E+00 0. -1.
</event>
<event>
 7    1  0.5831876E-006  0.1166911E+03  0.7561462E-02  0.1248658E+00
          2   -1    0    0  501    0  0.00000000000E+00  0.00000000000E+00  0.31151493120E+02  0.31151493120E+02  0.00000000000E+00 0. -1.
         -2   -1    0    0    0  501 -0.00000000000E+00 -0.00000000000E+00 -0.69823479406E+03  0.69823479406E+03  0.00000000000E+00 0.  1.
         23    2    1    2    0    0 -0.12162419123E+01 -0.86831824047E+02 -0.42501856441E+03  0.44340360442E+03  0.91786335584E+02 0.  0.
          5    1    1    2  502    0 -0.68222908279E+01 -0.10998063719E+02 -0.15228716839E+03  0.15289328015E+03  0.41800000000E+01 0. -1.
         -5    1    1    2    0  502  0.80385327402E+01  0.97829887766E+02 -0.89777568132E+02  0.13308940262E+03  0.41800000000E+01 0. -1.
        -11    1    3    3    0    0 -0.43098077875E+02 -0.46176364764E+02 -0.28089212299E+03  0.28790638364E+03  0.00000000000E+00 0. -1.
         11    1    3    3    0    0  0.41881835962E+02 -0.40655459282E+02 -0.14412644142E+03  0.15549722078E+03  0.00000000000E+00 0.  1.
</event>
<event>
 7    1  0.5831876E-006  0.8622789E+02  0.7561462E-02  0.1312252E+00
         -2   -1    0    0    0  501 -0.00000000000E+00  0.00000000000E+00  0.92168106512E+02  0.92168106512E+02  0.00000000000E+00 0.  1.
          2   -1    0    0  501    0  0.00000000000E+00 -0.00000000000E+00 -0.14033973356E+03  0.14033973356E+03  0.00000000000E+00 0. -1.
         23    2    1    2    0    0 -0.46968875506E+01 -0.13034550333E+01  0.12992436794E+02  0.93171560031E+02  0.92132385387E+02 0.  0.
          5    1    1    2  502    0  0.34802752367E+02 -0.43327968099E+02  0.25848255400E+01  0.55791559532E+02  0.41800000000E+01 0. -1.
         -5    1    1    2    0  502 -0.30105864817E+02  0.44631423133E+02 -0.63748889379E+02  0.83544720505E+02  0.41800000000E+01 0. -1.
        -11    1    3    3    0    0 -0.13890790058E+02  0.28409237665E+02  0.40683316447E+02  0.51528352101E+02  0.00000000000E+00 0.  1.
         11    1    3    3    0    0  0.91939025069E+01 -0.29712692698E+02 -0.27690879653E+02  0.41643207930E+02  0.00000000000E+00 0. -1.
</event>
<event>
 7    1  0.5831876E-006  0.1288104E+03  0.7561462E-02  0.1229232E+00
         -1   -1    0    0    0  501 -0.00000000000E+00  0.00000000000E+00  0.11705928209E+03  0.11705928209E+03  0.00000000000E+00 0.  1.
          1   -1    0    0  501    0  0.00000000000E+00 -0.00000000000E+00 -0.17436867575E+03  0.17436867575E+03  0.00000000000E+00 0. -1.
         23    2    1    2    0    0 -0.30920109163E+02  0.82817732896E+02  0.14506572111E+01  0.12737012307E+03  0.91685406750E+02 0.  0.
          5    1    1    2  502    0 -0.32883703616E+02 -0.68538936010E+02 -0.62403901779E+02  0.98441063942E+02  0.41800000000E+01 0. -1.
         -5    1    1    2    0  502  0.63803812780E+02 -0.14278796886E+02  0.36438509104E+01  0.65616770838E+02  0.41800000000E+01 0. -1.
        -11    1    3    3    0    0  0.24773337274E+02  0.32878665774E+02 -0.24839619692E+02  0.48080470143E+02  0.00000000000E+00 0. -1.
         11    1    3    3    0    0 -0.55693446438E+02  0.49939067122E+02  0.26290276903E+02  0.79289652924E+02  0.00000000000E+00 0.  1.
</event>
<event>
 7    1  0.5831876E-006  0.1108655E+03  0.7561462E-02  0.1258975E+00
          2   -1    0    0  501    0  0.00000000000E+00  0.00000000000E+00  0.93450242773E+03  0.93450242773E+03  0.00000000000E+00 0. -1.
         -2   -1    0    0    0  501 -0.00000000000E+00 -0.00000000000E+00 -0.24801833624E+02  0.24801833624E+02  0.00000000000E+00 0.  1.
         23    2    1    2    0    0  0.47200310084E+02  0.93784399000E+02  0.37317607671E+03  0.39847501477E+03  0.92187691153E+02 0.  0.
          5    1    1    2  502    0 -0.57845240482E+02 -0.77861336986E+02  0.53189841127E+03  0.54068646363E+03  0.41800000000E+01 0. -1.
         -5    1    1    2    0  502  0.10644930397E+02 -0.15923062014E+02  0.46261061229E+01  0.20142782949E+02  0.41800000000E+01 0. -1.
        -11    1    3    3    0    0  0.43202593392E+02  0.83715067993E+02  0.37571686101E+03  0.38734717803E+03  0.00000000000E+00 0. -1.
         11    1    3    3    0    0  0.39977166929E+01  0.10069331007E+02 -0.25407842950E+01  0.11127836740E+02  0.00000000000E+00 0.  1.
</event>
<event>
 7    1  0.5831876E-006  0.1812810E+03  0.7561462E-02  0.1166569E+00
         -1   -1    0    0    0  501 -0.00000000000E+00  0.00000000000E+00  0.26352646785E+02  0.26352646785E+02  0.00000000000E+00 0.  1.
          1   -1    0    0  501    0  0.00000000000E+00 -0.00000000000E+00 -0.15477151235E+04  0.15477151235E+04  0.00000000000E+00 0. -1.
         23    2    1    2    0    0 -0.83216934221E+02  0.11556860751E+03 -0.44872499638E+03  0.47963194208E+03  0.91714318978E+02 0.  0.
          5    1    1    2  502    0 -0.26503120456E+01  0.30506770512E+02 -0.57823884411E+02  0.65564938872E+02  0.41800000000E+01 0. -1.
         -5    1    1    2    0  502  0.85867246267E+02 -0.14607537802E+03 -0.10148135960E+04  0.10288708894E+04  0.41800000000E+01 0.  1.
        -11    1    3    3    0    0 -0.16501455581E+02 -0.10478068692E+02 -0.20688038338E+02  0.28461955134E+02  0.00000000000E+00 0.  1.
         11    1    3    3    0    0 -0.66715478640E+02  0.12604667620E+03 -0.42803695805E+03  0.45116998695E+03  0.00000000000E+00 0. -1.
</event>
<event>
 7    1  0.5831876E-006  0.1355619E+03  0.7561462E-02  0.1219429E+00
          1   -1    0    0  501    0  0.00000000000E+00  0.00000000000E+00  0.34095954721E+03  0.34095954721E+03  0.00000000000E+00 0. -1.
         -1   -1    0    0    0  501 -0.00000000000E+00 -0.00000000000E+00 -0.90905765554E+02  0.90905765554E+02  0.00000000000E+00 0.  1.
         23    2    1    2    0    0  0.90536923381E+02  0.29055767456E+02 -0.13101567317E+02  0.12537043422E+03  0.80653100332E+02 0.  0.
          5    1    1    2  502    0  0.23099651185E+02  0.10948743245E+02  0.10203483429E+03  0.10527130982E+03  0.41800000000E+01 0.  1.
         -5    1    1    2    0  502 -0.11363657457E+03 -0.40004510701E+02  0.16112051469E+03  0.20122356872E+03  0.41800000000E+01 0.  1.
        -11    1    3    3    0    0  0.95189858921E+02 -0.61179945640E-01 -0.10595556149E+02  0.95777757306E+02  0.00000000000E+00 0. -1.
         11    1    3    3    0    0 -0.46529355401E+01  0.29116947402E+02 -0.25060111683E+01  0.29592676917E+02  0.00000000000E+00 0.  1.
</event>
<event>
 7    1  0.5831876E-006  0.2314417E+03  0.7561462E-02  0.1125629E+00
         -1   -1    0    0    0  501 -0.00000000000E+00  0.00000000000E+00  0.16344349479E+03  0.16344349479E+03  0.00000000000E+00 0.  1.
          1   -1    0    0  501    0  0.00000000000E+00 -0.00000000000E+00 -0.47713740883E+03  0.47713740883E+03  0.00000000000E+00 0. -1.
         23    2    1    2    0    0 -0.63415895627E+02 -0.10949293435E+03 -0.57047485778E+01  0.15225413324E+03  0.84489635116E+02 0.  0.
          5    1    1    2  502    0 -0.64384653318E+02  0.17842491310E+03 -0.28331963208E+03  0.34098140641E+03  0.41800000000E+01 0. -1.
         -5    1    1    2    0  502  0.12780054895E+03 -0.68931978751E+02 -0.24669533388E+02  0.14734536397E+03  0.41800000000E+01 0.  1.
        -11    1    3    3    0    0 -0.25151925462E+02 -0.61924044007E+02  0.38268401897E+02  0.77017382223E+02  0.00000000000E+00 0.  1.
         11    1    3    3    0    0 -0.38263970164E+02 -0.47568890345E+02 -0.43973150475E+02  0.75236751021E+02  0.00000000000E+00 0. -1.
</event>
<event>
 7    1  0.5831876E-006  0.1541163E+03  0.7561462E-02  0.1195504E+00
         -1   -1    0    0    0  501 -0.00000000000E+00  0.00000000000E+00  0.46726671914E+02  0.46726671914E+02  0.00000000000E+00 0.  1.
          1   -1    0    0  501    0  0.00000000000E+00 -0.00000000000E+00 -0.52438072612E+03  0.52438072612E+03  0.00000000000E+00 0. -1.
         23    2    1    2    0    0 -0.87813127203E+02 -0.68623788050E+02 -0.20259969600E+03  0.24904825307E+03  0.92509599183E+02 0.  0.
          5    1    1    2  502    0 -0.30066114358E+02  0.32424392819E+01 -0.32888539458E+02  0.44873300222E+02  0.41800000000E+01 0. -1.
         -5    1    1    2    0  502  0.11787924156E+03  0.65381348768E+02 -0.24216581874E+03  0.27718584474E+03  0.41800000000E+01 0. -1.
        -11    1    3    3    0    0 -0.91486105852E+02 -0.19448514033E+02 -0.11217911570E+03  0.14605514801E+03  0.00000000000E+00 0.  1.
         11    1    3    3    0    0  0.36729786492E+01 -0.49175274017E+02 -0.90420580302E+02  0.10299310506E+03  0.00000000000E+00 0. -1.
</event>
<event>
 7    1  0.5831876E-006  0.8801972E+02  0.7561462E-02  0.1307719E+00
          1   -1    0    0  501    0  0.00000000000E+00  0.00000000000E+00  0.12810352946E+03  0.12810352946E+03  0.00000000000E+00 0. -1.
         -1   -1    0    0    0  501 -0.00000000000E+00 -0.00000000000E+00 -0.91905556497E+02  0.91905556497E+02  0.00000000000E+00 0.  1.
         23    2    1    2    0    0  0.48403662885E+01  0.20162921078E+01  0.19710109082E+00  0.89738324205E+02  0.89584783321E+02 0.  0.
          5    1    1    2  502    0 -0.11975143388E+02 -0.43623206055E+02  0.64698121574E+02  0.79055091556E+02  0.41800000000E+01 0.  1.
         -5    1    1    2    0  502  0.71347770997E+01  0.41606913947E+02 -0.28697249706E+02  0.51215670192E+02  0.41800000000E+01 0.  1.
        -11    1    3    3    0    0 -0.31218809846E+02  0.29421229366E+02 -0.82020208243E+01  0.43674889481E+02  0.00000000000E+00 0.  1.
         11    1    3    3    0    0  0.36059176134E+02 -0.27404937258E+02  0.83991219151E+01  0.46063434724E+02  0.00000000000E+00 0. -1.
</event>
<event>
 7    1  0.5831876E-006  0.9595989E+02  0.7561462E-02  0.1289029E+00
         -2   -1    0    0    0  501 -0.00000000000E+00  0.00000000000E+00  0.75376451904E+02  0.75376451904E+02  0.00000000000E+00 0.  1.
          2   -1    0    0  501    0  0.00000000000E+00 -0.00000000000E+00 -0.22948014708E+03  0.22948014708E+03  0.00000000000E+00 0. -1.
         23    2    1    2    0    0  0.31454218581E+02  0.33818629098E+02 -0.13973742871E+01  0.10212653897E+03  0.91075846233E+02 0.  0.
          5    1    1    2  502    0 -0.67272543608E+02  0.19807017077E+01 -0.38305507433E+02  0.77551934873E+02  0.41800000000E+01 0.  1.
         -5    1    1    2    0  502  0.35818325027E+02 -0.35799330806E+02 -0.11440081345E+03  0.12517812514E+03  0.41800000000E+01 0.  1.
        -11    1    3    3    0    0  0.40947466661E+02  0.43759048096E+02 -0.32462082440E+02  0.68156702624E+02  0.00000000000E+00 0. -1.
         11    1    3    3    0    0 -0.94932480796E+01 -0.99404189979E+01  0.31064708153E+02  0.33969836349E+02  0.00000000000E+00 0.  1.
</event>
<event>
 7    1  0.5831876E-006  0.1593594E+03  0.7561462E-02  0.1189422E+00
          1   -1    0    0  501    0  0.00000000000E+00  0.00000000000E+00  0.18707717601E+04  0.18707717601E+04  0.00000000000E+00 0. -1.
         -1   -1    0    0    0  501 -0.00000000000E+00 -0.00000000000E+00 -0.14558734369E+02  0.14558734369E+02  0.00000000000E+00 0.  1.
         23    2    1    2    0    0 -0.12130200216E+03  0.11910590654E+02  0.73865672234E+03  0.75420913076E+03  0.91441902747E+02 0.  0.
          5    1    1    2  502    0  0.19842111924E+02 -0.54948962273E+02  0.26084228014E+03  0.26733736246E+03  0.41800000000E+01 0.  1.
         -5    1    1    2    0  502  0.10145989023E+03  0.43038371620E+02  0.85671402323E+03  0.86378400122E+03  0.41800000000E+01 0.  1.
        -11    1    3    3    0    0 -0.11904531173E+03 -0.17531453786E+02  0.64058331639E+03  0.65178686958E+03  0.00000000000E+00 0.  1.
         11    1    3    3    0    0 -0.22566904237E+01  0.29442044439E+02  0.98073405942E+02  0.10242226118E+03  0.00000000000E+00 0. -1.
</event>
<event>
 7    1  0.5831876E-006  0.9532730E+02  0.7561462E-02  0.1290441E+00
          1   -1    0    0  501    0  0.00000000000E+00  0.00000000000E+00  0.60140110804E+03  0.60140110804E+03  0.00000000000E+00 0. -1.
         -1   -1    0    0    0  501 -0.00000000000E+00 -0.00000000000E+00 -0.41287105856E+02  0.41287105856E+02  0.00000000000E+00 0.  1.
         23    2    1    2    0    0 -0.60239365283E+02 -0.21856112868E+02  0.65207826463E+02  0.12821054789E+03  0.89885555894E+02 0.  0.
          5    1    1    2  502    0 -0.10257660290E+02  0.94234071422E+01  0.37124890929E+03  0.37153363945E+03  0.41800000000E+01 0. -1.
         -5    1    1    2    0  502  0.70497025573E+02  0.12432705726E+02  0.12365726643E+03  0.14294402656E+03  0.41800000000E+01 0. -1.
        -11    1    3    3    0    0  0.19345414811E+02 -0.15086864859E+02 -0.87026959984E+00  0.24548236895E+02  0.00000000000E+00 0.  1.
         11    1    3    3    0    0 -0.79584780094E+02 -0.67692480095E+01  0.66078096063E+02  0.10366231099E+03  0.00000000000E+00 0. -1.
</event>
<event>
 7    1  0.5831876E-006  0.9974820E+02  0.7561462E-02  0.1280826E+00
          1   -1    0    0  501    0  0.00000000000E+00  0.00000000000E+00  0.21768420754E+03  0.21768420754E+03  0.00000000000E+00 0. -1.
         -1   -1    0    0    0  501 -0.00000000000E+00 -0.00000000000E+00 -0.52779184994E+02  0.52779184994E+02  0.00000000000E+00 0.  1.
         23    2    1    2    0    0 -0.27705456799E+01  0.71220827533E+01  0.70111070341E+02  0.11332712529E+03  0.88707807745E+02 0.  0.
          5    1    1    2  502    0  0.62408992214E+01 -0.65187568403E+02  0.38497574504E+02  0.76078272457E+02  0.41800000000E+01 0.  1.
         -5    1    1    2    0  502 -0.34703535414E+01  0.58065485650E+02  0.56296377702E+02  0.81057994792E+02  0.41800000000E+01 0.  1.
        -11    1    3    3    0    0 -0.84150598611E+01 -0.33502695471E+02  0.62788752877E+02  0.71663598320E+02  0.00000000000E+00 0. -1.
         11    1    3    3    0    0  0.56445141811E+01  0.40624778225E+02  0.73223174633E+01  0.41663526965E+02  0.00000000000E+00 0.  1.
</event>
<event>
 7    1  0.5831876E-006  0.1004447E+03  0.7561462E-02  0.1279364E+00
          1   -1    0    0  501    0  0.00000000000E+00  0.00000000000E+00  0.88666340713E+03  0.88666340713E+03  0.00000000000E+00 0. -1.
         -1   -1    0    0    0  501 -0.00000000000E+00 -0.00000000000E+00 -0.21626300384E+02  0.21626300384E+02  0.00000000000E+00 0.  1.
         23    2    1    2    0    0  0.28328909001E+02  0.25884349189E+02  0.14268548284E+03  0.17418275063E+03  0.92238587299E+02 0.  0.
          5    1    1    2  502    0 -0.66691118431E+02 -0.34750527086E+01  0.22450124075E+03  0.23426066842E+03  0.41800000000E+01 0. -1.
         -5    1    1    2    0  502  0.38362209430E+02 -0.22409296480E+02  0.49785038316E+03  0.49984628847E+03  0.41800000000E+01 0. -1.
        -11    1    3    3    0    0  0.10610475266E+01  0.51754701883E+02  0.41840150811E+02  0.66560297540E+02  0.00000000000E+00 0.  1.
         11    1    3    3    0    0  0.27267861474E+02 -0.25870352694E+02  0.10084533202E+03  0.10762245309E+03  0.00000000000E+00 0. -1.
</event>
<event>
 7    1  0.5831876E-006  0.1131564E+03  0.7561462E-02  0.1254834E+00
         -2   -1    0    0    0  501 -0.00000000000E+00  0.00000000000E+00  0.54697576592E+02  0.54697576592E+02  0.00000000000E+00 0.  1.
          2   -1    0    0  501    0  0.00000000000E+00 -0.00000000000E+00 -0.39177524876E+03  0.39177524876E+03  0.00000000000E+00 0. -1.
         23    2    1    2    0    0 -0.83546745481E+02 -0.39173035078E+02 -0.10243612562E+03  0.16498966090E+03  0.90630254410E+02 0.  0.
          5    1    1    2  502    0  0.81833349584E+02  0.63186377780E+02 -0.23529305542E+03  0.25703989918E+03  0.41800000000E+01 0. -1.
         -5    1    1    2    0  502  0.17133958967E+01 -0.24013342702E+02  0.65150887544E+00  0.24443265269E+02  0.41800000000E+01 0. -1.
        -11    1    3    3    0    0 -0.81081268761E+02 -0.26214019650E+02 -0.11738432044E+03  0.14505318216E+03  0.00000000000E+00 0. -1.
         11    1    3    3    0    0 -0.24654767203E+01 -0.12959015428E+02  0.14948194817E+02  0.19936478742E+02  0.00000000000E+00 0.  1.
</event>
<event>
 7    1  0.5831876E-006  0.9922153E+02  0.7561462E-02  0.1281942E+00
         -1   -1    0    0    0  501 -0.00000000000E+00  0.00000000000E+00  0.33251331428E+02  0.33251331428E+02  0.00000000000E+00 0.  1.
          1   -1    0    0  501    0  0.00000000000E+00 -0.00000000000E+00 -0.38841321139E+03  0.38841321139E+03  0.00000000000E+00 0. -1.
         23    2    1    2    0    0  0.49654647564E+01 -0.88274963682E+01 -0.84240523110E+02  0.12702390212E+03  0.94530552969E+02 0.  0.
          5    1    1    2  502    0 -0.58669359726E+02  0.80109947600E+01 -0.17267244500E+03  0.18259111553E+03  0.41800000000E+01 0. -1.
         -5    1    1    2    0  502  0.53703894969E+02  0.81650160815E+00 -0.98248911854E+02  0.11204952517E+03  0.41800000000E+01 0.  1.
        -11    1    3    3    0    0  0.23071246792E+02 -0.41713529153E+02 -0.18133516443E+02  0.51001229019E+02  0.00000000000E+00 0.  1.
         11    1    3    3    0    0 -0.18105782035E+02  0.32886032785E+02 -0.66107006668E+02  0.76022673105E+02  0.00000000000E+00 0. -1.
</event>
<event>
 7    1  0.6049664E-006  0.1758498E+03  0.7561462E-02  0.1171881E+00
         -2   -1    0    0    0  501 -0.00000000000E+00  0.00000000000E+00  0.15487150103E+03  0.15487150103E+03  0.00000000000E+00 0.  1.
          2   -1    0    0  501    0  0.00000000000E+00 -0.00000000000E+00 -0.22418931215E+03  0.22418931215E+03  0.00000000000E+00 0. -1.
         23    2    1    2    0    0 -0.13697352237E+03 -0.48527811366E+02  0.70219691311E+01  0.17268256336E+03  0.93022929055E+02 0.  0.
          5    1    1    2  502    0 -0.75466656742E+01 -0.26465072547E+02 -0.38433374909E+01  0.28099748590E+02  0.41800000000E+01 0. -1.
         -5    1    1    2    0  502  0.14452018805E+03  0.74992883913E+02 -0.72496442756E+02  0.17827850124E+03  0.41800000000E+01 0. -1.
        -11    1    3    3    0    0  0.45686849794E+01 -0.14795821230E+02 -0.19373503213E+02  0.24801649846E+02  0.00000000000E+00 0. -1.
         11    1    3    3    0    0 -0.14154220735E+03 -0.33731990136E+02  0.26395472344E+02  0.14788091351E+03  0.00000000000E+00 0.  1.
</event>
<event>
 6    1  0.5831876E-006  0.1274425E+03  0.7561462E-02  0.1231301E+00
          1   -1    0    0  501    0  0.00000000000E+00  0.00000000000E+00  0.32258179035E+03  0.32258179035E+03  0.00000000000E+00 0. -1.
         -1   -1    0    0    0  501 -0.00000000000E+00 -0.00000000000E+00 -0.67148103474E+02  0.67148103474E+02  0.00000000000E+00 0.  1.
          5    1    1    2  502    0  0.18148161428E+02 -0.60435041082E+02  0.56143333950E+02  0.84565337466E+02  0.41800000000E+01 0. -1.
         -5    1    1    2    0  502 -0.87479321635E+02 -0.10086917743E+02  0.17921177595E+03  0.19972158287E+03  0.41800000000E+01 0. -1.
        -11    1    1    2    0    0  0.18926033229E+02  0.40789992840E+02  0.98992229549E+01  0.46043597435E+02  0.00000000000E+00 0.  1.
         11    1    1    2    0    0  0.50405126978E+02  0.29731965985E+02  0.10179354016E+02  0.59399376051E+02  0.00000000000E+00 0. -1.
</event>
<event>
 7    1  0.5831876E-006  0.2388923E+03  0.7561462E-02  0.1120533E+00
          2   -1    0    0  501    0  0.00000000000E+00  0.00000000000E+00  0.44146215271E+03  0.44146215271E+03  0.00000000000E+00 0. -1.
         -2   -1    0    0    0  501 -0.00000000000E+00 -0.00000000000E+00 -0.16528564797E+03  0.16528564797E+03  0.00000000000E+00 0.  1.
         23    2    1    2    0    0  0.20532447667E+03 -0.79986613495E+02  0.96436360424E+01  0.23899315904E+03  0.92025709946E+02 0.  0.
          5    1    1    2  502    0 -0.14051212869E+03 -0.11605351556E+02  0.14475945808E+03  0.20211658912E+03  0.41800000000E+01 0.  1.
         -5    1    1    2    0  502 -0.64812347984E+02  0.91591965051E+02  0.12177341061E+03  0.16563805253E+03  0.41800000000E+01 0.  1.
        -11    1    3    3    0    0  0.88292240454E+02 -0.57253171774E+02  0.45283536768E+02  0.11456022043E+03  0.00000000000E+00 0. -1.
         11    1    3    3    0    0  0.11703223622E+03 -0.22733441721E+02 -0.35639900726E+02  0.12443293861E+03  0.00000000000E+00 0.  1.
</event>
<event>
 7    1  0.5831876E-006  0.1238213E+03  0.7561462E-02  0.1236923E+00
          2   -1    0    0  501    0  0.00000000000E+00  0.00000000000E+00  0.20840267083E+03  0.20840267083E+03  0.00000000000E+00 0.  1.
         -2   -1    0    0    0  501 -0.00000000000E+00 -0.00000000000E+00 -0.21985554198E+03  0.21985554198E+03  0.00000000000E+00 0. -1.
         23    2    1    2    0    0 -0.81748556367E+02  0.37008352175E+02 -0.16593560265E+03  0.21017539210E+03  0.92664052464E+02 0.  0.
          5    1    1    2  502    0  0.86158201972E+02  0.10687791549E+02  0.14502863962E+03  0.16908058246E+03  0.41800000000E+01 0.  1.
         -5    1    1    2    0  502 -0.44096456051E+01 -0.47696143724E+02  0.94540918814E+01  0.49002238253E+02  0.41800000000E+01 0.  1.
        -11    1    3    3    0    0  0.11277639010E+02  0.11665091143E+02  0.21828513250E+01  0.16371448712E+02  0.00000000000E+00 0.  1.
         11    1    3    3    0    0 -0.93026195377E+02  0.25343261032E+02 -0.16811845398E+03  0.19380394339E+03  0.00000000000E+00 0. -1.
</event>
<event>
 7    1  0.5831876E-006  0.9764309E+02  0.7561462E-02  0.1285332E+00
          3   -1    0    0  501    0  0.00000000000E+00  0.00000000000E+00  0.55873641403E+03  0.55873641403E+03  0.00000000000E+00 0. -1.
         -3   -1    0    0    0  501 -0.00000000000E+00 -0.00000000000E+00 -0.24463699048E+02  0.24463699048E+02  0.00000000000E+00 0.  1.
         23    2    1    2    0    0 -0.34673427539E+02 -0.62488814840E+01  0.22149108318E+03  0.24449803014E+03  0.97363708414E+02 0.  0.
          5    1    1    2  502    0  0.57532407736E+02 -0.16297173273E+02  0.29642926011E+03  0.30242908995E+03  0.41800000000E+01 0.  1.
         -5    1    1    2    0  502 -0.22858980197E+02  0.22546054757E+02  0.16352371692E+02  0.36272992993E+02  0.41800000000E+01 0.  1.
        -11    1    3    3    0    0  0.32736631709E+02 -0.12990496756E+02  0.63924990448E+02  0.72985234571E+02  0.00000000000E+00 0. -1.
         11    1    3    3    0    0 -0.67410059249E+02  0.67416152721E+01  0.15756609274E+03  0.17151279557E+03  0.00000000000E+00 0.  1.
</event>
<event>
 7    1  0.5831876E-006  0.1869044E+03  0.7561462E-02  0.1161283E+00
          1   -1    0    0  501    0  0.00000000000E+00  0.00000000000E+00  0.15769560370E+03  0.15769560370E+03  0.00000000000E+00 0. -1.
         -1   -1    0    0    0  501 -0.00000000000E+00 -0.00000000000E+00 -0.33522388383E+03  0.33522388383E+03  0.00000000000E+00 0.  1.
         23    2    1    2    0    0 -0.98931158606E+02  0.13700504171E+03 -0.20628022159E+03  0.28071077698E+03  0.87688396591E+02 0.  0.
          5    1    1    2  502    0 -0.21466363277E+02 -0.25385319576E+02 -0.22272124466E+02  0.40233557269E+02  0.41800000000E+01 0.  1.
         -5    1    1    2    0  502  0.12039752188E+03 -0.11161972213E+03  0.51024065927E+02  0.17197515329E+03  0.41800000000E+01 0.  1.
        -11    1    3    3    0    0 -0.75132610643E+02  0.62095928522E+02 -0.16572912303E+03  0.19226792697E+03  0.00000000000E+00 0.  1.
         11    1    3    3    0    0 -0.23798547963E+02  0.74909113183E+02 -0.40551098558E+02  0.88442850006E+02  0.00000000000E+00 0. -1.
</event>
<event>
 7    1  0.5831876E-006  0.1113499E+03  0.7561462E-02  0.1258090E+00
          1   -1    0    0  501    0  0.00000000000E+00  0.00000000000E+00  0.14812796874E+02  0.14812796874E+02  0.00000000000E+00 0. -1.
         -1   -1    0    0    0  501 -0.00000000000E+00 -0.00000000000E+00 -0.88783994029E+03  0.88783994029E+03  0.00000000000E+00 0.  1.
         23    2    1    2    0    0 -0.38834288873E+02  0.47509179254E+01 -0.36594245314E+03  0.37890417068E+03  0.90132226958E+02 0.  0.
          5    1    1    2  502    0 -0.32935220937E+02 -0.33564459390E+02 -0.11922800239E+03  0.12823451434E+03  0.41800000000E+01 0. -1.
         -5    1    1    2    0  502  0.71769509810E+02  0.28813541464E+02 -0.38785668788E+03  0.39551405215E+03  0.41800000000E+01 0. -1.
        -11    1    3    3    0    0  0.28924980695E+02 -0.56936785173E+01 -0.12192494178E+03  0.12543828726E+03  0.00000000000E+00 0.  1.
         11    1    3    3    0    0 -0.67759269567E+02  0.10444596443E+02 -0.24401751136E+03  0.25346588341E+03  0.00000000000E+00 0. -1.
</event>
<event>
 7    1  0.5831876E-006  0.1227251E+03  0.7561462E-02  0.1238668E+00
          1   -1    0    0  501    0  0.00000000000E+00  0.00000000000E+00  0.87524199424E+03  0.87524199424E+03  0.00000000000E+00 0. -1.
         -1   -1    0    0    0  501 -0.00000000000E+00 -0.00000000000E+00 -0.24487991453E+02  0.24487991453E+02  0.00000000000E+00 0.  1.
         23    2    1    2    0    0 -0.43667923278E+02  0.83379804271E+02  0.28302494158E+03  0.31084954507E+03  0.87551372512E+02 0.  0.
          5    1    1    2  502    0 -0.39645061687E+02 -0.43047410881E+02  0.29685531974E+03  0.30259769292E+03  0.41800000000E+01 0. -1.
         -5    1    1    2    0  502  0.83312984965E+02 -0.40332393389E+02  0.27087374146E+03  0.28628274771E+03  0.41800000000E+01 0. -1.
        -11    1    3    3    0    0 -0.21610011094E+02  0.41109176751E+02  0.24636802852E+03  0.25070732433E+03  0.00000000000E+00 0.  1.
         11    1    3    3    0    0 -0.22057912184E+02  0.42270627519E+02  0.36656913057E+02  0.60142220741E+02  0.00000000000E+00 0. -1.
</event>
<event>
 7    1  0.5831876E-006  0.1140743E+03  0.7561462E-02  0.1253206E+00
         -1   -1    0    0    0  501 -0.00000000000E+00  0.00000000000E+00  0.25187580632E+02  0.25187580632E+02  0.00000000000E+00 0.  1.
          1   -1    0    0  501    0  0.00000000000E+00 -0.00000000000E+00 -0.16782931687E+04  0.16782931687E+04  0.00000000000E+00 0. -1.
         23    2    1    2    0    0 -0.46474801627E+02 -0.29710428256E+02 -0.10509058779E+03  0.14944040911E+03  0.90806318610E+02 0.  0.
          5    1    1    2  502    0  0.86127467369E+02  0.40478200330E+02 -0.11133403209E+04  0.11174079684E+04  0.41800000000E+01 0. -1.
         -5    1    1    2    0  502 -0.39652665742E+02 -0.10767772074E+02 -0.43467467940E+03  0.43663237183E+03  0.41800000000E+01 0. -1.
        -11    1    3    3    0    0 -0.41711674141E+02  0.16704467176E+02 -0.89673325079E+02  0.10030058930E+03  0.00000000000E+00 0. -1.
         11    1    3    3    0    0 -0.47631274858E+01 -0.46414895432E+02 -0.15417262710E+02  0.49139819809E+02  0.00000000000E+00 0.  1.
</event>
<event>
 7    1  0.5831876E-006  0.1274904E+03  0.7561462E-02  0.1231228E+00
         -2   -1    0    0    0  501 -0.00000000000E+00  0.00000000000E+00  0.24040409067E+02  0.24040409067E+02  0.00000000000E+00 0.  1.
          2   -1    0    0  501    0  0.00000000000E+00 -0.00000000000E+00 -0.89415890797E+03  0.89415890797E+03  0.00000000000E+00 0. -1.
         23    2    1    2    0    0  0.24615823896E+02  0.77118586542E+02 -0.23653169304E+03  0.26732965295E+03  0.94682027645E+02 0.  0.
          5    1    1    2  502    0  0.19111421226E+02  0.17422410636E+02 -0.37549539626E+02  0.45784573163E+02  0.41800000000E+01 0. -1.
         -5    1    1    2    0  502 -0.43727245122E+02 -0.94540997178E+02 -0.59603726624E+03  0.60508509092E+03  0.41800000000E+01 0. -1.
        -11    1    3    3    0    0 -0.32076429224E+02  0.55024350383E+02 -0.12409690507E+03  0.13948698253E+03  0.00000000000E+00 0.  1.
         11    1    3    3    0    0  0.56692253120E+02  0.22094236159E+02 -0.11243478797E+03  0.12784267043E+03  0.00000000000E+00 0. -1.
</event>
<event>
 7    1  0.5831876E-006  0.1017684E+03  0.7561462E-02  0.1276621E+00
         -2   -1    0    0    0  501 -0.00000000000E+00  0.00000000000E+00  0.29330918980E+02  0.29330918980E+02  0.00000000000E+00 0.  1.
          2   -1    0    0  501    0  0.00000000000E+00 -0.00000000000E+00 -0.54605916045E+03  0.54605916045E+03  0.00000000000E+00 0. -1.
         23    2    1    2    0    0  0.33366467923E+01 -0.64242661814E+02 -0.21702952168E+03  0.24432738479E+03  0.91955450467E+02 0.  0.
          5    1    1    2  502    0  0.24429336403E+02 -0.73257450064E+00 -0.17891785231E+01  0.24859660140E+02  0.41800000000E+01 0. -1.
         -5    1    1    2    0  502 -0.27765983195E+02  0.64975236314E+02 -0.29790954127E+03  0.30620303450E+03  0.41800000000E+01 0. -1.
        -11    1    3    3    0    0 -0.71988464691E+01  0.20931900806E+02 -0.21806759011E+02  0.31072537721E+02  0.00000000000E+00 0. -1.
         11    1    3    3    0    0  0.10535493261E+02 -0.85174562620E+02 -0.19522276267E+03  0.21325484707E+03  0.00000000000E+00 0.  1.
</event>
<event>
 7    1  0.5831876E-006  0.9264137E+02  0.7561462E-02  0.1296578E+00
         -1   -1    0    0    0  501 -0.00000000000E+00  0.00000000000E+00  0.43808005164E+03  0.43808005164E+03  0.00000000000E+00 0.  1.
          1   -1    0    0  501    0  0.00000000000E+00 -0.00000000000E+00 -0.35497955504E+02  0.35497955504E+02  0.00000000000E+00 0. -1.
         23    2    1    2    0    0  0.10962635458E+02 -0.17721444534E+02  0.28733578564E+03  0.30222264150E+03  0.91336971434E+02 0.  0.
          5    1    1    2  502    0 -0.40682674112E+02 -0.19990041198E+02 -0.98079401973E+00  0.45531484457E+02  0.41800000000E+01 0.  1.
         -5    1    1    2    0  502  0.29720038654E+02  0.37711485731E+02  0.11622710451E+03  0.12582388119E+03  0.41800000000E+01 0.  1.
        -11    1    3    3    0    0  0.50271159350E+02 -0.13355731544E+02  0.19402171779E+03  0.20087307436E+03  0.00000000000E+00 0.  1.
         11    1    3    3    0    0 -0.39308523892E+02 -0.43657129898E+01  0.93314067856E+02  0.10134956714E+03  0.00000000000E+00 0. -1.
</event>
<event>
 7    1  0.5831876E-006  0.1361475E+03  0.7561462E-02  0.1218609E+00
          1   -1    0    0  501    0  0.00000000000E+00  0.00000000000E+00  0.71198222608E+03  0.71198222608E+03  0.00000000000E+00 0. -1.
         -1   -1    0    0    0  501 -0.00000000000E+00 -0.00000000000E+00 -0.36786974658E+02  0.36786974658E+02  0.00000000000E+00 0.  1.
         23    2    1    2    0    0  0.45344422817E+02 -0.98818142961E+02  0.19790820497E+03  0.24352455501E+03  0.91188865770E+02 0.  0.
          5    1    1    2  502    0 -0.31128533194E+02 -0.86710690497E+01  0.27751914794E+02  0.42799698504E+02  0.41800000000E+01 0.  1.
         -5    1    1    2    0  502 -0.14215889623E+02  0.10748921201E+03  0.44953513166E+03  0.46244494722E+03  0.41800000000E+01 0.  1.
        -11    1    3    3    0    0  0.62460415970E+02 -0.51718419506E+02  0.73669102486E+02  0.10955927683E+03  0.00000000000E+00 0.  1.
         11    1    3    3    0    0 -0.17115993153E+02 -0.47099723455E+02  0.12423910249E+03  0.13396527818E+03  0.00000000000E+00 0. -1.
</event>
<event>
 7    1  0.5831876E-006  0.1013720E+03  0.7561462E-02  0.1277437E+00
          3   -1    0    0  501    0  0.00000000000E+00  0.00000000000E+00  0.13325916056E+03  0.13325916056E+03  0.00000000000E+00 0. -1.
         -3   -1    0    0    0  501 -0.00000000000E+00 -0.00000000000E+00 -0.15973889694E+03  0.15973889694E+03  0.00000000000E+00 0.  1.
         23    2    1    2    0    0 -0.66596109118E+02  0.32892553378E+02 -0.74862927701E+02  0.13968401854E+03  0.91598063708E+02 0.  0.
          5    1    1    2  502    0  0.66304031003E+02 -0.12239009266E+02 -0.28703332634E+02  0.73398716470E+02  0.41800000000E+01 0.  1.
         -5    1    1    2    0  502  0.29207811529E+00 -0.20653544113E+02  0.77086523954E+02  0.79915322494E+02  0.41800000000E+01 0.  1.
        -11    1    3    3    0    0  0.15827363714E+02  0.27233412513E+02 -0.58562477204E+01  0.32038411893E+02  0.00000000000E+00 0. -1.
         11    1    3    3    0    0 -0.82423472833E+02  0.56591408651E+01 -0.69006679981E+02  0.10764560665E+03  0.00000000000E+00 0.  1.
</event>
<event>
 7    1  0.5831876E-006  0.2423299E+03  0.7561462E-02  0.1118250E+00
         -4   -1    0    0    0  501 -0.00000000000E+00  0.00000000000E+00  0.29427067047E+03  0.29427067047E+03  0.00000000000E+00 0.  1.
          4   -1    0    0  501    0  0.00000000000E+00 -0.00000000000E+00 -0.23015535086E+03  0.23015535086E+03  0.00000000000E+00 0. -1.
         23    2    1    2    0    0  0.54147709033E+02 -0.22738524394E+03  0.64251590330E+02  0.25931673769E+03  0.92091693592E+02 0.  0.
          5    1    1    2  502    0 -0.57403630298E+02  0.87364992288E+02 -0.50554568857E+02  0.11619404237E+03  0.41800000000E+01 0. -1.
         -5    1    1    2    0  502  0.32559212643E+01  0.14002025165E+03  0.50418298137E+02  0.14891524127E+03  0.41800000000E+01 0. -1.
        -11    1    3    3    0    0  0.49129348856E+02 -0.90774484913E+02  0.66160300089E+02  0.12260051117E+03  0.00000000000E+00 0.  1.
         11    1    3    3    0    0  0.50183601779E+01 -0.13661075903E+03 -0.19087097588E+01  0.13671622652E+03  0.00000000000E+00 0. -1.
</event>
<event>
 7    1  0.5831876E-006  0.9438187E+02  0.7561462E-02  0.1292574E+00
         -2   -1    0    0    0  501 -0.00000000000E+00  0.00000000000E+00  0.23377582519E+02  0.23377582519E+02  0.00000000000E+00 0.  1.
          2   -1    0    0  501    0  0.00000000000E+00 -0.00000000000E+00 -0.77952471573E+03  0.77952471573E+03  0.00000000000E+00 0. -1.
         23    2    1    2    0    0 -0.94259189210E+01 -0.32758412057E+02 -0.11496516860E+03  0.15015509379E+03  0.90374779075E+02 0.  0.
          5    1    1    2  502    0 -0.33960445965E+02  0.56371188494E+02 -0.25466007694E+03  0.26305940388E+03  0.41800000000E+01 0. -1.
         -5    1    1    2    0  502  0.43386364886E+02 -0.23612776437E+02 -0.38652188768E+03  0.38968780058E+03  0.41800000000E+01 0.  1.
        -11    1    3    3    0    0 -0.27653255524E+02  0.78423273775E+01 -0.20860214278E+01  0.28819370659E+02  0.00000000000E+00 0. -1.
         11    1    3    3    0    0  0.18227336603E+02 -0.40600739434E+02 -0.11287914717E+03  0.12133572313E+03  0.00000000000E+00 0.  1.
</event>
<event>
 7    1  0.5831876E-006  0.2107489E+03  0.7561462E-02  0.1140974E+00
         -1   -1    0    0    0  501 -0.00000000000E+00  0.00000000000E+00  0.12455662516E+04  0.12455662516E+04  0.00000000000E+00 0.  1.
          1   -1    0    0  501    0  0.00000000000E+00 -0.00000000000E+00 -0.41451948259E+02  0.41451948259E+02  0.00000000000E+00 0. -1.
         23    2    1    2    0    0  0.19667927719E+03 -0.45809183454E+01  0.68688546344E+03  0.71967534377E+03  0.86123386291E+02 0.  0.
          5    1    1    2  502    0 -0.15297553576E+03 -0.32705198813E+02  0.25764906818E+03  0.30144926489E+03  0.41800000000E+01 0. -1.
         -5    1    1    2    0  502 -0.43703741433E+02  0.37286117158E+02  0.25957977176E+03  0.26589359123E+03  0.41800000000E+01 0. -1.
        -11    1    3    3    0    0  0.13914181634E+03  0.27055937314E+02  0.37368605154E+03  0.39966702880E+03  0.00000000000E+00 0. -1.
         11    1    3    3    0    0  0.57537460856E+02 -0.31636855659E+02  0.31319941190E+03  0.32000831497E+03  0.00000000000E+00 0.  1.
</event>
<event>
 7    1  0.5831876E-006  0.9812547E+02  0.7561462E-02  0.1284288E+00
         -3   -1    0    0    0  501 -0.00000000000E+00  0.00000000000E+00  0.84007392922E+02  0.84007392922E+02  0.00000000000E+00 0.  1.
          3   -1    0    0  501    0  0.00000000000E+00 -0.00000000000E+00 -0.14074060071E+03  0.14074060071E+03  0.00000000000E+00 0. -1.
         23    2    1    2    0    0  0.10740507339E+02 -0.17517481011E+02 -0.17625301148E+02  0.92086779078E+02  0.88017628925E+02 0.  0.
          5    1    1    2  502    0 -0.27053638841E+02  0.64886700809E+02 -0.24959839215E+01  0.70469040380E+02  0.41800000000E+01 0. -1.
         -5    1    1    2    0  502  0.16313131502E+02 -0.47369219797E+02 -0.36611922722E+02  0.62192174178E+02  0.41800000000E+01 0. -1.
        -11    1    3    3    0    0  0.23632160006E+02  0.23034306619E+02  0.17096429986E+02  0.37166465883E+02  0.00000000000E+00 0.  1.
         11    1    3    3    0    0 -0.12891652667E+02 -0.40551787631E+02 -0.34721731134E+02  0.54920313195E+02  0.00000000000E+00 0. -1.
</event>
<event>
 7    1  0.5831876E-006  0.8449288E+02  0.7561462E-02  0.1316764E+00
          1   -1    0    0  501    0  0.00000000000E+00  0.00000000000E+00  0.34001448309E+03  0.34001448309E+03  0.00000000000E+00 0. -1.
         -1   -1    0    0    0  501 -0.00000000000E+00 -0.00000000000E+00 -0.50804006411E+02  0.50804006411E+02  0.00000000000E+00 0.  1.
         23    2    1    2    0    0  0.15268102154E+01  0.29435798649E+02  0.32093623130E+02  0.10337212640E+03  0.93738991243E+02 0.  0.
          5    1    1    2  502    0  0.28063115049E+02 -0.64369575728E+02  0.21063379238E+03  0.22206991601E+03  0.41800000000E+01 0.  1.
         -5    1    1    2    0  502 -0.29589925265E+02  0.34933777079E+02  0.46483061170E+02  0.65376447089E+02  0.41800000000E+01 0.  1.
        -11    1    3    3    0    0  0.19252996271E+02  0.11497198998E+01 -0.28370216011E+02  0.34305522555E+02  0.00000000000E+00 0.  1.
         11    1    3    3    0    0 -0.17726186056E+02  0.28286078749E+02  0.60463839140E+02  0.69066603845E+02  0.00000000000E+00 0. -1.
</event>
<event>
 7    1  0.5831876E-006  0.9343397E+02  0.7561462E-02  0.1294743E+00
          1   -1    0    0  501    0  0.00000000000E+00  0.00000000000E+00  0.17387407959E+03  0.17387407959E+03  0.00000000000E+00 0. -1.
         -1   -1    0    0    0  501 -0.00000000000E+00 -0.00000000000E+00 -0.19165856709E+03  0.19165856709E+03  0.00000000000E+00 0.  1.
         23    2    1    2    0    0 -0.63999769260E+02 -0.17375927928E+02 -0.13369758228E+03  0.17107289365E+03  0.83624147827E+02 0.  0.
          5    1    1    2  502    0  0.48654696840E+02 -0.12126594941E+02  0.14285492479E+03  0.15145737277E+03  0.41800000000E+01 0. -1.
         -5    1    1    2    0  502  0.15345072420E+02  0.29502522869E+02 -0.26941830008E+02  0.43002380252E+02  0.41800000000E+01 0.  1.
        -11    1    3    3    0    0  0.63182872403E+01 -0.30804499196E+02 -0.21905743834E+02  0.38323615921E+02  0.00000000000E+00 0. -1.
         11    1    3    3    0    0 -0.70318056500E+02  0.13428571268E+02 -0.11179183844E+03  0.13274927773E+03  0.00000000000E+00 0.  1.
</event>
<event>
 7    1  0.5831876E-006  0.1040862E+03  0.7561462E-02  0.1271931E+00
          1   -1    0    0  501    0  0.00000000000E+00  0.00000000000E+00  0.84430211981E+03  0.84430211981E+03  0.00000000000E+00 0. -1.
         -1   -1    0    0    0  501 -0.00000000000E+00 -0.00000000000E+00 -0.17234499262E+02  0.17234499262E+02  0.00000000000E+00 0.  1.
         23    2    1    2    0    0 -0.40909383240E+02  0.13666209628E+02  0.19295159779E+03  0.21376241394E+03  0.81263199547E+02 0.  0.
          5    1    1    2  502    0  0.33788048025E+02 -0.68681805977E+02  0.37424215226E+03  0.38201241287E+03  0.41800000000E+01 0.  1.
         -5    1    1    2    0  502  0.71213352152E+01  0.55015596350E+02  0.25987387050E+03  0.26576179226E+03  0.41800000000E+01 0.  1.
        -11    1    3    3    0    0  0.66520429282E+01 -0.17701194855E+02  0.85371122426E+01  0.20747632632E+02  0.00000000000E+00 0.  1.
         11    1    3    3    0    0 -0.47561426168E+02  0.31367404482E+02  0.18441448555E+03  0.19301478131E+03  0.00000000000E+00 0. -1.
</event>
<event>
 7    1  0.5831876E-006  0.1147766E+03  0.7561462E-02  0.1251971E+00
          2   -1    0    0  501    0  0.00000000000E+00  0.00000000000E+00  0.15835912293E+03  0.15835912293E+03  0.00000000000E+00 0. -1.
         -2   -1    0    0    0  501 -0.00000000000E+00 -0.00000000000E+00 -0.13876675207E+03  0.13876675207E+03  0.00000000000E+00 0.  1.
         23    2    1    2    0    0  0.26985643226E+02 -0.82762132777E+02 -0.42370449891E+02  0.13262328745E+03  0.90641523530E+02 0.  0.
          5    1    1    2  502    0  0.15198100307E+02  0.44196425560E+02 -0.30324616436E+02  0.55869142173E+02  0.41800000000E+01 0. -1.
         -5    1    1    2    0  502 -0.42183743533E+02  0.38565707218E+02  0.92287437187E+02  0.10863344538E+03  0.41800000000E+01 0. -1.
        -11    1    3    3    0    0  0.40168851834E+02  0.13413971640E+01 -0.18257105707E+02  0.44143605570E+02  0.00000000000E+00 0.  1.
         11    1    3    3    0    0 -0.13183208607E+02 -0.84103529941E+02 -0.24113344184E+02  0.88479681880E+02  0.00000000000E+00 0. -1.
</event>
<event>
 7    1  0.5831876E-006  0.1049920E+03  0.7561462E-02  0.1270135E+00
         -2   -1    0    0    0  501 -0.00000000000E+00  0.00000000000E+00  0.10459444817E+03  0.10459444817E+03  0.00000000000E+00 0.  1.
          2   -1    0    0  501    0  0.00000000000E+00 -0.00000000000E+00 -0.13436342123E+03  0.13436342123E+03  0.00000000000E+00 0. -1.
         23    2    1    2    0    0  0.56407876017E+01  0.25608812302E+01  0.35500810511E+02  0.97718917626E+02  0.90831177013E+02 0.  0.
          5    1    1    2  502    0 -0.64677484436E+02  0.57701791199E+01 -0.39758450033E+02  0.76254040608E+02  0.41800000000E+01 0. -1.
         -5    1    1    2    0  502  0.59036696834E+02 -0.83310603501E+01 -0.25511333545E+02  0.64984911163E+02  0.41800000000E+01 0. -1.
        -11    1    3    3    0    0  0.28540312589E+02  0.35174689372E+02  0.14789004785E+01  0.45321025603E+02  0.00000000000E+00 0. -1.
         11    1    3    3    0    0 -0.22899524987E+02 -0.32613808142E+02  0.34021910032E+02  0.52397892022E+02  0.00000000000E+00 0.  1.
</event>
<event>
 7    1  0.5831876E-006  0.8705260E+02  0.7561462E-02  0.1310150E+00
          2   -1    0    0  501    0  0.00000000000E+00  0.00000000000E+00  0.41293949942E+03  0.41293949942E+03  0.00000000000E+00 0. -1.
         -2   -1    0    0    0  501 -0.00000000000E+00 -0.00000000000E+00 -0.57820553861E+02  0.57820553861E+02  0.00000000000E+00 0.  1.
         23    2    1    2    0    0  0.55785710094E+02  0.41489051048E+02  0.34408592059E+02  0.11957176541E+03  0.90994884842E+02 0.  0.
          5    1    1    2  502    0 -0.35494587666E+02  0.19118323411E+02  0.22870634988E+02  0.46539385346E+02  0.41800000000E+01 0. -1.
         -5    1    1    2    0  502 -0.20291122429E+02 -0.60607374460E+02  0.29783971852E+03  0.30464890253E+03  0.41800000000E+01 0. -1.
        -11    1    3    3    0    0  0.10156419140E+02  0.76228464089E+01 -0.30658840967E+02  0.33184712845E+02  0.00000000000E+00 0.  1.
         11    1    3    3    0    0  0.45629290954E+02  0.33866204639E+02  0.65067433027E+02  0.86387052562E+02  0.00000000000E+00 0. -1.
</event>
<event>
 7    1  0.5831876E-006  0.2639866E+03  0.7561462E-02  0.1104771E+00
          1   -1    0    0  501    0  0.00000000000E+00  0.00000000000E+00  0.82445307645E+02  0.82445307645E+02  0.00000000000E+00 0. -1.
         -1   -1    0    0    0  501 -0.00000000000E+00 -0.00000000000E+00 -0.95458704999E+03  0.95458704999E+03  0.00000000000E+00 0.  1.
         23    2    1    2    0    0 -0.14254325554E+03  0.20765974258E+03 -0.53377827190E+03  0.59705794060E+03  0.90098792976E+02 0.  0.
          5    1    1    2  502    0  0.73057533240E+02 -0.22473425638E+02 -0.14149068230E+03  0.16087120190E+03  0.41800000000E+01 0.  1.
         -5    1    1    2    0  502  0.69485722301E+02 -0.18518631694E+03 -0.19687278815E+03  0.27910321514E+03  0.41800000000E+01 0.  1.
        -11    1    3    3    0    0 -0.71015374511E+02  0.77858261479E+02 -0.32020476783E+03  0.33709966722E+03  0.00000000000E+00 0.  1.
         11    1    3    3    0    0 -0.71527881030E+02  0.12980148110E+03 -0.21357350407E+03  0.25995827338E+03  0.00000000000E+00 0. -1.
</event>
<event>
 7    1  0.5831876E-006  0.9346740E+02  0.7561462E-02  0.1294666E+00
         -3   -1    0    0    0  501 -0.00000000000E+00  0.00000000000E+00  0.94862103498E+01  0.94862103498E+01  0.00000000000E+00 0.  1.
          3   -1    0    0  501    0  0.00000000000E+00 -0.00000000000E+00 -0.14595316474E+04  0.14595316474E+04  0.00000000000E+00 0. -1.
         23    2    1    2    0    0  0.32151054461E+02 -0.43895646183E+01 -0.42668015678E+03  0.43752550945E+03  0.91212151870E+02 0.  0.
          5    1    1    2  502    0  0.28225577634E+02  0.79728448740E+01 -0.67611492115E+02  0.73817584315E+02  0.41800000000E+01 0.  1.
         -5    1    1    2    0  502 -0.60376632095E+02 -0.35832802557E+01 -0.95575378815E+03  0.95767476398E+03  0.41800000000E+01 0.  1.
        -11    1    3    3    0    0  0.13220932595E+02  0.43352264365E+02 -0.18870687840E+03  0.19407343414E+03  0.00000000000E+00 0. -1.
         11    1    3    3    0    0  0.18930121866E+02 -0.47741828983E+02 -0.23797327837E+03  0.24345207530E+03  0.00000000000E+00 0.  1.
</event>
<event>
 7    1  0.5831876E-006  0.1913290E+03  0.7561462E-02  0.1157268E+00
         -3   -1    0    0    0  501 -0.00000000000E+00  0.00000000000E+00  0.84588231415E+03  0.84588231415E+03  0.00000000000E+00 0.  1.
          3   -1    0    0  501    0  0.00000000000E+00 -0.00000000000E+00 -0.73146580206E+02  0.73146580206E+02  0.00000000000E+00 0. -1.
         23    2    1    2    0    0 -0.16626885480E+03 -0.40535554297E+02  0.63978893875E+03  0.66880592992E+03  0.93182737235E+02 0.  0.
          5    1    1    2  502    0  0.17454484939E+03  0.24573469594E+02  0.14491171064E+03  0.22822496826E+03  0.41800000000E+01 0. -1.
         -5    1    1    2    0  502 -0.82759945879E+01  0.15962084704E+02 -0.11964915437E+02  0.21997996180E+02  0.41800000000E+01 0. -1.
        -11    1    3    3    0    0 -0.10162902742E+03  0.14915099315E+02  0.25933767626E+03  0.27893897134E+03  0.00000000000E+00 0. -1.
         11    1    3    3    0    0 -0.64639827376E+02 -0.55450653612E+02  0.38045126248E+03  0.38986695858E+03  0.00000000000E+00 0.  1.
</event>
<event>
 7    1  0.5831876E-006  0.6407786E+02  0.7561462E-02  0.1381474E+00
         -2   -1    0    0    0  501 -0.00000000000E+00  0.00000000000E+00  0.46537734114E+02  0.46537734114E+02  0.00000000000E+00 0.  1.
          2   -1    0    0  501    0  0.00000000000E+00 -0.00000000000E+00 -0.22479750383E+03  0.22479750383E+03  0.00000000000E+00 0. -1.
         23    2    1    2    0    0  0.14443080545E+02  0.97245830715E+00 -0.45678736001E+02  0.88483631709E+02  0.74385871689E+02 0.  0.
          5    1    1    2  502    0 -0.40752022736E+02  0.78204306904E+01  0.53946156561E+01  0.42053070890E+02  0.41800000000E+01 0.  1.
         -5    1    1    2    0  502  0.26308942191E+02 -0.87928889976E+01 -0.13797564937E+03  0.14079853535E+03  0.41800000000E+01 0.  1.
        -11    1    3    3    0    0 -0.21098081563E+02  0.72444144832E+01  0.80873111680E+01  0.23727941098E+02  0.00000000000E+00 0.  1.
         11    1    3    3    0    0  0.35541162108E+02 -0.62719561760E+01 -0.53766047169E+02  0.64755690610E+02  0.00000000000E+00 0. -1.
</event>
<event>
 7    1  0.5831876E-006  0.1624676E+03  0.7561462E-02  0.1185939E+00
          2   -1    0    0  501    0  0.00000000000E+00  0.00000000000E+00  0.62249546996E+03  0.62249546996E+03  0.00000000000E+00 0. -1.
         -2   -1    0    0    0  501 -0.00000000000E+00 -0.00000000000E+00 -0.34431711201E+03  0.34431711201E+03  0.00000000000E+00 0.  1.
         23    2    1    2    0    0  0.14827592052E+03  0.12785036536E+02 -0.30464376855E+03  0.35241967154E+03  0.96138407556E+02 0.  0.
          5    1    1    2  502    0 -0.70663525997E+02  0.44159545854E+01  0.87120807882E+02  0.11234029610E+03  0.41800000000E+01 0.  1.
         -5    1    1    2    0  502 -0.77612394521E+02 -0.17200991121E+02  0.49570131861E+03  0.50205261433E+03  0.41800000000E+01 0.  1.
        -11    1    3    3    0    0  0.44934543349E+02 -0.38377020725E+02 -0.13418997878E+03  0.14662489322E+03  0.00000000000E+00 0.  1.
         11    1    3    3    0    0  0.10334137717E+03  0.51162057261E+02 -0.17045378977E+03  0.20579477832E+03  0.00000000000E+00 0. -1.
</event>
<event>
 7    1  0.5831876E-006  0.2149936E+03  0.7561462E-02  0.1137672E+00
         -1   -1    0    0    0  501 -0.00000000000E+00  0.00000000000E+00  0.48579738648E+02  0.48579738648E+02  0.00000000000E+00 0.  1.
          1   -1    0    0  501    0  0.00000000000E+00 -0.00000000000E+00 -0.11475911817E+04  0.11475911817E+04  0.00000000000E+00 0. -1.
         23    2    1    2    0    0  0.11547457498E+03 -0.16251200543E+03 -0.54645490688E+03  0.58884514651E+03  0.91548413094E+02 0.  0.
          5    1    1    2  502    0 -0.67890824260E+02  0.82392891123E+01 -0.67868020046E+02  0.96439568896E+02  0.41800000000E+01 0. -1.
         -5    1    1    2    0  502 -0.47583750719E+02  0.15427271632E+03 -0.48468851609E+03  0.51088620490E+03  0.41800000000E+01 0.  1.
        -11    1    3    3    0    0  0.13011173989E+02 -0.28038456252E+02 -0.22340406636E+02  0.38138424800E+02  0.00000000000E+00 0.  1.
         11    1    3    3    0    0  0.10246340099E+03 -0.13447354918E+03 -0.52411450025E+03  0.55070672171E+03  0.00000000000E+00 0. -1.
</event>
<event>
 7    1  0.5831876E-006  0.1258704E+03  0.7561462E-02  0.1233715E+00
         -2   -1    0    0    0  501 -0.00000000000E+00  0.00000000000E+00  0.35894555537E+02  0.35894555537E+02  0.00000000000E+00 0.  1.
          2   -1    0    0  501    0  0.00000000000E+00 -0.00000000000E+00 -0.46068538420E+03  0.46068538420E+03  0.00000000000E+00 0. -1.
         23    2    1    2    0    0  0.43158727525E+01 -0.49376593061E+02 -0.14943700149E+03  0.18222116247E+03  0.91741266274E+02 0.  0.
          5    1    1    2  502    0  0.10113895379E+02  0.99066522117E+02 -0.17608002793E+03  0.20233169628E+03  0.41800000000E+01 0. -1.
         -5    1    1    2    0  502 -0.14429768131E+02 -0.49689929057E+02 -0.99273799238E+02  0.11202708098E+03  0.41800000000E+01 0.  1.
        -11    1    3    3    0    0  0.43774249071E+02 -0.40672868191E+02 -0.63134614148E+02  0.86927824039E+02  0.00000000000E+00 0.  1.
         11    1    3    3    0    0 -0.39458376319E+02 -0.87037248698E+01 -0.86302387338E+02  0.95293338427E+02  0.00000000000E+00 0. -1.
</event>
<event>
 7    1  0.5831876E-006  0.6392770E+02  0.7561462E-02  0.1382051E+00
          1   -1    0    0  501    0  0.00000000000E+00  0.00000000000E+00  0.51578471639E+03  0.51578471639E+03  0.00000000000E+00 0. -1.
         -1   -1    0    0    0  501 -0.00000000000E+00 -0.00000000000E+00 -0.31327585853E+02  0.31327585853E+02  0.00000000000E+00 0.  1.
         23    2    1    2    0    0  0.44994886626E+02  0.39912934064E+02  0.15879075691E+03  0.19310095475E+03  0.91955924877E+02 0.  0.
          5    1    1    2  502    0 -0.12307928931E+01 -0.14484338655E+02 -0.75789461642E+01  0.16918148314E+02  0.41800000000E+01 0.  1.
         -5    1    1    2    0  502 -0.43764093733E+02 -0.25428595409E+02  0.33324531980E+03  0.33709319918E+03  0.41800000000E+01 0.  1.
        -11    1    3    3    0    0  0.41659015050E+02  0.29602624536E+02  0.16999666288E+03  0.17751240606E+03  0.00000000000E+00 0. -1.
         11    1    3    3    0    0  0.33358715764E+01  0.10310309529E+02 -0.11205905974E+02  0.15588548696E+02  0.00000000000E+00 0.  1.
</event>
<event>
 7    1  0.5831876E-006  0.9218552E+02  0.7561462E-02  0.1297644E+00
         -2   -1    0    0    0  501 -0.00000000000E+00  0.00000000000E+00  0.14359196838E+02  0.14359196838E+02  0.00000000000E+00 0. -1.
          2   -1    0    0  501    0  0.00000000000E+00 -0.00000000000E+00 -0.96834129259E+03  0.96834129259E+03  0.00000000000E+00 0.  1.
         23    2    1    2    0    0  0.37122390191E+02  0.19528134340E+02 -0.33912130469E+03  0.35384089212E+03  0.91873270068E+02 0.  0.
          5    1    1    2  502    0 -0.32977632374E+02 -0.52880034860E+02 -0.56584284148E+03  0.56927973438E+03  0.41800000000E+01 0.  1.
         -5    1    1    2    0  502 -0.41447578168E+01  0.33351900521E+02 -0.49017949578E+02  0.59579862928E+02  0.41800000000E+01 0.  1.
        -11    1    3    3    0    0  0.54871985881E+02 -0.78339661046E+01 -0.28739081683E+03  0.29268718362E+03  0.00000000000E+00 0.  1.
         11    1    3    3    0    0 -0.17749595691E+02  0.27362100444E+02 -0.51730487864E+02  0.61153708494E+02  0.00000000000E+00 0. -1.
</event>
<event>
 7    1  0.5831876E-006  0.8662458E+02  0.7561462E-02  0.1311238E+00
          1   -1    0    0  501    0  0.00000000000E+00  0.00000000000E+00  0.66697092853E+03  0.66697092853E+03  0.00000000000E+00 0. -1.
         -1   -1    0    0    0  501 -0.00000000000E+00 -0.00000000000E+00 -0.25051654146E+02  0.25051654146E+02  0.00000000000E+00 0.  1.
         23    2    1    2    0    0 -0.48476911692E+02  0.35203608646E+00  0.15242284664E+03  0.18447399495E+03  0.91911891171E+02 0.  0.
          5    1    1    2  502    0 -0.21606215686E+02 -0.33805422560E+02  0.69040007955E+02  0.79960179146E+02  0.41800000000E+01 0.  1.
         -5    1    1    2    0  502  0.70083127378E+02  0.33453386473E+02  0.42045641979E+03  0.42758840858E+03  0.41800000000E+01 0.  1.
        -11    1    3    3    0    0 -0.32583415470E+02  0.12744787376E+02  0.15936307089E+03  0.16315850248E+03  0.00000000000E+00 0. -1.
         11    1    3    3    0    0 -0.15893496222E+02 -0.12392751289E+02 -0.69402242464E+01  0.21315492471E+02  0.00000000000E+00 0.  1.
</event>
<event>
 7    1  0.5831876E-006  0.1138732E+03  0.7561462E-02  0.1253561E+00
          2   -1    0    0  501    0  0.00000000000E+00  0.00000000000E+00  0.45845419699E+03  0.45845419699E+03  0.00000000000E+00 0. -1.
         -2   -1    0    0    0  501 -0.00000000000E+00 -0.00000000000E+00 -0.56838495142E+02  0.56838495142E+02  0.00000000000E+00 0.  1.
         23    2    1    2    0    0  0.31069704428E+02 -0.60058870843E+02  0.29906651372E+02  0.11731394527E+03  0.91081059822E+02 0.  0.
          5    1    1    2  502    0 -0.62574656479E+02 -0.53147930608E+01  0.11406613548E+03  0.13027812680E+03  0.41800000000E+01 0.  1.
         -5    1    1    2    0  502  0.31504952051E+02  0.65373663903E+02  0.25764291500E+03  0.26770062006E+03  0.41800000000E+01 0.  1.
        -11    1    3    3    0    0 -0.85799604202E+01  0.90326102193E+01  0.35337232916E+02  0.37468971140E+02  0.00000000000E+00 0. -1.
         11    1    3    3    0    0  0.39649664848E+02 -0.69091481062E+02 -0.54305815431E+01  0.79844974130E+02  0.00000000000E+00 0.  1.
</event>
<event>
 7    1  0.5831876E-006  0.3593162E+03  0.7561462E-02  0.1058855E+00
          2   -1    0    0  501    0  0.00000000000E+00  0.00000000000E+00  0.31702793893E+04  0.31702793893E+04  0.00000000000E+00 0.  1.
         -2   -1    0    0    0  501 -0.00000000000E+00 -0.00000000000E+00 -0.98984619061E+02  0.98984619061E+02  0.00000000000E+00 0. -1.
         23    2    1    2    0    0 -0.32050336779E+03  0.15617092131E+03  0.30670628368E+03  0.47897568907E+03  0.90759026233E+02 0.  0.
          5    1    1    2  502    0  0.20840747504E+03 -0.12059127983E+03  0.22262671868E+04  0.22392541150E+04  0.41800000000E+01 0. -1.
         -5    1    1    2    0  502  0.11209589275E+03 -0.35579641472E+02  0.53832129976E+03  0.55103420424E+03  0.41800000000E+01 0. -1.
        -11    1    3    3    0    0 -0.16858739123E+03  0.11021674123E+03  0.21939180287E+03  0.29782914850E+03  0.00000000000E+00 0.  1.
         11    1    3    3    0    0 -0.15191597656E+03  0.45954180077E+02  0.87314480810E+02  0.18114654057E+03  0.00000000000E+00 0. -1.
</event>
<event>
 7    1  0.5831876E-006  0.6977726E+02  0.7561462E-02  0.1360852E+00
          2   -1    0    0  501    0  0.00000000000E+00  0.00000000000E+00  0.11875270319E+04  0.11875270319E+04  0.00000000000E+00 0. -1.
         -2   -1    0    0    0  501 -0.00000000000E+00 -0.00000000000E+00 -0.19218460997E+02  0.19218460997E+02  0.00000000000E+00 0.  1.
         23    2    1    2    0    0  0.77067797705E+01  0.86040734985E+01  0.12275838170E+03  0.15367552531E+03  0.91723073787E+02 0.  0.
          5    1    1    2  502    0  0.30014050943E+02 -0.34014419933E+02  0.16043991217E+03  0.16678207887E+03  0.41800000000E+01 0. -1.
         -5    1    1    2    0  502 -0.37720830714E+02  0.25410346435E+02  0.88511027702E+03  0.88628788870E+03  0.41800000000E+01 0. -1.
        -11    1    3    3    0    0  0.25081146999E+02 -0.58166763785E+01 -0.29865640772E+01  0.25919437183E+02  0.00000000000E+00 0.  1.
         11    1    3    3    0    0 -0.17374367229E+02  0.14420749877E+02  0.12574494578E+03  0.12775608812E+03  0.00000000000E+00 0. -1.
</event>
<event>
 7    1  0.5831876E-006  0.1198238E+03  0.7561462E-02  0.1243388E+00
         -2   -1    0    0    0  501 -0.00000000000E+00  0.00000000000E+00  0.34106706245E+02  0.34106706245E+02  0.00000000000E+00 0.  1.
          2   -1    0    0  501    0  0.00000000000E+00 -0.00000000000E+00 -0.64887516093E+03  0.64887516093E+03  0.00000000000E+00 0. -1.
         23    2    1    2    0    0  0.69500585402E+01  0.99276412465E+02 -0.24516424841E+03  0.28029179489E+03  0.92487146116E+02 0.  0.
          5    1    1    2  502    0 -0.20740556656E+02 -0.50248117314E+02 -0.36319634062E+02  0.65510550314E+02  0.41800000000E+01 0. -1.
         -5    1    1    2    0  502  0.13790498116E+02 -0.49028295151E+02 -0.33328457222E+03  0.33717952198E+03  0.41800000000E+01 0. -1.
        -11    1    3    3    0    0 -0.19842989545E+02  0.10480531278E+03 -0.21181432494E+03  0.23715650122E+03  0.00000000000E+00 0.  1.
         11    1    3    3    0    0  0.26793048086E+02 -0.55289003119E+01 -0.33349923470E+02  0.43135293668E+02  0.00000000000E+00 0. -1.
</event>
<event>
 7    1  0.5831876E-006  0.2206361E+03  0.7561462E-02  0.1133410E+00
          1   -1    0    0  501    0  0.00000000000E+00  0.00000000000E+00  0.24980374296E+03  0.24980374296E+03  0.00000000000E+00 0. -1.
         -1   -1    0    0    0  501 -0.00000000000E+00 -0.00000000000E+00 -0.24916722421E+03  0.24916722421E+03  0.00000000000E+00 0.  1.
         23    2    1    2    0    0 -0.10884694483E+03 -0.17519435118E+03 -0.89782281246E+02  0.24135940915E+03  0.87480216466E+02 0.  0.
          5    1    1    2  502    0  0.30924184776E+02 -0.97852120175E+01 -0.85135286234E+01  0.33793611052E+02  0.41800000000E+01 0.  1.
         -5    1    1    2    0  502  0.77922760056E+02  0.18497956320E+03  0.98932328620E+02  0.22381794696E+03  0.41800000000E+01 0.  1.
        -11    1    3    3    0    0 -0.59586685673E+02 -0.72037353286E+02  0.38884149834E+01  0.93568547862E+02  0.00000000000E+00 0.  1.
         11    1    3    3    0    0 -0.49260259159E+02 -0.10315699790E+03 -0.93670696230E+02  0.14779086129E+03  0.00000000000E+00 0. -1.
</event>
<event>
 7    1  0.5831876E-006  0.1126129E+03  0.7561462E-02  0.1255806E+00
         -1   -1    0    0    0  501 -0.00000000000E+00  0.00000000000E+00  0.60083867516E+02  0.60083867516E+02  0.00000000000E+00 0.  1.
          1   -1    0    0  501    0  0.00000000000E+00 -0.00000000000E+00 -0.27842586480E+03  0.27842586480E+03  0.00000000000E+00 0. -1.
         23    2    1    2    0    0  0.28029578939E+01 -0.68699698372E+02 -0.10999812063E+03  0.15930183406E+03  0.92466116308E+02 0.  0.
          5    1    1    2  502    0 -0.39643032094E+02 -0.44308819052E+01  0.37990851507E+01  0.40287816472E+02  0.41800000000E+01 0.  1.
         -5    1    1    2    0  502  0.36840074200E+02  0.73130580277E+02 -0.11214296181E+03  0.13892008178E+03  0.41800000000E+01 0.  1.
        -11    1    3    3    0    0 -0.35426431798E+02 -0.47981029112E+02 -0.26718153382E+02  0.65353431010E+02  0.00000000000E+00 0.  1.
         11    1    3    3    0    0  0.38229389691E+02 -0.20718669259E+02 -0.83279967244E+02  0.93948403053E+02  0.00000000000E+00 0. -1.
</event>
<event>
 7    1  0.5831876E-006  0.8973909E+02  0.7561462E-02  0.1303485E+00
         -2   -1    0    0    0  501 -0.00000000000E+00  0.00000000000E+00  0.31724690100E+02  0.31724690100E+02  0.00000000000E+00 0.  1.
          2   -1    0    0  501    0  0.00000000000E+00 -0.00000000000E+00 -0.53971589646E+03  0.53971589646E+03  0.00000000000E+00 0. -1.
         23    2    1    2    0    0  0.12708571781E+02 -0.59078858277E+02 -0.13693077751E+03  0.17522659032E+03  0.91118059868E+02 0.  0.
          5    1    1    2  502    0  0.11487642161E+02  0.52393025797E+02 -0.36641655696E+03  0.37034519126E+03  0.41800000000E+01 0. -1.
         -5    1    1    2    0  502 -0.24196213942E+02  0.66858324800E+01 -0.46438718942E+01  0.25868804983E+02  0.41800000000E+01 0. -1.
        -11    1    3    3    0    0 -0.30047005005E+02 -0.47029121187E+02 -0.10981760668E+03  0.12318468853E+03  0.00000000000E+00 0. -1.
         11    1    3    3    0    0  0.42755576786E+02 -0.12049737090E+02 -0.27113170825E+02  0.52041901794E+02  0.00000000000E+00 0.  1.
</event>
<event>
 7    1  0.5831876E-006  0.1559093E+03  0.7561462E-02  0.1193394E+00
         -2   -1    0    0    0  501 -0.00000000000E+00  0.00000000000E+00  0.54541734787E+02  0.54541734787E+02  0.00000000000E+00 0.  1.
          2   -1    0    0  501    0  0.00000000000E+00 -0.00000000000E+00 -0.75112173908E+03  0.75112173908E+03  0.00000000000E+00 0. -1.
         23    2    1    2    0    0 -0.10952377024E+03 -0.55170574168E+02 -0.96104426722E+02  0.18015750833E+03  0.90451193867E+02 0.  0.
          5    1    1    2  502    0  0.79905500060E+02 -0.23211425867E+02 -0.20603693331E+03  0.22224389647E+03  0.41800000000E+01 0. -1.
         -5    1    1    2    0  502  0.29618270179E+02  0.78382000035E+02 -0.39443864426E+03  0.40326206906E+03  0.41800000000E+01 0. -1.
        -11    1    3    3    0    0 -0.74316560245E+01 -0.40847106905E+02 -0.36447101450E+01  0.41677326760E+02  0.00000000000E+00 0.  1.
         11    1    3    3    0    0 -0.10209211421E+03 -0.14323467263E+02 -0.92459716578E+02  0.13848018157E+03  0.00000000000E+00 0. -1.
</event>
<event>
 7    1  0.5831876E-006  0.1376069E+03  0.7561462E-02  0.1216586E+00
          2   -1    0    0  501    0  0.00000000000E+00  0.00000000000E+00  0.83525671642E+03  0.83525671642E+03  0.00000000000E+00 0. -1.
         -2   -1    0    0    0  501 -0.00000000000E+00 -0.00000000000E+00 -0.34749376836E+02  0.34749376836E+02  0.00000000000E+00 0.  1.
         23    2    1    2    0    0  0.89103866468E+01  0.10134508613E+03  0.16572070367E+03  0.21506047390E+03  0.91855507920E+02 0.  0.
          5    1    1    2  502    0  0.54258453858E+02 -0.25444343798E+02  0.18831257707E+03  0.19766257494E+03  0.41800000000E+01 0. -1.
         -5    1    1    2    0  502 -0.63168840505E+02 -0.75900742335E+02  0.44647405883E+03  0.45728304442E+03  0.41800000000E+01 0. -1.
        -11    1    3    3    0    0  0.32546166610E+02  0.68491812580E+02  0.46020316512E+02  0.88703161631E+02  0.00000000000E+00 0.  1.
         11    1    3    3    0    0 -0.23635779963E+02  0.32853273553E+02  0.11970038716E+03  0.12635731227E+03  0.00000000000E+00 0. -1.
</event>
<event>
 7    1  0.5831876E-006  0.9588185E+02  0.7561462E-02  0.1289202E+00
         -1   -1    0    0    0  501 -0.00000000000E+00  0.00000000000E+00  0.22808418778E+02  0.22808418778E+02  0.00000000000E+00 0.  1.
          1   -1    0    0  501    0  0.00000000000E+00 -0.00000000000E+00 -0.87466862427E+03  0.87466862427E+03  0.00000000000E+00 0. -1.
         23    2    1    2    0    0  0.18790624394E+01 -0.52313527987E+02 -0.15602591975E+03  0.18855326299E+03  0.92021786911E+02 0.  0.
          5    1    1    2  502    0 -0.24301105161E+02  0.88999222465E+02 -0.46493238453E+03  0.47401582241E+03  0.41800000000E+01 0. -1.
         -5    1    1    2    0  502  0.22422042722E+02 -0.36685694477E+02 -0.23090190122E+03  0.23490795765E+03  0.41800000000E+01 0. -1.
        -11    1    3    3    0    0  0.11023450797E+02 -0.22964042856E+02  0.38381576033E+01  0.25760341332E+02  0.00000000000E+00 0.  1.
         11    1    3    3    0    0 -0.91443883579E+01 -0.29349485131E+02 -0.15986407735E+03  0.16279292166E+03  0.00000000000E+00 0. -1.
</event>
<event>
 7    1  0.5831876E-006  0.1343913E+03  0.7561462E-02  0.1221082E+00
         -2   -1    0    0    0  501 -0.00000000000E+00  0.00000000000E+00  0.27236261722E+03  0.27236261722E+03  0.00000000000E+00 0.  1.
          2   -1    0    0  501    0  0.00000000000E+00 -0.00000000000E+00 -0.93787421935E+02  0.93787421935E+02  0.00000000000E+00 0. -1.
         23    2    1    2    0    0 -0.10543650243E+03 -0.10349063985E+02  0.13921942327E+03  0.19749426978E+03  0.91640491111E+02 0.  0.
          5    1    1    2  502    0  0.94790392864E+02 -0.42299916141E+02  0.47389886306E+02  0.11418307759E+03  0.41800000000E+01 0. -1.
         -5    1    1    2    0  502  0.10646109566E+02  0.52648980126E+02 -0.80341142922E+01  0.54472691779E+02  0.41800000000E+01 0. -1.
        -11    1    3    3    0    0 -0.28054346427E+02  0.11945176015E+02  0.10614391841E+03  0.11043670132E+03  0.00000000000E+00 0.  1.
         11    1    3    3    0    0 -0.77382156002E+02 -0.22294240000E+02  0.33075504866E+02  0.87057568464E+02  0.00000000000E+00 0. -1.
</event>
<event>
 7    1  0.5831876E-006  0.1296656E+03  0.7561462E-02  0.1227953E+00
         -2   -1    0    0    0  501 -0.00000000000E+00  0.00000000000E+00  0.69167855758E+02  0.69167855758E+02  0.00000000000E+00 0.  1.
          2   -1    0    0  501    0  0.00000000000E+00 -0.00000000000E+00 -0.28316274620E+03  0.28316274620E+03  0.00000000000E+00 0. -1.
         23    2    1    2    0    0 -0.66729095449E+02 -0.41938170781E+02 -0.46078684896E+02  0.12860123392E+03  0.90572897807E+02 0.  0.
          5    1    1    2  502    0  0.96926569912E+02  0.48206906402E+02 -0.93633136895E+02  0.14318974301E+03  0.41800000000E+01 0.  1.
         -5    1    1    2    0  502 -0.30197474463E+02 -0.62687356209E+01 -0.74283068650E+02  0.80539625020E+02  0.41800000000E+01 0.  1.
        -11    1    3    3    0    0 -0.67689163063E+02  0.95657284078E+01 -0.29829246458E+02  0.74586258121E+02  0.00000000000E+00 0.  1.
         11    1    3    3    0    0  0.96006761454E+00 -0.51503899189E+02 -0.16249438438E+02  0.54014975803E+02  0.00000000000E+00 0. -1.
</event>
<event>
 7    1  0.5831876E-006  0.6613384E+02  0.7561462E-02  0.1373756E+00
          3   -1    0    0  501    0  0.00000000000E+00  0.00000000000E+00  0.40995387840E+03  0.40995387840E+03  0.00000000000E+00 0. -1.
         -3   -1    0    0    0  501 -0.00000000000E+00 -0.00000000000E+00 -0.31139350147E+02  0.31139350147E+02  0.00000000000E+00 0.  1.
         23    2    1    2    0    0  0.18607151848E+02 -0.64570574559E+01  0.13880312381E+03  0.16972471476E+03  0.95667402655E+02 0.  0.
          5    1    1    2  502    0  0.18604438370E+02 -0.89068618833E+01  0.22825151929E+03  0.22921973251E+03  0.41800000000E+01 0.  1.
         -5    1    1    2    0  502 -0.37211590218E+02  0.15363919339E+02  0.11759885156E+02  0.42148781274E+02  0.41800000000E+01 0.  1.
        -11    1    3    3    0    0  0.43510368115E+02 -0.12203164400E+02  0.22189438347E+02  0.50343227241E+02  0.00000000000E+00 0.  1.
         11    1    3    3    0    0 -0.24903216267E+02  0.57461069441E+01  0.11661368546E+03  0.11938148752E+03  0.00000000000E+00 0. -1.
</event>
<event>
 7    1  0.5831876E-006  0.1315202E+03  0.7561462E-02  0.1225217E+00
          1   -1    0    0  501    0  0.00000000000E+00  0.00000000000E+00  0.30438475056E+03  0.30438475056E+03  0.00000000000E+00 0. -1.
         -1   -1    0    0    0  501 -0.00000000000E+00 -0.00000000000E+00 -0.87804983893E+02  0.87804983893E+02  0.00000000000E+00 0.  1.
         23    2    1    2    0    0 -0.10210089067E+03  0.67061209702E+02  0.98962520071E+02  0.18146989924E+03  0.90641856946E+02 0.  0.
          5    1    1    2  502    0  0.10040774853E+03 -0.59481537774E+02  0.14254811975E+03  0.18427481691E+03  0.41800000000E+01 0. -1.
         -5    1    1    2    0  502  0.16931421382E+01 -0.75796719276E+01 -0.24930873154E+02  0.26445018303E+02  0.41800000000E+01 0. -1.
        -11    1    3    3    0    0  0.71613011474E+01  0.14548802614E+02 -0.95095923398E+01  0.18798516912E+02  0.00000000000E+00 0.  1.
         11    1    3    3    0    0 -0.10926219182E+03  0.52512407088E+02  0.10847211241E+03  0.16267138233E+03  0.00000000000E+00 0. -1.
</event>
<event>
 7    1  0.5831876E-006  0.9016759E+02  0.7561462E-02  0.1302446E+00
          2   -1    0    0  501    0  0.00000000000E+00  0.00000000000E+00  0.13190494727E+04  0.13190494727E+04  0.00000000000E+00 0. -1.
         -2   -1    0    0    0  501 -0.00000000000E+00 -0.00000000000E+00 -0.12068639753E+02  0.12068639753E+02  0.00000000000E+00 0.  1.
         23    2    1    2    0    0  0.30852646692E+02 -0.21855941920E+02  0.32045707787E+03  0.33557624526E+03  0.92136364266E+02 0.  0.
          5    1    1    2  502    0 -0.54589543498E+02  0.28324378136E+00  0.91942165876E+03  0.92105035557E+03  0.41800000000E+01 0. -1.
         -5    1    1    2    0  502  0.23736896806E+02  0.21572698138E+02  0.67102096330E+02  0.74491511643E+02  0.41800000000E+01 0.  1.
        -11    1    3    3    0    0  0.82429597281E+01  0.32942992261E+02  0.17912333709E+03  0.18231389694E+03  0.00000000000E+00 0. -1.
         11    1    3    3    0    0  0.22609686964E+02 -0.54798934180E+02  0.14133374078E+03  0.15326234833E+03  0.00000000000E+00 0.  1.
</event>
<event>
 7    1  0.5831876E-006  0.1625326E+03  0.7561462E-02  0.1185867E+00
          1   -1    0    0  501    0  0.00000000000E+00  0.00000000000E+00  0.37027320706E+03  0.37027320706E+03  0.00000000000E+00 0. -1.
         -1   -1    0    0    0  501 -0.00000000000E+00 -0.00000000000E+00 -0.93827763485E+02  0.93827763485E+02  0.00000000000E+00 0.  1.
         23    2    1    2    0    0 -0.12720689982E+03 -0.28899389999E+02  0.74629441120E+02  0.19318255831E+03  0.12138030009E+03 0.  0.
          5    1    1    2  502    0  0.13493762098E+03  0.29863313747E+02  0.10478606186E+03  0.17348651309E+03  0.41800000000E+01 0. -1.
         -5    1    1    2    0  502 -0.77307211570E+01 -0.96392374752E+00  0.97029940594E+02  0.97431899141E+02  0.41800000000E+01 0. -1.
        -11    1    3    3    0    0 -0.14738450247E+03 -0.60975102036E+01  0.58124572076E+02  0.15854916297E+03  0.00000000000E+00 0.  1.
         11    1    3    3    0    0  0.20177602649E+02 -0.22801879795E+02  0.16504869044E+02  0.34633395344E+02  0.00000000000E+00 0. -1.
</event>
<event>
 7    1  0.5831876E-006  0.1480682E+03  0.7561462E-02  0.1202867E+00
         -1   -1    0    0    0  501 -0.00000000000E+00  0.00000000000E+00  0.48037923433E+02  0.48037923433E+02  0.00000000000E+00 0. -1.
          1   -1    0    0  501    0  0.00000000000E+00 -0.00000000000E+00 -0.53355782055E+03  0.53355782055E+03  0.00000000000E+00 0.  1.
         23    2    1    2    0    0 -0.28134858138E+02  0.10202015945E+03 -0.13275424966E+03  0.19263423030E+03  0.91019628125E+02 0.  0.
          5    1    1    2  502    0 -0.42198616743E+02 -0.32538019355E+01 -0.91546972886E+02  0.10094370276E+03  0.41800000000E+01 0.  1.
         -5    1    1    2    0  502  0.70333474881E+02 -0.98766357512E+02 -0.26121867457E+03  0.28801781093E+03  0.41800000000E+01 0.  1.
        -11    1    3    3    0    0  0.24923186423E+02  0.58754823234E+02 -0.95012746909E+02  0.11445836164E+03  0.00000000000E+00 0.  1.
         11    1    3    3    0    0 -0.53058044560E+02  0.43265336214E+02 -0.37741502749E+02  0.78175868655E+02  0.00000000000E+00 0. -1.
</event>
<event>
 7    1  0.5831876E-006  0.2591114E+03  0.7561462E-02  0.1107678E+00
          1   -1    0    0  501    0  0.00000000000E+00  0.00000000000E+00  0.65381748288E+03  0.65381748288E+03  0.00000000000E+00 0. -1.
         -1   -1    0    0    0  501 -0.00000000000E+00 -0.00000000000E+00 -0.14856301816E+03  0.14856301816E+03  0.00000000000E+00 0.  1.
         23    2    1    2    0    0 -0.14664404713E+03  0.18681160700E+03  0.29225670617E+02  0.25588685492E+03  0.90669121704E+02 0.  0.
          5    1    1    2  502    0  0.64637361140E+02 -0.16767111451E+03  0.36712087445E+03  0.40876252268E+03  0.41800000000E+01 0.  1.
         -5    1    1    2    0  502  0.82006685991E+02 -0.19140492494E+02  0.10890791965E+03  0.13773112344E+03  0.41800000000E+01 0.  1.
        -11    1    3    3    0    0 -0.10523410176E+03  0.18484867957E+03  0.26355052279E+02  0.21433114401E+03  0.00000000000E+00 0. -1.
         11    1    3    3    0    0 -0.41409945373E+02  0.19629274297E+01  0.28706183383E+01  0.41555710914E+02  0.00000000000E+00 0.  1.
</event>
<event>
 7    1  0.5831876E-006  0.1220274E+03  0.7561462E-02  0.1239789E+00
         -2   -1    0    0    0  501 -0.00000000000E+00  0.00000000000E+00  0.60310561655E+02  0.60310561655E+02  0.00000000000E+00 0.  1.
          2   -1    0    0  501    0  0.00000000000E+00 -0.00000000000E+00 -0.47263160503E+03  0.47263160503E+03  0.00000000000E+00 0. -1.
         23    2    1    2    0    0  0.67227596940E+02  0.59753719857E+01 -0.15178155355E+02  0.11112980063E+03  0.86972417048E+02 0.  0.
          5    1    1    2  502    0  0.36738131297E+01 -0.54429182213E+02 -0.18461779372E+03  0.19255449861E+03  0.41800000000E+01 0. -1.
         -5    1    1    2    0  502 -0.70901410070E+02  0.48453810227E+02 -0.21252509430E+03  0.22925786744E+03  0.41800000000E+01 0. -1.
        -11    1    3    3    0    0  0.76163651349E+02 -0.17583498806E+02  0.57458328222E+01  0.78377903850E+02  0.00000000000E+00 0.  1.
         11    1    3    3    0    0 -0.89360544093E+01  0.23558870792E+02 -0.20923988177E+02  0.32751896779E+02  0.00000000000E+00 0. -1.
</event>
<event>
 7    1  0.5831876E-006  0.1160329E+03  0.7561462E-02  0.1249789E+00
          2   -1    0    0  501    0  0.00000000000E+00  0.00000000000E+00  0.41524115163E+03  0.41524115163E+03  0.00000000000E+00 0. -1.
         -2   -1    0    0    0  501 -0.00000000000E+00 -0.00000000000E+00 -0.34428566602E+02  0.34428566602E+02  0.00000000000E+00 0.  1.
         23    2    1    2    0    0 -0.29075302742E+02  0.34472351869E+02  0.11267543341E+03  0.15036753333E+03  0.88774576945E+02 0.  0.
          5    1    1    2  502    0  0.78091061530E+02 -0.14290861704E+02  0.17058698381E+03  0.18820157828E+03  0.41800000000E+01 0. -1.
         -5    1    1    2    0  502 -0.49015758788E+02 -0.20181490166E+02  0.97550167806E+02  0.11110060663E+03  0.41800000000E+01 0. -1.
        -11    1    3    3    0    0 -0.28157380272E+02 -0.26351473398E+02  0.39396899915E+02  0.55130335904E+02  0.00000000000E+00 0. -1.
         11    1    3    3    0    0 -0.91792246949E+00  0.60823825267E+02  0.73278533497E+02  0.95237197424E+02  0.00000000000E+00 0.  1.
</event>
<event>
 7    1  0.5831876E-006  0.1824967E+03  0.7561462E-02  0.1165408E+00
         -2   -1    0    0    0  501 -0.00000000000E+00  0.00000000000E+00  0.38212337470E+02  0.38212337470E+02  0.00000000000E+00 0. -1.
          2   -1    0    0  501    0  0.00000000000E+00 -0.00000000000E+00 -0.10936862030E+04  0.10936862030E+04  0.00000000000E+00 0.  1.
         23    2    1    2    0    0  0.66708585356E+02  0.14223025597E+03 -0.31496862060E+03  0.36464667519E+03  0.95302070735E+02 0.  0.
          5    1    1    2  502    0 -0.26015002032E+00  0.14299920578E+02 -0.20133210090E+03  0.20188274483E+03  0.41800000000E+01 0. -1.
         -5    1    1    2    0  502 -0.66448435336E+02 -0.15653017654E+03 -0.53917314403E+03  0.56536912046E+03  0.41800000000E+01 0. -1.
        -11    1    3    3    0    0 -0.95001071000E+01  0.82814929054E+02 -0.10977225271E+03  0.13783508978E+03  0.00000000000E+00 0. -1.
         11    1    3    3    0    0  0.76208692456E+02  0.59415326912E+02 -0.20519636790E+03  0.22681158541E+03  0.00000000000E+00 0.  1.
</event>
<event>
 7    1  0.5831876E-006  0.1581765E+03  0.7561462E-02  0.1190771E+00
          2   -1    0    0  501    0  0.00000000000E+00  0.00000000000E+00  0.41977068807E+03  0.41977068807E+03  0.00000000000E+00 0. -1.
         -2   -1    0    0    0  501 -0.00000000000E+00 -0.00000000000E+00 -0.14000128346E+03  0.14000128346E+03  0.00000000000E+00 0.  1.
         23    2    1    2    0    0  0.13554171713E+03  0.15403170456E+02 -0.58335980236E+02  0.17433217575E+03  0.91541281237E+02 0.  0.
          5    1    1    2  502    0 -0.53256190131E+01  0.38345243985E+02  0.11631267218E+03  0.12265736856E+03  0.41800000000E+01 0.  1.
         -5    1    1    2    0  502 -0.13021609811E+03 -0.53748414441E+02  0.22179271267E+03  0.26278242722E+03  0.41800000000E+01 0.  1.
        -11    1    3    3    0    0  0.37034874332E+02  0.23102844671E+01 -0.64882155605E+02  0.74743651550E+02  0.00000000000E+00 0.  1.
         11    1    3    3    0    0  0.98506842793E+02  0.13092885989E+02  0.65461753685E+01  0.99588524201E+02  0.00000000000E+00 0. -1.
</event>
<event>
 7    1  0.5831876E-006  0.1666168E+03  0.7561462E-02  0.1181423E+00
          1   -1    0    0  501    0  0.00000000000E+00  0.00000000000E+00  0.17417784113E+04  0.17417784113E+04  0.00000000000E+00 0. -1.
         -1   -1    0    0    0  501 -0.00000000000E+00 -0.00000000000E+00 -0.70438278124E+02  0.70438278124E+02  0.00000000000E+00 0.  1.
         23    2    1    2    0    0 -0.13403973444E+03  0.56967455884E+01  0.32183667986E+02  0.16302560148E+03  0.86847308169E+02 0.  0.
          5    1    1    2  502    0  0.75202233090E+01 -0.47295361593E+02  0.47997959644E+03  0.48238085616E+03  0.41800000000E+01 0. -1.
         -5    1    1    2    0  502  0.12651951113E+03  0.41598616005E+02  0.11591768687E+04  0.11668102318E+04  0.41800000000E+01 0.  1.
        -11    1    3    3    0    0 -0.74962731815E+02 -0.32350227237E+02  0.42432850025E+02  0.92013559461E+02  0.00000000000E+00 0. -1.
         11    1    3    3    0    0 -0.59077002621E+02  0.38046972825E+02 -0.10249182039E+02  0.71012042023E+02  0.00000000000E+00 0.  1.
</event>
<event>
 7    1  0.5831876E-006  0.1554621E+03  0.7561462E-02  0.1193917E+00
         -2   -1    0    0    0  501 -0.00000000000E+00  0.00000000000E+00  0.34283992605E+02  0.34283992605E+02  0.00000000000E+00 0.  1.
          2   -1    0    0  501    0  0.00000000000E+00 -0.00000000000E+00 -0.11125788687E+04  0.11125788687E+04  0.00000000000E+00 0. -1.
         23    2    1    2    0    0  0.11819051946E+03 -0.82027457405E+02 -0.28423892769E+03  0.33024180103E+03  0.87007910399E+02 0.  0.
          5    1    1    2  502    0 -0.55708436420E+02 -0.16788340018E+01 -0.52505766171E+03  0.52802392834E+03  0.41800000000E+01 0. -1.
         -5    1    1    2    0  502 -0.62482083041E+02  0.83706291407E+02 -0.26899828668E+03  0.28859713193E+03  0.41800000000E+01 0. -1.
        -11    1    3    3    0    0  0.80369078914E+02 -0.29166473337E+02 -0.23069837998E+03  0.24603173482E+03  0.00000000000E+00 0. -1.
         11    1    3    3    0    0  0.37821440546E+02 -0.52860984069E+02 -0.53540547711E+02  0.84210066209E+02  0.00000000000E+00 0.  1.
</event>
<event>
 7    1  0.5831876E-006  0.2014392E+03  0.7561462E-02  0.1148530E+00
          1   -1    0    0  501    0  0.00000000000E+00  0.00000000000E+00  0.45294987879E+03  0.45294987879E+03  0.00000000000E+00 0. -1.
         -1   -1    0    0    0  501 -0.00000000000E+00 -0.00000000000E+00 -0.11252184690E+03  0.11252184690E+03  0.00000000000E+00 0.  1.
         23    2    1    2    0    0  0.18417452095E+03  0.71172306015E+02  0.15438122516E+03  0.26673242737E+03  0.91251705832E+02 0.  0.
          5    1    1    2  502    0 -0.96401670075E+02 -0.19822422672E+02  0.14914806056E+02  0.99629986819E+02  0.41800000000E+01 0. -1.
         -5    1    1    2    0  502 -0.87772850876E+02 -0.51349883344E+02  0.17113200068E+03  0.19910931150E+03  0.41800000000E+01 0. -1.
        -11    1    3    3    0    0  0.88617104303E+02  0.10105385451E+02  0.11742789328E+03  0.14745989322E+03  0.00000000000E+00 0.  1.
         11    1    3    3    0    0  0.95557416648E+02  0.61066920564E+02  0.36953331877E+02  0.11927253414E+03  0.00000000000E+00 0. -1.
</event>
<event>
 7    1  0.5831876E-006  0.1507469E+03  0.7561462E-02  0.1199558E+00
         -1   -1    0    0    0  501 -0.00000000000E+00  0.00000000000E+00  0.52633403989E+02  0.52633403989E+02  0.00000000000E+00 0.  1.
          1   -1    0    0  501    0  0.00000000000E+00 -0.00000000000E+00 -0.45753324656E+03  0.45753324656E+03  0.00000000000E+00 0. -1.
         23    2    1    2    0    0  0.14864528299E+02  0.10995317890E+03 -0.18216029019E+03  0.23165288806E+03  0.90388237464E+02 0.  0.
          5    1    1    2  502    0  0.39464990666E+02 -0.47803071751E+01 -0.10116658411E+03  0.10877723551E+03  0.41800000000E+01 0. -1.
         -5    1    1    2    0  502 -0.54329518964E+02 -0.10517287172E+03 -0.12157296827E+03  0.16973652698E+03  0.41800000000E+01 0. -1.
        -11    1    3    3    0    0 -0.34578456813E+02  0.74797260204E+02 -0.10220411632E+03  0.13128587587E+03  0.00000000000E+00 0. -1.
         11    1    3    3    0    0  0.49442985111E+02  0.35155918694E+02 -0.79956173871E+02  0.10036701219E+03  0.00000000000E+00 0.  1.
</event>
<event>
 7    1  0.5831876E-006  0.1173048E+03  0.7561462E-02  0.1247611E+00
         -2   -1    0    0    0  501 -0.00000000000E+00  0.00000000000E+00  0.25968976704E+03  0.25968976704E+03  0.00000000000E+00 0.  1.
          2   -1    0    0  501    0  0.00000000000E+00 -0.00000000000E+00 -0.12441084409E+03  0.12441084409E+03  0.00000000000E+00 0. -1.
         23    2    1    2    0    0 -0.10383771292E+03 -0.30783815634E+02  0.16321482664E+03  0.21629286831E+03  0.91725739672E+02 0.  0.
          5    1    1    2  502    0  0.19414561516E+02  0.14866413177E+02 -0.68394957237E+02  0.72754917463E+02  0.41800000000E+01 0. -1.
         -5    1    1    2    0  502  0.84423151402E+02  0.15917402457E+02  0.40459053549E+02  0.95052825354E+02  0.41800000000E+01 0. -1.
        -11    1    3    3    0    0 -0.55636132613E+02 -0.47106114340E+02  0.14490472905E+03  0.16220895709E+03  0.00000000000E+00 0. -1.
         11    1    3    3    0    0 -0.48201580305E+02  0.16322298706E+02  0.18310097590E+02  0.54083911219E+02  0.00000000000E+00 0.  1.
</event>
<event>
 7    1  0.5831876E-006  0.1206356E+03  0.7561462E-02  0.1242052E+00
         -1   -1    0    0    0  501 -0.00000000000E+00  0.00000000000E+00  0.38651102830E+03  0.38651102830E+03  0.00000000000E+00 0.  1.
          1   -1    0    0  501    0  0.00000000000E+00 -0.00000000000E+00 -0.62194640492E+02  0.62194640492E+02  0.00000000000E+00 0. -1.
         23    2    1    2    0    0 -0.40510542490E+02 -0.66546659012E+02  0.27767036238E+03  0.29419643367E+03  0.58147653109E+02 0.  0.
          5    1    1    2  502    0  0.21663927058E+02  0.10310125192E+03  0.27566277355E+02  0.10897965833E+03  0.41800000000E+01 0. -1.
         -5    1    1    2    0  502  0.18846615433E+02 -0.36554592909E+02  0.19079748077E+02  0.45529576790E+02  0.41800000000E+01 0. -1.
        -11    1    3    3    0    0 -0.12113781519E+02 -0.64933840179E+02  0.15919650857E+03  0.17235624631E+03  0.00000000000E+00 0. -1.
         11    1    3    3    0    0 -0.28396760971E+02 -0.16128188331E+01  0.11847385381E+03  0.12184018736E+03  0.00000000000E+00 0.  1.
</event>
<event>
 7    1  0.5831876E-006  0.9624042E+02  0.7561462E-02  0.1288407E+00
         -2   -1    0    0    0  501 -0.00000000000E+00  0.00000000000E+00  0.19966071424E+03  0.19966071424E+03  0.00000000000E+00 0.  1.
          2   -1    0    0  501    0  0.00000000000E+00 -0.00000000000E+00 -0.64400791530E+02  0.64400791530E+02  0.00000000000E+00 0. -1.
         23    2    1    2    0    0 -0.15747596142E+02  0.14404734978E+00  0.99467064404E+02  0.13304603605E+03  0.86945634013E+02 0.  0.
          5    1    1    2  502    0 -0.28837482186E+02 -0.39856248831E+02  0.49176610301E+02  0.69684520164E+02  0.41800000000E+01 0. -1.
         -5    1    1    2    0  502  0.44585078328E+02  0.39712201481E+02 -0.13383751994E+02  0.61330949556E+02  0.41800000000E+01 0. -1.
        -11    1    3    3    0    0  0.33367705667E+02  0.56154232256E+01  0.19536521691E+02  0.39071888094E+02  0.00000000000E+00 0. -1.
         11    1    3    3    0    0 -0.49115301809E+02 -0.54713758758E+01  0.79930542714E+02  0.93974147957E+02  0.00000000000E+00 0.  1.
</event>
<event>
 7    1  0.5831876E-006  0.1107591E+03  0.7561462E-02  0.1259171E+00
          3   -1    0    0  501    0  0.00000000000E+00  0.00000000000E+00  0.90711510602E+03  0.90711510602E+03  0.00000000000E+00 0.  1.
         -3   -1    0    0    0  501 -0.00000000000E+00 -0.00000000000E+00 -0.16473179345E+02  0.16473179345E+02  0.00000000000E+00 0. -1.
         23    2    1    2    0    0 -0.62351930861E+02 -0.44002334804E+01  0.36050762626E+03  0.37531884680E+03  0.83614369789E+02 0.  0.
          5    1    1    2  502    0  0.93345118207E+02 -0.19015484271E+02  0.43682604520E+03  0.44711225201E+03  0.41800000000E+01 0. -1.
         -5    1    1    2    0  502 -0.30993187346E+02  0.23415717751E+02  0.93308255220E+02  0.10115718656E+03  0.41800000000E+01 0. -1.
        -11    1    3    3    0    0 -0.46555341527E+02 -0.31160322447E+02  0.31665511717E+03  0.32157243157E+03  0.00000000000E+00 0.  1.
         11    1    3    3    0    0 -0.15796589334E+02  0.26760088966E+02  0.43852509095E+02  0.53746415229E+02  0.00000000000E+00 0. -1.
</event>
<event>
 7    1  0.5831876E-006  0.9465789E+02  0.7561462E-02  0.1291948E+00
         -1   -1    0    0    0  501 -0.00000000000E+00  0.00000000000E+00  0.10251781773E+03  0.10251781773E+03  0.00000000000E+00 0.  1.
          1   -1    0    0  501    0  0.00000000000E+00 -0.00000000000E+00 -0.16344707413E+03  0.16344707413E+03  0.00000000000E+00 0. -1.
         23    2    1    2    0    0 -0.44047577798E+02  0.57813803753E+02 -0.28226170337E+02  0.11764623981E+03  0.88098218111E+02 0.  0.
          5    1    1    2  502    0  0.42347937759E+02 -0.22452643891E+02 -0.77407034394E+02  0.91141595464E+02  0.41800000000E+01 0. -1.
         -5    1    1    2    0  502  0.16996400394E+01 -0.35361159862E+02  0.44703948335E+02  0.57177056586E+02  0.41800000000E+01 0. -1.
        -11    1    3    3    0    0  0.19626079064E+02  0.11438399038E+00 -0.24831989802E+02  0.31651599970E+02  0.00000000000E+00 0. -1.
         11    1    3    3    0    0 -0.63673656862E+02  0.57699419762E+02 -0.33941805350E+01  0.85994639836E+02  0.00000000000E+00 0.  1.
</event>
<event>
 7    1  0.5831876E-006  0.1143838E+03  0.7561462E-02  0.1252660E+00
          2   -1    0    0  501    0  0.00000000000E+00  0.00000000000E+00  0.11738176144E+03  0.11738176144E+03  0.00000000000E+00 0. -1.
         -2   -1    0    0    0  501 -0.00000000000E+00 -0.00000000000E+00 -0.18365539928E+03  0.18365539928E+03  0.00000000000E+00 0.  1.
         23    2    1    2    0    0  0.69505564803E+02  0.59416330406E+02  0.65589207339E+01  0.12982643395E+03  0.91926925624E+02 0.  0.
          5    1    1    2  502    0 -0.62869456419E+02 -0.64582990005E+02 -0.10456845788E+03  0.13811432196E+03  0.41800000000E+01 0.  1.
         -5    1    1    2    0  502 -0.66361083836E+01  0.51666595988E+01  0.31735899307E+02  0.33096404800E+02  0.41800000000E+01 0.  1.
        -11    1    3    3    0    0 -0.27283714401E+01  0.56801689960E+02  0.86145547963E+01  0.57515967760E+02  0.00000000000E+00 0. -1.
         11    1    3    3    0    0  0.72233936243E+02  0.26146404455E+01 -0.20556340625E+01  0.72310466194E+02  0.00000000000E+00 0.  1.
</event>
<event>
 7    1  0.5831876E-006  0.6168511E+02  0.7561462E-02  0.1390893E+00
          1   -1    0    0  501    0  0.00000000000E+00  0.00000000000E+00  0.17551036923E+03  0.17551036923E+03  0.00000000000E+00 0. -1.
         -1   -1    0    0    0  501 -0.00000000000E+00 -0.00000000000E+00 -0.84764574198E+02  0.84764574198E+02  0.00000000000E+00 0.  1.
         23    2    1    2    0    0 -0.86913860710E+01  0.40409980439E+02  0.16591492253E+02  0.10909480333E+03  0.99588612744E+02 0.  0.
          5    1    1    2  502    0  0.36613986646E+01 -0.13633271816E+02 -0.35332477347E+02  0.38276994345E+02  0.41800000000E+01 0.  1.
         -5    1    1    2    0  502  0.50299874064E+01 -0.26776708623E+02  0.10948678013E+03  0.11290314575E+03  0.41800000000E+01 0.  1.
        -11    1    3    3    0    0 -0.19497675336E+02 -0.15019014892E+02  0.40802987711E+02  0.47650959676E+02  0.00000000000E+00 0. -1.
         11    1    3    3    0    0  0.10806289265E+02  0.55428995331E+02 -0.24211495458E+02  0.61443843658E+02  0.00000000000E+00 0.  1.
</event>
<event>
 7    1  0.5831876E-006  0.7968019E+02  0.7561462E-02  0.1329961E+00
          2   -1    0    0  501    0  0.00000000000E+00  0.00000000000E+00  0.12709340567E+03  0.12709340567E+03  0.00000000000E+00 0. -1.
         -2   -1    0    0    0  501 -0.00000000000E+00 -0.00000000000E+00 -0.11226865478E+03  0.11226865478E+03  0.00000000000E+00 0.  1.
         23    2    1    2    0    0  0.32955837647E+02 -0.14783948361E+02 -0.16639147715E+01  0.10811715142E+03  0.10189159658E+03 0.  0.
          5    1    1    2  502    0 -0.33170527908E+02 -0.56034399175E+01  0.67838952716E+02  0.75837183269E+02  0.41800000000E+01 0.  1.
         -5    1    1    2    0  502  0.21469026078E+00  0.20387388278E+02 -0.51350287059E+02  0.55407725759E+02  0.41800000000E+01 0.  1.
        -11    1    3    3    0    0  0.50545124831E+02  0.28430066014E+02  0.12567911376E+02  0.59338273434E+02  0.00000000000E+00 0.  1.
         11    1    3    3    0    0 -0.17589287183E+02 -0.43214014375E+02 -0.14231826147E+02  0.48778877985E+02  0.00000000000E+00 0. -1.
</event>
<event>
 7    1  0.5831876E-006  0.9792726E+02  0.7561462E-02  0.1284716E+00
         -2   -1    0    0    0  501 -0.00000000000E+00  0.00000000000E+00  0.32571312932E+02  0.32571312932E+02  0.00000000000E+00 0. -1.
          2   -1    0    0  501    0  0.00000000000E+00 -0.00000000000E+00 -0.80555151417E+03  0.80555151417E+03  0.00000000000E+00 0.  1.
         23    2    1    2    0    0  0.92657998729E+02  0.21736772793E+01 -0.15108684084E+03  0.19703916097E+03  0.86063743103E+02 0.  0.
          5    1    1    2  502    0 -0.85087066265E+02  0.42381688560E+00 -0.18045720478E+03  0.19955516436E+03  0.41800000000E+01 0.  1.
         -5    1    1    2    0  502 -0.75709324644E+01 -0.25974941649E+01 -0.44143615562E+03  0.44152850178E+03  0.41800000000E+01 0.  1.
        -11    1    3    3    0    0  0.85854077786E+02 -0.11246442205E+02 -0.61520028517E+02  0.10621731988E+03  0.00000000000E+00 0. -1.
         11    1    3    3    0    0  0.68039209427E+01  0.13420119484E+02 -0.89566812326E+02  0.90821841081E+02  0.00000000000E+00 0.  1.
</event>
<event>
 7    1  0.5831876E-006  0.1494152E+03  0.7561462E-02  0.1201193E+00
         -1   -1    0    0    0  501 -0.00000000000E+00  0.00000000000E+00  0.55346414320E+02  0.55346414320E+02  0.00000000000E+00 0.  1.
          1   -1    0    0  501    0  0.00000000000E+00 -0.00000000000E+00 -0.54850925416E+03  0.54850925416E+03  0.00000000000E+00 0. -1.
         23    2    1    2    0    0  0.16781958613E+02  0.12106474640E+03 -0.13179667809E+03  0.20238911570E+03  0.93019798121E+02 0.  0.
          5    1    1    2  502    0 -0.41968899447E+02 -0.45829897171E+01 -0.38525875861E+02  0.57307135911E+02  0.41800000000E+01 0. -1.
         -5    1    1    2    0  502  0.25186940833E+02 -0.11648175668E+03 -0.32284028588E+03  0.34415941687E+03  0.41800000000E+01 0. -1.
        -11    1    3    3    0    0  0.40355544614E+02  0.67634822988E+02 -0.28557041472E+02  0.83776750231E+02  0.00000000000E+00 0.  1.
         11    1    3    3    0    0 -0.23573586001E+02  0.53429923411E+02 -0.10323963662E+03  0.11861236547E+03  0.00000000000E+00 0. -1.
</event>
<event>
 7    1  0.5831876E-006  0.2200976E+03  0.7561462E-02  0.1133810E+00
          2   -1    0    0  501    0  0.00000000000E+00  0.00000000000E+00  0.56374176750E+03  0.56374176750E+03  0.00000000000E+00 0. -1.
         -2   -1    0    0    0  501 -0.00000000000E+00 -0.00000000000E+00 -0.11893673368E+03  0.11893673368E+03  0.00000000000E+00 0.  1.
         23    2    1    2    0    0 -0.20118468105E+03 -0.48760971875E+02  0.69854629770E+02  0.23648541766E+03  0.90513950278E+02 0.  0.
          5    1    1    2  502    0  0.15491273515E+03  0.60711360485E+02  0.17886028648E+03  0.24432007548E+03  0.41800000000E+01 0. -1.
         -5    1    1    2    0  502  0.46271945907E+02 -0.11950388610E+02  0.19609011757E+03  0.20187300804E+03  0.41800000000E+01 0. -1.
        -11    1    3    3    0    0 -0.12693053578E+03  0.15128093272E+02  0.43776331712E+02  0.13511693949E+03  0.00000000000E+00 0. -1.
         11    1    3    3    0    0 -0.74254145270E+02 -0.63889065147E+02  0.26078298058E+02  0.10136847816E+03  0.00000000000E+00 0.  1.
</event>
<event>
 7    1  0.5831876E-006  0.9549355E+02  0.7561462E-02  0.1290068E+00
         -1   -1    0    0    0  501 -0.00000000000E+00  0.00000000000E+00  0.24700561420E+03  0.24700561420E+03  0.00000000000E+00 0.  1.
          1   -1    0    0  501    0  0.00000000000E+00 -0.00000000000E+00 -0.72333827489E+02  0.72333827489E+02  0.00000000000E+00 0. -1.
         23    2    1    2    0    0  0.18525689132E+02 -0.32111344284E+02  0.56991086046E+02  0.11203264472E+03  0.89044876351E+02 0.  0.
          5    1    1    2  502    0  0.14049065318E+02  0.53578364552E+02 -0.23840707002E+02  0.60447242242E+02  0.41800000000E+01 0. -1.
         -5    1    1    2    0  502 -0.32574754450E+02 -0.21467020268E+02  0.14152140766E+03  0.14685955472E+03  0.41800000000E+01 0.  1.
        -11    1    3    3    0    0 -0.33531695377E+02 -0.28525687758E+02  0.30102414986E+02  0.53331462055E+02  0.00000000000E+00 0.  1.
         11    1    3    3    0    0  0.52057384510E+02 -0.35856565260E+01  0.26888671060E+02  0.58701182664E+02  0.00000000000E+00 0. -1.
</event>
<event>
 7    1  0.5831876E-006  0.1379596E+03  0.7561462E-02  0.1216101E+00
         -1   -1    0    0    0  501 -0.00000000000E+00  0.00000000000E+00  0.14590975275E+03  0.14590975275E+03  0.00000000000E+00 0.  1.
          1   -1    0    0  501    0  0.00000000000E+00 -0.00000000000E+00 -0.15833027484E+03  0.15833027484E+03  0.00000000000E+00 0. -1.
         23    2    1    2    0    0 -0.40920241321E+02 -0.96643280822E+02  0.13373301795E+02  0.13892956994E+03  0.90045490316E+02 0.  0.
          5    1    1    2  502    0 -0.47215127154E+00 -0.20914673297E+02 -0.34218348728E+02  0.40323867320E+02  0.41800000000E+01 0. -1.
         -5    1    1    2    0  502  0.41392392593E+02  0.11755795412E+03  0.84245248438E+01  0.12498659032E+03  0.41800000000E+01 0. -1.
        -11    1    3    3    0    0 -0.19142448736E+02 -0.10487060896E+03  0.29499530570E+02  0.11060967530E+03  0.00000000000E+00 0.  1.
         11    1    3    3    0    0 -0.21777792586E+02  0.82273281335E+01 -0.16126228775E+02  0.28319894644E+02  0.00000000000E+00 0. -1.
</event>
<event>
 7    1  0.5831876E-006  0.6883324E+02  0.7561462E-02  0.1364106E+00
         -2   -1    0    0    0  501 -0.00000000000E+00  0.00000000000E+00  0.26539785181E+02  0.26539785181E+02  0.00000000000E+00 0.  1.
          2   -1    0    0  501    0  0.00000000000E+00 -0.00000000000E+00 -0.58190617824E+03  0.58190617824E+03  0.00000000000E+00 0. -1.
         23    2    1    2    0    0  0.30280513171E+02 -0.53183899082E+02 -0.21049921360E+03  0.23652397610E+03  0.88815740400E+02 0.  0.
          5    1    1    2  502    0 -0.22266471512E-01  0.29805318000E+02 -0.57637829854E+01  0.30643940204E+02  0.41800000000E+01 0.  1.
         -5    1    1    2    0  502 -0.30258246700E+02  0.23378581081E+02 -0.33910339647E+03  0.34127804712E+03  0.41800000000E+01 0.  1.
        -11    1    3    3    0    0 -0.25884473714E+01 -0.26883797694E+02 -0.59077980483E+01  0.27646712572E+02  0.00000000000E+00 0.  1.
         11    1    3    3    0    0  0.32868960543E+02 -0.26300101388E+02 -0.20459141555E+03  0.20887726353E+03  0.00000000000E+00 0. -1.
</event>
<event>
 7    1  0.5831876E-006  0.9582975E+02  0.7561462E-02  0.1289318E+00
         -1   -1    0    0    0  501 -0.00000000000E+00  0.00000000000E+00  0.64029402382E+02  0.64029402382E+02  0.00000000000E+00 0.  1.
          1   -1    0    0  501    0  0.00000000000E+00 -0.00000000000E+00 -0.33039481042E+03  0.33039481042E+03  0.00000000000E+00 0. -1.
         23    2    1    2    0    0 -0.43045529940E+02  0.42584303339E+02 -0.77175486005E+01  0.10080263392E+03  0.80220134068E+02 0.  0.
          5    1    1    2  502    0  0.18700684507E+02  0.27643326970E+02 -0.18801719625E+03  0.19100211416E+03  0.41800000000E+01 0. -1.
         -5    1    1    2    0  502  0.24344845432E+02 -0.70227630309E+02 -0.70630663186E+02  0.10261946472E+03  0.41800000000E+01 0. -1.
        -11    1    3    3    0    0 -0.54317636435E+02  0.19184911998E+02  0.21702045128E+02  0.61558470084E+02  0.00000000000E+00 0.  1.
         11    1    3    3    0    0  0.11272106495E+02  0.23399391341E+02 -0.29419593729E+02  0.39244163835E+02  0.00000000000E+00 0. -1.
</event>
<event>
 7    1  0.5831876E-006  0.1089748E+03  0.7561462E-02  0.1262480E+00
          1   -1    0    0  501    0  0.00000000000E+00  0.00000000000E+00  0.85776008719E+03  0.85776008719E+03  0.00000000000E+00 0. -1.
         -1   -1    0    0    0  501 -0.00000000000E+00 -0.00000000000E+00 -0.15083901917E+02  0.15083901917E+02  0.00000000000E+00 0.  1.
         23    2    1    2    0    0 -0.32952566338E+02  0.21518894376E+02  0.28757234342E+03  0.30447897603E+03  0.91981844401E+02 0.  0.
          5    1    1    2  502    0 -0.40167234281E+02  0.10740022629E+02  0.20778013693E+03  0.21194058719E+03  0.41800000000E+01 0. -1.
         -5    1    1    2    0  502  0.73119800619E+02 -0.32258917005E+02  0.34732370492E+03  0.35642442588E+03  0.41800000000E+01 0.  1.
        -11    1    3    3    0    0  0.30143840692E+02  0.11414138147E+02  0.14005780995E+03  0.14371890554E+03  0.00000000000E+00 0.  1.
         11    1    3    3    0    0 -0.63096407031E+02  0.10104756229E+02  0.14751453347E+03  0.16076007049E+03  0.00000000000E+00 0. -1.
</event>
<event>
 7    1  0.7478987E-006  0.1295949E+03  0.7561462E-02  0.1228058E+00
          1   -1    0    0  501    0  0.00000000000E+00  0.00000000000E+00  0.13204934230E+02  0.13204934230E+02  0.00000000000E+00 0. -1.
         -1   -1    0    0    0  501 -0.00000000000E+00 -0.00000000000E+00 -0.15437187535E+04  0.15437187535E+04  0.00000000000E+00 0.  1.
         23    2    1    2    0    0  0.68939134409E+02 -0.61310712757E+02 -0.75506145028E+03  0.76604741189E+03  0.90549631786E+02 0.  0.
          5    1    1    2  502    0 -0.72001040199E+01  0.67242519319E+02 -0.61631378179E+03  0.62002705419E+03  0.41800000000E+01 0.  1.
         -5    1    1    2    0  502 -0.61739030389E+02 -0.59318065624E+01 -0.15913858722E+03  0.17084922167E+03  0.41800000000E+01 0.  1.
        -11    1    3    3    0    0  0.30498553579E+02  0.21941674902E+02 -0.21843933885E+03  0.22164688950E+03  0.00000000000E+00 0.  1.
         11    1    3    3    0    0  0.38440580830E+02 -0.83252387659E+02 -0.53662211143E+03  0.54440052239E+03  0.00000000000E+00 0. -1.
</event>
<event>
 7    1  0.5831876E-006  0.1348283E+03  0.7561462E-02  0.1220462E+00
         -4   -1    0    0    0  501 -0.00000000000E+00  0.00000000000E+00  0.68765507871E+02  0.68765507871E+02  0.00000000000E+00 0.  1.
          4   -1    0    0  501    0  0.00000000000E+00 -0.00000000000E+00 -0.48439585888E+03  0.48439585888E+03  0.00000000000E+00 0. -1.
         23    2    1    2    0    0  0.10397873814E+03  0.74547524830E-01 -0.39134583166E+02  0.14302877070E+03  0.90078466393E+02 0.  0.
          5    1    1    2  502    0 -0.68453213457E+02  0.53839544890E+02 -0.28523306918E+03  0.29826148793E+03  0.41800000000E+01 0. -1.
         -5    1    1    2    0  502 -0.35525524679E+02 -0.53914092415E+02 -0.91262698667E+02  0.11187110812E+03  0.41800000000E+01 0. -1.
        -11    1    3    3    0    0  0.96585911410E+02 -0.17990006904E+02 -0.59468087275E+02  0.11484307570E+03  0.00000000000E+00 0. -1.
         11    1    3    3    0    0  0.73928267263E+01  0.18064554429E+02  0.20333504109E+02  0.28185695007E+02  0.00000000000E+00 0.  1.
</event>
<event>
 7    1  0.5831876E-006  0.8004347E+02  0.7561462E-02  0.1328928E+00
         -1   -1    0    0    0  501 -0.00000000000E+00  0.00000000000E+00  0.15520760770E+02  0.15520760770E+02  0.00000000000E+00 0.  1.
          1   -1    0    0  501    0  0.00000000000E+00 -0.00000000000E+00 -0.99308100766E+03  0.99308100766E+03  0.00000000000E+00 0. -1.
         23    2    1    2    0    0 -0.36601536496E+01 -0.14922088512E+02 -0.20355847356E+03  0.22440702123E+03  0.93200823872E+02 0.  0.
          5    1    1    2  502    0 -0.45468524453E+02 -0.37423223861E+01 -0.12632590201E+03  0.13437670040E+03  0.41800000000E+01 0. -1.
         -5    1    1    2    0  502  0.49128678103E+02  0.18664410898E+02 -0.64767587132E+03  0.64981804679E+03  0.41800000000E+01 0. -1.
        -11    1    3    3    0    0 -0.23495067052E+02  0.13345453458E+02 -0.11664936823E+02  0.29431106926E+02  0.00000000000E+00 0.  1.
         11    1    3    3    0    0  0.19834913403E+02 -0.28267541971E+02 -0.19189353673E+03  0.19497591430E+03  0.00000000000E+00 0. -1.
</event>
<event>
 7    1  0.5831876E-006  0.1394827E+03  0.7561462E-02  0.1214027E+00
          2   -1    0    0  501    0  0.00000000000E+00  0.00000000000E+00  0.53845186700E+03  0.53845186700E+03  0.00000000000E+00 0. -1.
         -2   -1    0    0    0  501 -0.00000000000E+00 -0.00000000000E+00 -0.47562355820E+02  0.47562355820E+02  0.00000000000E+00 0.  1.
         23    2    1    2    0    0  0.59524165390E+02  0.82978911528E+02  0.12423872735E+03  0.18538051215E+03  0.92206544722E+02 0.  0.
          5    1    1    2  502    0 -0.24664430463E+02  0.31095700621E+02  0.12312976233E+03  0.12943603633E+03  0.41800000000E+01 0. -1.
         -5    1    1    2    0  502 -0.34859734927E+02 -0.11407461215E+03  0.24352102150E+03  0.27119767434E+03  0.41800000000E+01 0. -1.
        -11    1    3    3    0    0  0.72890590809E+02  0.70910124079E+02  0.58711587024E+02  0.11742373855E+03  0.00000000000E+00 0.  1.
         11    1    3    3    0    0 -0.13366425419E+02  0.12068787449E+02  0.65527140322E+02  0.67956773597E+02  0.00000000000E+00 0. -1.
</event>
<event>
 7    1  0.5831876E-006  0.1499064E+03  0.7561462E-02  0.1200588E+00
         -4   -1    0    0    0  501 -0.00000000000E+00  0.00000000000E+00  0.16044217755E+03  0.16044217755E+03  0.00000000000E+00 0.  1.
          4   -1    0    0  501    0  0.00000000000E+00 -0.00000000000E+00 -0.21051756708E+03  0.21051756708E+03  0.00000000000E+00 0. -1.
         23    2    1    2    0    0 -0.59484180317E+02 -0.86912219548E+02  0.80891524543E+02  0.16145919916E+03  0.91834267220E+02 0.  0.
          5    1    1    2  502    0 -0.26265963584E+02  0.69497910910E+02 -0.46120582638E+02  0.87546793240E+02  0.41800000000E+01 0.  1.
         -5    1    1    2    0  502  0.85750143902E+02  0.17414308639E+02 -0.84846331431E+02  0.12195375223E+03  0.41800000000E+01 0.  1.
        -11    1    3    3    0    0 -0.80641577940E+02 -0.48938844928E+02  0.42493570087E+02  0.10345906502E+03  0.00000000000E+00 0.  1.
         11    1    3    3    0    0  0.21157397622E+02 -0.37973374620E+02  0.38397954456E+02  0.58000134143E+02  0.00000000000E+00 0. -1.
</event>
<event>
 7    1  0.5831876E-006  0.1217777E+03  0.7561462E-02  0.1240193E+00
          1   -1    0    0  501    0  0.00000000000E+00  0.00000000000E+00  0.93042169718E+02  0.93042169718E+02  0.00000000000E+00 0. -1.
         -1   -1    0    0    0  501 -0.00000000000E+00 -0.00000000000E+00 -0.36413852430E+03  0.36413852430E+03  0.00000000000E+00 0.  1.
         23    2    1    2    0    0 -0.23659945833E+01 -0.85179104743E+02 -0.29372196319E+03  0.31600778211E+03  0.79544005926E+02 0.  0.
          5    1    1    2  502    0 -0.46375724476E+02  0.38845272863E+02  0.38655681313E+02  0.71912426896E+02  0.41800000000E+01 0. -1.
         -5    1    1    2    0  502  0.48741719059E+02  0.46333831881E+02 -0.16030072709E+02  0.69260485016E+02  0.41800000000E+01 0.  1.
        -11    1    3    3    0    0  0.30904692431E+02 -0.86574215464E+01 -0.63901889567E+02  0.71508757872E+02  0.00000000000E+00 0. -1.
         11    1    3    3    0    0 -0.33270687014E+02 -0.76521683197E+02 -0.22982007362E+03  0.24449902424E+03  0.00000000000E+00 0.  1.
</event>
<event>
 7    1  0.5831876E-006  0.9143073E+02  0.7561462E-02  0.1299423E+00
         -1   -1    0    0    0  501 -0.00000000000E+00  0.00000000000E+00  0.38799056446E+02  0.38799056446E+02  0.00000000000E+00 0.  1.
          1   -1    0    0  501    0  0.00000000000E+00 -0.00000000000E+00 -0.38524270275E+03  0.38524270275E+03  0.00000000000E+00 0. -1.
         23    2    1    2    0    0 -0.41818961426E+01  0.33475186701E+02 -0.69424164701E+02  0.11822289513E+03  0.89548098290E+02 0.  0.
          5    1    1    2  502    0 -0.91437892148E+01 -0.80179373696E+02 -0.17388374594E+03  0.19174297992E+03  0.41800000000E+01 0. -1.
         -5    1    1    2    0  502  0.13325685357E+02  0.46704186995E+02 -0.10313573566E+03  0.11407588414E+03  0.41800000000E+01 0. -1.
        -11    1    3    3    0    0 -0.22805346488E+02  0.17042350178E+02 -0.84501011026E+02  0.89168079448E+02  0.00000000000E+00 0. -1.
         11    1    3    3    0    0  0.18623450346E+02  0.16432836523E+02  0.15076846324E+02  0.29054815678E+02  0.00000000000E+00 0.  1.
</event>
<event>
 7    1  0.5831876E-006  0.2363637E+03  0.7561462E-02  0.1122239E+00
          2   -1    0    0  501    0  0.00000000000E+00  0.00000000000E+00  0.62200250570E+03  0.62200250570E+03  0.00000000000E+00 0. -1.
         -2   -1    0    0    0  501 -0.00000000000E+00 -0.00000000000E+00 -0.10832616777E+03  0.10832616777E+03  0.00000000000E+00 0.  1.
         23    2    1    2    0    0  0.21526844684E+03  0.47765359101E+02  0.13427885407E+03  0.27402710899E+03  0.91858652701E+02 0.  0.
          5    1    1    2  502    0 -0.81085206598E+02 -0.79296599121E+02  0.14227853121E+03  0.18199839067E+03  0.41800000000E+01 0.  1.
         -5    1    1    2    0  502 -0.13418324024E+03  0.31531240021E+02  0.23711895265E+03  0.27430317381E+03  0.41800000000E+01 0.  1.
        -11    1    3    3    0    0  0.17879717614E+03  0.32166087250E+02  0.62684356895E+02  0.19217808398E+03  0.00000000000E+00 0.  1.
         11    1    3    3    0    0  0.36471270702E+02  0.15599271851E+02  0.71594497175E+02  0.81849025007E+02  0.00000000000E+00 0. -1.
</event>
<event>
 7    1  0.5831876E-006  0.9764276E+02  0.7561462E-02  0.1285332E+00
          2   -1    0    0  501    0  0.00000000000E+00  0.00000000000E+00  0.44832051307E+03  0.44832051307E+03  0.00000000000E+00 0. -1.
         -2   -1    0    0    0  501 -0.00000000000E+00 -0.00000000000E+00 -0.25239445739E+02  0.25239445739E+02  0.00000000000E+00 0.  1.
         23    2    1    2    0    0 -0.11699340501E+02 -0.16936843698E+02  0.15776050521E+03  0.17950785876E+03  0.83132202610E+02 0.  0.
          5    1    1    2  502    0 -0.39806652931E+02 -0.35247032100E+02  0.11208688420E+03  0.12412842099E+03  0.41800000000E+01 0. -1.
         -5    1    1    2    0  502  0.51505993432E+02  0.52183875799E+02  0.15323367792E+03  0.16992367905E+03  0.41800000000E+01 0. -1.
        -11    1    3    3    0    0 -0.31209373074E+02 -0.31364885951E+02  0.41233796942E+02  0.60481460371E+02  0.00000000000E+00 0.  1.
         11    1    3    3    0    0  0.19510032573E+02  0.14428042252E+02  0.11652670827E+03  0.11902639839E+03  0.00000000000E+00 0. -1.
</event>
<event>
 7    1  0.5831876E-006  0.7856120E+02  0.7561462E-02  0.1333185E+00
         -2   -1    0    0    0  501 -0.00000000000E+00  0.00000000000E+00  0.11142674392E+03  0.11142674392E+03  0.00000000000E+00 0. -1.
          2   -1    0    0  501    0  0.00000000000E+00 -0.00000000000E+00 -0.12981127530E+03  0.12981127530E+03  0.00000000000E+00 0.  1.
         23    2    1    2    0    0  0.16484920468E+02  0.18808744763E+02  0.40845220074E+02  0.10059265832E+03  0.88459196370E+02 0.  0.
          5    1    1    2  502    0 -0.54133535195E+01 -0.69463316939E+02 -0.54223898461E+02  0.88386426338E+02  0.41800000000E+01 0.  1.
         -5    1    1    2    0  502 -0.11071566949E+02  0.50654572176E+02 -0.50058529961E+01  0.52258934559E+02  0.41800000000E+01 0.  1.
        -11    1    3    3    0    0  0.10438687213E+02 -0.43948833278E+01  0.65340351243E+02  0.66314724540E+02  0.00000000000E+00 0. -1.
         11    1    3    3    0    0  0.60462332558E+01  0.23203628091E+02 -0.24495131170E+02  0.34277933779E+02  0.00000000000E+00 0.  1.
</event>
<event>
 7    1  0.5831876E-006  0.1313909E+03  0.7561462E-02  0.1225406E+00
         -1   -1    0    0    0  501 -0.00000000000E+00  0.00000000000E+00  0.19379527493E+03  0.19379527493E+03  0.00000000000E+00 0.  1.
          1   -1    0    0  501    0  0.00000000000E+00 -0.00000000000E+00 -0.11649247554E+03  0.11649247554E+03  0.00000000000E+00 0. -1.
         23    2    1    2    0    0 -0.94745828138E+02  0.34195073080E+02  0.60623385987E+02  0.14882001331E+03  0.91247610707E+02 0.  0.
          5    1    1    2  502    0 -0.24585250746E+02 -0.32774830183E+02  0.49609811322E+01  0.41481414893E+02  0.41800000000E+01 0.  1.
         -5    1    1    2    0  502  0.11933107888E+03 -0.14202428969E+01  0.11718432265E+02  0.11998632227E+03  0.41800000000E+01 0.  1.
        -11    1    3    3    0    0 -0.97819755110E+01  0.96652078219E+01  0.58779656173E+02  0.60366806003E+02  0.00000000000E+00 0.  1.
         11    1    3    3    0    0 -0.84963852627E+02  0.24529865258E+02  0.18437298137E+01  0.88453207305E+02  0.00000000000E+00 0. -1.
</event>
<event>
 7    1  0.5831876E-006  0.1543470E+03  0.7561462E-02  0.1195231E+00
          1   -1    0    0  501    0  0.00000000000E+00  0.00000000000E+00  0.94473892846E+02  0.94473892846E+02  0.00000000000E+00 0. -1.
         -1   -1    0    0    0  501 -0.00000000000E+00 -0.00000000000E+00 -0.39294185131E+03  0.39294185131E+03  0.00000000000E+00 0.  1.
         23    2    1    2    0    0 -0.47715323249E+02  0.11953288694E+03 -0.25829701690E+03  0.30349597274E+03  0.93955273400E+02 0.  0.
          5    1    1    2  502    0  0.69149220769E+02 -0.78460035034E+02 -0.72454196992E+02  0.12729758400E+03  0.41800000000E+01 0. -1.
         -5    1    1    2    0  502 -0.21433897520E+02 -0.41072851905E+02  0.32283255427E+02  0.56622187413E+02  0.41800000000E+01 0. -1.
        -11    1    3    3    0    0  0.74845855725E+01  0.97958380566E+02 -0.18266912870E+03  0.20741232828E+03  0.00000000000E+00 0. -1.
         11    1    3    3    0    0 -0.55199908822E+02  0.21574506373E+02 -0.75627888203E+02  0.96083644463E+02  0.00000000000E+00 0.  1.
</event>
<event>
 7    1  0.5831876E-006  0.1315432E+03  0.7561462E-02  0.1225184E+00
         -2   -1    0    0    0  501 -0.00000000000E+00  0.00000000000E+00  0.50591059739E+02  0.50591059739E+02  0.00000000000E+00 0.  1.
          2   -1    0    0  501    0  0.00000000000E+00 -0.00000000000E+00 -0.64640568000E+03  0.64640568000E+03  0.00000000000E+00 0. -1.
         23    2    1    2    0    0  0.26756160420E+02  0.80648532551E+02 -0.10451362967E+03  0.18295052344E+03  0.12380515868E+03 0.  0.
          5    1    1    2  502    0 -0.70060298098E+02 -0.80030183260E+02 -0.37716716179E+03  0.39190026274E+03  0.41800000000E+01 0.  1.
         -5    1    1    2    0  502  0.43304137678E+02 -0.61834929109E+00 -0.11413382879E+03  0.12214595356E+03  0.41800000000E+01 0.  1.
        -11    1    3    3    0    0  0.30564640093E+02  0.94210260898E+02 -0.12412910993E+03  0.15880115369E+03  0.00000000000E+00 0. -1.
         11    1    3    3    0    0 -0.38084796733E+01 -0.13561728347E+02  0.19615480258E+02  0.24149369742E+02  0.00000000000E+00 0.  1.
</event>
<event>
 7    1  0.5831876E-006  0.1619681E+03  0.7561462E-02  0.1186493E+00
          1   -1    0    0  501    0  0.00000000000E+00  0.00000000000E+00  0.91945277396E+03  0.91945277396E+03  0.00000000000E+00 0. -1.
         -1   -1    0    0    0  501 -0.00000000000E+00 -0.00000000000E+00 -0.46559720096E+02  0.46559720096E+02  0.00000000000E+00 0.  1.
         23    2    1    2    0    0  0.11708727149E+03 -0.73389859035E+02  0.16438190973E+03  0.23339288430E+03  0.91407470383E+02 0.  0.
          5    1    1    2  502    0 -0.12955603815E+03  0.89084621119E+02  0.52736984225E+03  0.55032468566E+03  0.41800000000E+01 0.  1.
         -5    1    1    2    0  502  0.12468766653E+02 -0.15694762084E+02  0.18114130189E+03  0.18229492409E+03  0.41800000000E+01 0.  1.
        -11    1    3    3    0    0  0.24570452270E+02 -0.41666149892E+02  0.11298901284E+03  0.12290765718E+03  0.00000000000E+00 0. -1.
         11    1    3    3    0    0  0.92516819223E+02 -0.31723709144E+02  0.51392896887E+02  0.11048522712E+03  0.00000000000E+00 0.  1.
</event>
<event>
 7    1  0.5831876E-006  0.1306609E+03  0.7561462E-02  0.1226478E+00
         -2   -1    0    0    0  501 -0.00000000000E+00  0.00000000000E+00  0.58276695943E+02  0.58276695943E+02  0.00000000000E+00 0.  1.
          2   -1    0    0  501    0  0.00000000000E+00 -0.00000000000E+00 -0.34274167226E+03  0.34274167226E+03  0.00000000000E+00 0. -1.
         23    2    1    2    0    0  0.85566838481E+02  0.23913084088E+02 -0.94939540844E+02  0.15717122331E+03  0.88293587437E+02 0.  0.
          5    1    1    2  502    0  0.59758047093E+01 -0.48690286552E+02 -0.10809009490E+03  0.11877455646E+03  0.41800000000E+01 0.  1.
         -5    1    1    2    0  502 -0.91542643190E+02  0.24777202464E+02 -0.81435340580E+02  0.12507258844E+03  0.41800000000E+01 0.  1.
        -11    1    3    3    0    0  0.92904479992E+02  0.79784488538E+00 -0.95055721620E+02  0.13291903239E+03  0.00000000000E+00 0.  1.
         11    1    3    3    0    0 -0.73376415109E+01  0.23115239203E+02  0.11618077648E+00  0.24252190918E+02  0.00000000000E+00 0. -1.
</event>
<event>
 7    1  0.5831876E-006  0.1192450E+03  0.7561462E-02  0.1244348E+00
          1   -1    0    0  501    0  0.00000000000E+00  0.00000000000E+00  0.10838918614E+04  0.10838918614E+04  0.00000000000E+00 0. -1.
         -1   -1    0    0    0  501 -0.00000000000E+00 -0.00000000000E+00 -0.21717495794E+02  0.21717495794E+02  0.00000000000E+00 0.  1.
         23    2    1    2    0    0  0.79404986203E+02  0.37901868722E+02  0.26253134433E+03  0.29147176312E+03  0.91057006629E+02 0.  0.
          5    1    1    2  502    0 -0.88379556501E+02 -0.18913205227E+02  0.28429980969E+03  0.29834964308E+03  0.41800000000E+01 0. -1.
         -5    1    1    2    0  502  0.89745702982E+01 -0.18988663495E+02  0.51534321161E+03  0.51578795101E+03  0.41800000000E+01 0. -1.
        -11    1    3    3    0    0 -0.12853253546E+02  0.31612727434E+02  0.73290145393E+02  0.80845631139E+02  0.00000000000E+00 0. -1.
         11    1    3    3    0    0  0.92258239749E+02  0.62891412880E+01  0.18924119893E+03  0.21062613198E+03  0.00000000000E+00 0.  1.
</event>
<event>
 7    1  0.5831876E-006  0.9823069E+02  0.7561462E-02  0.1284061E+00
         -1   -1    0    0    0  501 -0.00000000000E+00  0.00000000000E+00  0.31692763961E+02  0.31692763961E+02  0.00000000000E+00 0.  1.
          1   -1    0    0  501    0  0.00000000000E+00 -0.00000000000E+00 -0.43915493712E+03  0.43915493712E+03  0.00000000000E+00 0. -1.
         23    2    1    2    0    0 -0.40244876390E+02 -0.12994467184E+02 -0.14632342002E+03  0.17822194300E+03  0.92541944366E+02 0.  0.
          5    1    1    2  502    0  0.47536467807E+02 -0.31761236547E+02 -0.48267211422E+02  0.74937894399E+02  0.41800000000E+01 0.  1.
         -5    1    1    2    0  502 -0.72915914167E+01  0.44755703732E+02 -0.21287154171E+03  0.21768786368E+03  0.41800000000E+01 0.  1.
        -11    1    3    3    0    0 -0.55362017782E+02 -0.36025090573E+02 -0.13097156740E+03  0.14668439464E+03  0.00000000000E+00 0. -1.
         11    1    3    3    0    0  0.15117141393E+02  0.23030623388E+02 -0.15351852616E+02  0.31537548356E+02  0.00000000000E+00 0.  1.
</event>
<event>
 7    1  0.5831876E-006  0.1319006E+03  0.7561462E-02  0.1224663E+00
          1   -1    0    0  501    0  0.00000000000E+00  0.00000000000E+00  0.64956613841E+03  0.64956613841E+03  0.00000000000E+00 0. -1.
         -1   -1    0    0    0  501 -0.00000000000E+00 -0.00000000000E+00 -0.28715777829E+02  0.28715777829E+02  0.00000000000E+00 0.  1.
         23    2    1    2    0    0 -0.21999259966E+02 -0.77736298388E+02  0.26370286412E+03  0.29133522399E+03  0.93862200388E+02 0.  0.
          5    1    1    2  502    0  0.38878182848E+02  0.10280274619E+03  0.32271578625E+03  0.34094408459E+03  0.41800000000E+01 0. -1.
         -5    1    1    2    0  502 -0.16878922883E+02 -0.25066447807E+02  0.34431710207E+02  0.46002607656E+02  0.41800000000E+01 0. -1.
        -11    1    3    3    0    0 -0.56479344492E+02 -0.66035766762E+02  0.19774025214E+03  0.21599038442E+03  0.00000000000E+00 0. -1.
         11    1    3    3    0    0  0.34480084526E+02 -0.11700531626E+02  0.65962611984E+02  0.75344839564E+02  0.00000000000E+00 0.  1.
</event>
<event>
 7    1  0.5831876E-006  0.1686691E+03  0.7561462E-02  0.1179243E+00
         -1   -1    0    0    0  501 -0.00000000000E+00  0.00000000000E+00  0.17689622929E+03  0.17689622929E+03  0.00000000000E+00 0.  1.
          1   -1    0    0  501    0  0.00000000000E+00 -0.00000000000E+00 -0.16916165344E+03  0.16916165344E+03  0.00000000000E+00 0. -1.
         23    2    1    2    0    0 -0.37041558301E+02  0.13166248485E+03  0.21901403497E+02  0.16611651264E+03  0.91694805408E+02 0.  0.
          5    1    1    2  502    0  0.73454198166E+02 -0.47494236971E+02 -0.78434146170E+01  0.87921631733E+02  0.41800000000E+01 0. -1.
         -5    1    1    2    0  502 -0.36412639865E+02 -0.84168247883E+02 -0.63234130374E+01  0.92019738350E+02  0.41800000000E+01 0.  1.
        -11    1    3    3    0    0 -0.61013576588E+02  0.76742820219E+02  0.36199403249E+02  0.10451083092E+03  0.00000000000E+00 0.  1.
         11    1    3    3    0    0  0.23972018287E+02  0.54919664635E+02 -0.14297999751E+02  0.61605681729E+02  0.00000000000E+00 0. -1.
</event>
<event>
 7    1  0.5831876E-006  0.8785334E+02  0.7561462E-02  0.1308135E+00
         -1   -1    0    0    0  501 -0.00000000000E+00  0.00000000000E+00  0.41832855984E+02  0.41832855984E+02  0.00000000000E+00 0.  1.
          1   -1    0    0  501    0  0.00000000000E+00 -0.00000000000E+00 -0.38846259615E+03  0.38846259615E+03  0.00000000000E+00 0. -1.
         23    2    1    2    0    0 -0.91541816917E+00  0.43761316879E+02 -0.66021400403E+02  0.11997183946E+03  0.90102864027E+02 0.  0.
          5    1    1    2  502    0  0.32092147000E+02  0.23649142643E+02 -0.33429526612E+02  0.52193807068E+02  0.41800000000E+01 0.  1.
         -5    1    1    2    0  502 -0.31176728831E+02 -0.67410459522E+02 -0.24717881315E+03  0.25812980561E+03  0.41800000000E+01 0.  1.
        -11    1    3    3    0    0  0.18901697285E+02  0.83672257977E+01 -0.75530437172E+02  0.78307927869E+02  0.00000000000E+00 0. -1.
         11    1    3    3    0    0 -0.19817115454E+02  0.35394091082E+02  0.95090367688E+01  0.41663911587E+02  0.00000000000E+00 0.  1.
</event>
<event>
 7    1  0.5831876E-006  0.9049501E+02  0.7561462E-02  0.1301657E+00
          2   -1    0    0  501    0  0.00000000000E+00  0.00000000000E+00  0.48052800769E+02  0.48052800769E+02  0.00000000000E+00 0.  1.
         -2   -1    0    0    0  501 -0.00000000000E+00 -0.00000000000E+00 -0.33696834943E+03  0.33696834943E+03  0.00000000000E+00 0. -1.
         23    2    1    2    0    0  0.60233928439E+02  0.22979193095E+02 -0.14394774379E+03  0.18298097329E+03  0.92762676719E+02 0.  0.
          5    1    1    2  502    0 -0.29348478330E+02  0.72224239745E+01  0.16606838119E+02  0.34738394618E+02  0.41800000000E+01 0.  1.
         -5    1    1    2    0  502 -0.30885450110E+02 -0.30201617069E+02 -0.16157464298E+03  0.16730178229E+03  0.41800000000E+01 0.  1.
        -11    1    3    3    0    0 -0.20140327313E+02  0.17220062818E+02 -0.13721452159E+02  0.29840268046E+02  0.00000000000E+00 0.  1.
         11    1    3    3    0    0  0.80374255752E+02  0.57591302770E+01 -0.13022629164E+03  0.15314070524E+03  0.00000000000E+00 0. -1.
</event>
<event>
 7    1  0.5831876E-006  0.1048761E+03  0.7561462E-02  0.1270364E+00
         -2   -1    0    0    0  501 -0.00000000000E+00  0.00000000000E+00  0.29596831099E+02  0.29596831099E+02  0.00000000000E+00 0.  1.
          2   -1    0    0  501    0  0.00000000000E+00 -0.00000000000E+00 -0.54118437695E+03  0.54118437695E+03  0.00000000000E+00 0. -1.
         23    2    1    2    0    0  0.59024382134E+02 -0.28102619344E+02 -0.21365099655E+03  0.24110319676E+03  0.90611082447E+02 0.  0.
          5    1    1    2  502    0 -0.77152275248E+02  0.29069268294E+02 -0.94870217007E+02  0.12575900131E+03  0.41800000000E+01 0. -1.
         -5    1    1    2    0  502  0.18127893114E+02 -0.96664894956E+00 -0.20306633230E+03  0.20391900998E+03  0.41800000000E+01 0. -1.
        -11    1    3    3    0    0  0.73235635834E+02 -0.45413784602E+02 -0.18945461873E+03  0.20813198395E+03  0.00000000000E+00 0.  1.
         11    1    3    3    0    0 -0.14211253699E+02  0.17311165258E+02 -0.24196377818E+02  0.32971212804E+02  0.00000000000E+00 0. -1.
</event>
<event>
 7    1  0.5831876E-006  0.9764860E+02  0.7561462E-02  0.1285320E+00
          1   -1    0    0  501    0  0.00000000000E+00  0.00000000000E+00  0.74278127306E+03  0.74278127306E+03  0.00000000000E+00 0. -1.
         -1   -1    0    0    0  501 -0.00000000000E+00 -0.00000000000E+00 -0.23981232753E+02  0.23981232753E+02  0.00000000000E+00 0.  1.
         23    2    1    2    0    0  0.62251301069E+02  0.30058370562E+01  0.18663728801E+03  0.21655400049E+03  0.90431732892E+02 0.  0.
          5    1    1    2  502    0  0.70019926682E+01  0.12674201082E+02  0.39861404150E+03  0.39889884652E+03  0.41800000000E+01 0. -1.
         -5    1    1    2    0  502 -0.69253293737E+02 -0.15680038138E+02  0.13354871080E+03  0.15130965880E+03  0.41800000000E+01 0. -1.
        -11    1    3    3    0    0  0.49275886086E+02 -0.40445870214E+02  0.12114408067E+03  0.13689364357E+03  0.00000000000E+00 0.  1.
         11    1    3    3    0    0  0.12975414983E+02  0.43451707270E+02  0.65493207332E+02  0.79660356925E+02  0.00000000000E+00 0. -1.
</event>
<event>
 7    1  0.5831876E-006  0.1522681E+03  0.7561462E-02  0.1197713E+00
         -2   -1    0    0    0  501 -0.00000000000E+00  0.00000000000E+00  0.17453061326E+03  0.17453061326E+03  0.00000000000E+00 0.  1.
          2   -1    0    0  501    0  0.00000000000E+00 -0.00000000000E+00 -0.16002161054E+03  0.16002161054E+03  0.00000000000E+00 0. -1.
         23    2    1    2    0    0  0.12192014277E+03 -0.38213095835E+02  0.36388674258E+02  0.16136854437E+03  0.91601908241E+02 0.  0.
          5    1    1    2  502    0 -0.11492713995E+03  0.63610252799E+02 -0.43936869271E+02  0.13857284236E+03  0.41800000000E+01 0. -1.
         -5    1    1    2    0  502 -0.69930028151E+01 -0.25397156964E+02  0.22057197736E+02  0.34610837063E+02  0.41800000000E+01 0.  1.
        -11    1    3    3    0    0  0.10404273069E+03 -0.58532199020E+02  0.51903770902E+02  0.13017261450E+03  0.00000000000E+00 0.  1.
         11    1    3    3    0    0  0.17877412073E+02  0.20319103185E+02 -0.15515096644E+02  0.31195929872E+02  0.00000000000E+00 0. -1.
</event>
<event>
 7    1  0.5831876E-006  0.1062334E+03  0.7561462E-02  0.1267708E+00
         -3   -1    0    0    0  501 -0.00000000000E+00  0.00000000000E+00  0.41627723492E+03  0.41627723492E+03  0.00000000000E+00 0.  1.
          3   -1    0    0  501    0  0.00000000000E+00 -0.00000000000E+00 -0.41616758037E+02  0.41616758037E+02  0.00000000000E+00 0. -1.
         23    2    1    2    0    0  0.65787781534E+02  0.13702516269E+02  0.23133675394E+03  0.25613724223E+03  0.87027593222E+02 0.  0.
          5    1    1    2  502    0  0.20943048507E+02  0.13416946024E+02 -0.68902243037E+01  0.26145234983E+02  0.41800000000E+01 0.  1.
         -5    1    1    2    0  502 -0.86730830041E+02 -0.27119462293E+02  0.15021394724E+03  0.17561151574E+03  0.41800000000E+01 0.  1.
        -11    1    3    3    0    0  0.71418121191E+02  0.31171167020E+02  0.22253192108E+03  0.23578092711E+03  0.00000000000E+00 0.  1.
         11    1    3    3    0    0 -0.56303396575E+01 -0.17468650751E+02  0.88048328635E+01  0.20356315125E+02  0.00000000000E+00 0. -1.
</event>
<event>
 7    1  0.5831876E-006  0.1325099E+03  0.7561462E-02  0.1223778E+00
          1   -1    0    0  501    0  0.00000000000E+00  0.00000000000E+00  0.14282856589E+04  0.14282856589E+04  0.00000000000E+00 0. -1.
         -1   -1    0    0    0  501 -0.00000000000E+00 -0.00000000000E+00 -0.14011877387E+02  0.14011877387E+02  0.00000000000E+00 0.  1.
         23    2    1    2    0    0 -0.35304141748E+02 -0.78699379858E+02  0.53653998538E+03  0.55150839877E+03  0.94055213510E+02 0.  0.
          5    1    1    2  502    0  0.48965633373E+02  0.10382827563E+03  0.55498188671E+03  0.56674536703E+03  0.41800000000E+01 0. -1.
         -5    1    1    2    0  502 -0.13661491625E+02 -0.25128895771E+02  0.32275190939E+03  0.32404377045E+03  0.41800000000E+01 0. -1.
        -11    1    3    3    0    0 -0.41080259676E+02  0.12356118176E+01  0.10835045416E+03  0.11588328347E+03  0.00000000000E+00 0.  1.
         11    1    3    3    0    0  0.57761179284E+01 -0.79934991675E+02  0.42818953121E+03  0.43562511529E+03  0.00000000000E+00 0. -1.
</event>
<event>
 7    1  0.8413786E-006  0.2012760E+03  0.7561462E-02  0.1148667E+00
          2   -1    0    0  501    0  0.00000000000E+00  0.00000000000E+00  0.55794846675E+03  0.55794846675E+03  0.00000000000E+00 0. -1.
         -2   -1    0    0    0  501 -0.00000000000E+00 -0.00000000000E+00 -0.93317338372E+02  0.93317338372E+02  0.00000000000E+00 0.  1.
         23    2    1    2    0    0 -0.19781967232E+03 -0.26979700432E+02  0.21431539843E+03  0.30751337001E+03  0.93663524082E+02 0.  0.
          5    1    1    2  502    0  0.19827759989E+02  0.13503092921E+02 -0.11435866942E+02  0.26902138155E+02  0.41800000000E+01 0. -1.
         -5    1    1    2    0  502  0.17799191233E+03  0.13476607512E+02  0.26175159689E+03  0.31685029695E+03  0.41800000000E+01 0. -1.
        -11    1    3    3    0    0 -0.12031992201E+03 -0.16519836307E+02  0.19021750614E+03  0.22568227282E+03  0.00000000000E+00 0. -1.
         11    1    3    3    0    0 -0.77499750308E+02 -0.10459864125E+02  0.24097892291E+02  0.81831097195E+02  0.00000000000E+00 0.  1.
</event>
<event>
 7    1  0.5831876E-006  0.1722975E+03  0.7561462E-02  0.1175473E+00
         -1   -1    0    0    0  501 -0.00000000000E+00  0.00000000000E+00  0.43066112806E+02  0.43066112806E+02  0.00000000000E+00 0.  1.
          1   -1    0    0  501    0  0.00000000000E+00 -0.00000000000E+00 -0.75484399042E+03  0.75484399042E+03  0.00000000000E+00 0. -1.
         23    2    1    2    0    0  0.10742460688E+03  0.10136135445E+03 -0.39086825737E+03  0.42315081866E+03  0.66816542714E+02 0.  0.
          5    1    1    2  502    0 -0.60340821967E+02  0.17825270891E+02 -0.13404217004E+03  0.14813348989E+03  0.41800000000E+01 0.  1.
         -5    1    1    2    0  502 -0.47083784912E+02 -0.11918662534E+03 -0.18686745020E+03  0.22662579467E+03  0.41800000000E+01 0.  1.
        -11    1    3    3    0    0  0.37604593870E+02  0.11105001189E+02 -0.17096845293E+03  0.17540706494E+03  0.00000000000E+00 0. -1.
         11    1    3    3    0    0  0.69820013009E+02  0.90256353264E+02 -0.21989980443E+03  0.24774375373E+03  0.00000000000E+00 0.  1.
</event>
<event>
 7    1  0.5831876E-006  0.1189705E+03  0.7561462E-02  0.1244805E+00
         -1   -1    0    0    0  501 -0.00000000000E+00  0.00000000000E+00  0.24028288982E+02  0.24028288982E+02  0.00000000000E+00 0.  1.
          1   -1    0    0  501    0  0.00000000000E+00 -0.00000000000E+00 -0.16727862344E+04  0.16727862344E+04  0.00000000000E+00 0. -1.
         23    2    1    2    0    0  0.31003307933E+01 -0.95547210133E+02 -0.20880022104E+03  0.24664700899E+03  0.89990740208E+02 0.  0.
          5    1    1    2  502    0  0.37045031055E+01  0.99867502356E+02 -0.14372024361E+04  0.14406788526E+04  0.41800000000E+01 0. -1.
         -5    1    1    2    0  502 -0.68048338988E+01 -0.43202922235E+01 -0.27552881842E+01  0.94886617742E+01  0.41800000000E+01 0.  1.
        -11    1    3    3    0    0  0.33684200944E+01 -0.11216600802E+03 -0.16273170982E+03  0.19767187202E+03  0.00000000000E+00 0.  1.
         11    1    3    3    0    0 -0.26808930108E+00  0.16618797885E+02 -0.46068511219E+02  0.48975136967E+02  0.00000000000E+00 0. -1.
</event>
<event>
 7    1  0.5831876E-006  0.4031097E+03  0.7561462E-02  0.1042708E+00
         -2   -1    0    0    0  501 -0.00000000000E+00  0.00000000000E+00  0.73767470078E+02  0.73767470078E+02  0.00000000000E+00 0.  1.
          2   -1    0    0  501    0  0.00000000000E+00 -0.00000000000E+00 -0.28105157480E+04  0.28105157480E+04  0.00000000000E+00 0. -1.
         23    2    1    2    0    0  0.38531448019E+03  0.68503964977E+02 -0.70509277514E+03  0.81149841485E+03  0.90630093686E+02 0.  0.
          5    1    1    2  502    0 -0.19864795313E+03 -0.89191517858E+02 -0.92466382957E+03  0.94996673955E+03  0.41800000000E+01 0. -1.
         -5    1    1    2    0  502 -0.18666652705E+03  0.20687552881E+02 -0.11069916732E+04  0.11228180637E+04  0.41800000000E+01 0. -1.
        -11    1    3    3    0    0  0.19027742405E+03 -0.94981134422E+01 -0.36599103664E+03  0.41260774491E+03  0.00000000000E+00 0.  1.
         11    1    3    3    0    0  0.19503705614E+03  0.78002078420E+02 -0.33910173851E+03  0.39889066994E+03  0.00000000000E+00 0. -1.
</event>
<event>
 7    1  0.5831876E-006  0.8746499E+02  0.7561462E-02  0.1309109E+00
          3   -1    0    0  501    0  0.00000000000E+00  0.00000000000E+00  0.10058905403E+03  0.10058905403E+03  0.00000000000E+00 0. -1.
         -3   -1    0    0    0  501 -0.00000000000E+00 -0.00000000000E+00 -0.14217535864E+03  0.14217535864E+03  0.00000000000E+00 0.  1.
         23    2    1    2    0    0  0.17095082448E+02  0.23704413918E+02 -0.59413354182E+02  0.11307513166E+03  0.91661865912E+02 0.  0.
          5    1    1    2  502    0 -0.39869550357E+02 -0.34999609593E+02 -0.39874091827E+02  0.66497889563E+02  0.41800000000E+01 0. -1.
         -5    1    1    2    0  502  0.22774467909E+02  0.11295195675E+02  0.57701141399E+02  0.63191391444E+02  0.41800000000E+01 0. -1.
        -11    1    3    3    0    0 -0.37039607811E+02  0.18953950454E+02 -0.29886865076E+02  0.51228990705E+02  0.00000000000E+00 0.  1.
         11    1    3    3    0    0  0.54134690259E+02  0.47504634645E+01 -0.29526489106E+02  0.61846140958E+02  0.00000000000E+00 0. -1.
</event>
<event>
 7    1  0.5831876E-006  0.1744561E+03  0.7561462E-02  0.1173279E+00
         -1   -1    0    0    0  501 -0.00000000000E+00  0.00000000000E+00  0.73452122133E+02  0.73452122133E+02  0.00000000000E+00 0.  1.
          1   -1    0    0  501    0  0.00000000000E+00 -0.00000000000E+00 -0.49517016693E+03  0.49517016693E+03  0.00000000000E+00 0. -1.
         23    2    1    2    0    0 -0.35628192181E+02 -0.14016201780E+03 -0.10911550556E+03  0.20217652658E+03  0.89746281463E+02 0.  0.
          5    1    1    2  502    0  0.20040260418E+02 -0.19368005202E+02 -0.71903988954E+02  0.77229448339E+02  0.41800000000E+01 0.  1.
         -5    1    1    2    0  502  0.15587931763E+02  0.15953002300E+03 -0.24069855028E+03  0.28921631414E+03  0.41800000000E+01 0.  1.
        -11    1    3    3    0    0  0.19217648514E+02 -0.17378360375E+02 -0.47822575221E+02  0.54390478253E+02  0.00000000000E+00 0. -1.
         11    1    3    3    0    0 -0.54845840695E+02 -0.12278365742E+03 -0.61292930337E+02  0.14778604833E+03  0.00000000000E+00 0.  1.
</event>
<event>
 7    1  0.5831876E-006  0.9232462E+02  0.7561462E-02  0.1297318E+00
         -1   -1    0    0    0  501 -0.00000000000E+00  0.00000000000E+00  0.53613741101E+02  0.53613741101E+02  0.00000000000E+00 0.  1.
          1   -1    0    0  501    0  0.00000000000E+00 -0.00000000000E+00 -0.27159234800E+03  0.27159234800E+03  0.00000000000E+00 0. -1.
         23    2    1    2    0    0 -0.20061944545E+02 -0.31229952849E+02 -0.45994587197E+02  0.10930509262E+03  0.91947319960E+02 0.  0.
          5    1    1    2  502    0 -0.48068003378E+02 -0.41975309498E+01 -0.97366153918E+02  0.10874645991E+03  0.41800000000E+01 0. -1.
         -5    1    1    2    0  502  0.68129947923E+02  0.35427483799E+02 -0.74617865783E+02  0.10715453656E+03  0.41800000000E+01 0. -1.
        -11    1    3    3    0    0  0.12374013740E+02 -0.22572777317E+02  0.21748799754E+02  0.33699507156E+02  0.00000000000E+00 0.  1.
         11    1    3    3    0    0 -0.32435958285E+02 -0.86571755325E+01 -0.67743386951E+02  0.75605585466E+02  0.00000000000E+00 0. -1.
</event>
<event>
 7    1  0.5831876E-006  0.3453654E+03  0.7561462E-02  0.1064533E+00
         -1   -1    0    0    0  501 -0.00000000000E+00  0.00000000000E+00  0.57695141524E+03  0.57695141524E+03  0.00000000000E+00 0.  1.
          1   -1    0    0  501    0  0.00000000000E+00 -0.00000000000E+00 -0.31638440129E+03  0.31638440129E+03  0.00000000000E+00 0. -1.
         23    2    1    2    0    0  0.23169698342E+03  0.24313340722E+03  0.37522243765E+03  0.51704486302E+03  0.11724404816E+03 0.  0.
          5    1    1    2  502    0 -0.84550454055E+02 -0.82659054105E+02 -0.10519826333E+03  0.15832070463E+03  0.41800000000E+01 0.  1.
         -5    1    1    2    0  502 -0.14714652936E+03 -0.16047435312E+03 -0.94571603609E+01  0.21797024888E+03  0.41800000000E+01 0.  1.
        -11    1    3    3    0    0  0.13395820572E+02 -0.12615592320E+02  0.11448548108E+02  0.21671881140E+02  0.00000000000E+00 0.  1.
         11    1    3    3    0    0  0.21830116285E+03  0.25574899954E+03  0.36377388954E+03  0.49537298188E+03  0.00000000000E+00 0. -1.
</event>
<event>
 7    1  0.5831876E-006  0.1091157E+03  0.7561462E-02  0.1262216E+00
          1   -1    0    0  501    0  0.00000000000E+00  0.00000000000E+00  0.10511330398E+04  0.10511330398E+04  0.00000000000E+00 0. -1.
         -1   -1    0    0    0  501 -0.00000000000E+00 -0.00000000000E+00 -0.49134030727E+02  0.49134030727E+02  0.00000000000E+00 0.  1.
         23    2    1    2    0    0  0.59431691139E+02  0.19707920468E+02  0.25150831434E+02  0.11475496796E+03  0.92820311943E+02 0.  0.
          5    1    1    2  502    0 -0.70409069203E+02 -0.46775818309E+02  0.88507067805E+03  0.88910797530E+03  0.41800000000E+01 0. -1.
         -5    1    1    2    0  502  0.10977378064E+02  0.27067897841E+02  0.91777499638E+02  0.96404127311E+02  0.41800000000E+01 0.  1.
        -11    1    3    3    0    0 -0.20177586948E+02 -0.49018629360E+01  0.23572357857E+02  0.31413680622E+02  0.00000000000E+00 0. -1.
         11    1    3    3    0    0  0.79609278086E+02  0.24609783404E+02  0.15784735772E+01  0.83341287340E+02  0.00000000000E+00 0.  1.
</event>
<event>
 7    1  0.5831876E-006  0.1039196E+03  0.7561462E-02  0.1272263E+00
          1   -1    0    0  501    0  0.00000000000E+00  0.00000000000E+00  0.36495581820E+03  0.36495581820E+03  0.00000000000E+00 0. -1.
         -1   -1    0    0    0  501 -0.00000000000E+00 -0.00000000000E+00 -0.60471889815E+02  0.60471889815E+02  0.00000000000E+00 0.  1.
         23    2    1    2    0    0 -0.15922939911E+01 -0.74584314966E+01 -0.78307231455E+01  0.90297483255E+02  0.89633429347E+02 0.  0.
          5    1    1    2  502    0 -0.22582378954E+02 -0.51391956893E+02  0.12057004872E+03  0.13306279015E+03  0.41800000000E+01 0. -1.
         -5    1    1    2    0  502  0.24174672945E+02  0.58850388390E+02  0.19174460280E+03  0.20206743461E+03  0.41800000000E+01 0.  1.
        -11    1    3    3    0    0 -0.77312724054E+01  0.39592359325E+02  0.62071505015E+01  0.40814901780E+02  0.00000000000E+00 0.  1.
         11    1    3    3    0    0  0.61389784143E+01 -0.47050790822E+02 -0.14037873647E+02  0.49482581475E+02  0.00000000000E+00 0. -1.
</event>
<event>
 7    1  0.5831876E-006  0.1378460E+03  0.7561462E-02  0.1216257E+00
          1   -1    0    0  501    0  0.00000000000E+00  0.00000000000E+00  0.44812771903E+02  0.44812771903E+02  0.00000000000E+00 0. -1.
         -1   -1    0    0    0  501 -0.00000000000E+00 -0.00000000000E+00 -0.55967245589E+03  0.55967245589E+03  0.00000000000E+00 0.  1.
         23    2    1    2    0    0 -0.88451585729E+02 -0.38394661964E+02 -0.35633250708E+03  0.38070747684E+03  0.93099378270E+02 0.  0.
          5    1    1    2  502    0  0.83399037301E+02  0.80035904582E+02 -0.11224463669E+03  0.16117529684E+03  0.41800000000E+01 0. -1.
         -5    1    1    2    0  502  0.50525484283E+01 -0.41641242619E+02 -0.46282540217E+02  0.62602454116E+02  0.41800000000E+01 0. -1.
        -11    1    3    3    0    0 -0.83789386297E+02 -0.47698480562E+01 -0.15250383279E+03  0.17407134090E+03  0.00000000000E+00 0. -1.
         11    1    3    3    0    0 -0.46621994320E+01 -0.33624813907E+02 -0.20382867429E+03  0.20663613594E+03  0.00000000000E+00 0.  1.
</event>
<event>
 7    1  0.5831876E-006  0.1269982E+03  0.7561462E-02  0.1231979E+00
          1   -1    0    0  501    0  0.00000000000E+00  0.00000000000E+00  0.34618741344E+03  0.34618741344E+03  0.00000000000E+00 0. -1.
         -1   -1    0    0    0  501 -0.00000000000E+00 -0.00000000000E+00 -0.62820953841E+02  0.62820953841E+02  0.00000000000E+00 0.  1.
         23    2    1    2    0    0  0.94666425827E+02 -0.20365862930E+02  0.14585057788E+03  0.19940176614E+03  0.95457701200E+02 0.  0.
          5    1    1    2  502    0 -0.54014903619E+02  0.72750620714E+02  0.91117925889E+02  0.12856986990E+03  0.41800000000E+01 0.  1.
         -5    1    1    2    0  502 -0.40651522208E+02 -0.52384757784E+02  0.46397955824E+02  0.81036731243E+02  0.41800000000E+01 0.  1.
        -11    1    3    3    0    0  0.43051487638E+02 -0.83124442036E+01  0.13924840830E+03  0.14598851506E+03  0.00000000000E+00 0. -1.
         11    1    3    3    0    0  0.51614938189E+02 -0.12053418727E+02  0.66021695848E+01  0.53413251076E+02  0.00000000000E+00 0.  1.
</event>
<event>
 7    1  0.5831876E-006  0.8079703E+02  0.7561462E-02  0.1326805E+00
          1   -1    0    0  501    0  0.00000000000E+00  0.00000000000E+00  0.61132786195E+03  0.61132786195E+03  0.00000000000E+00 0. -1.
         -1   -1    0    0    0  501 -0.00000000000E+00 -0.00000000000E+00 -0.49980297294E+02  0.49980297294E+02  0.00000000000E+00 0.  1.
         23    2    1    2    0    0 -0.24587092380E+02  0.71024190516E+01  0.12366731548E+02  0.95475321330E+02  0.91146209278E+02 0.  0.
          5    1    1    2  502    0  0.45259418171E+02  0.96189543013E+01  0.53196550152E+03  0.53399036173E+03  0.41800000000E+01 0. -1.
         -5    1    1    2    0  502 -0.20672325790E+02 -0.16721373353E+02  0.17015331587E+02  0.31842476182E+02  0.41800000000E+01 0.  1.
        -11    1    3    3    0    0 -0.39476244721E+02  0.37451913211E+02  0.24342279828E+02  0.59611796548E+02  0.00000000000E+00 0. -1.
         11    1    3    3    0    0  0.14889152341E+02 -0.30349494159E+02 -0.11975548280E+02  0.35863524782E+02  0.00000000000E+00 0.  1.
</event>
<event>
 7    1  0.5831876E-006  0.1096975E+03  0.7561462E-02  0.1261131E+00
         -2   -1    0    0    0  501 -0.00000000000E+00  0.00000000000E+00  0.15616297894E+02  0.15616297894E+02  0.00000000000E+00 0.  1.
          2   -1    0    0  501    0  0.00000000000E+00 -0.00000000000E+00 -0.15878168588E+04  0.15878168588E+04  0.00000000000E+00 0. -1.
         23    2    1    2    0    0  0.57984631399E+02  0.27052221295E+02 -0.25611170475E+03  0.27986550565E+03  0.92937913632E+02 0.  0.
          5    1    1    2  502    0 -0.90856265330E+02 -0.39197949605E+02 -0.77060238100E+03  0.77694069413E+03  0.41800000000E+01 0. -1.
         -5    1    1    2    0  502  0.32871633931E+02  0.12145728310E+02 -0.54548647513E+03  0.54662695688E+03  0.41800000000E+01 0. -1.
        -11    1    3    3    0    0  0.17065767042E+02  0.38887487270E+02 -0.36008561083E+02  0.55678483656E+02  0.00000000000E+00 0.  1.
         11    1    3    3    0    0  0.40918864357E+02 -0.11835265975E+02 -0.22010314366E+03  0.22418702200E+03  0.00000000000E+00 0. -1.
</event>
<event>
 7    1  0.5831876E-006  0.1117905E+03  0.7561462E-02  0.1257290E+00
         -2   -1    0    0    0  501 -0.00000000000E+00  0.00000000000E+00  0.82876908007E+02  0.82876908007E+02  0.00000000000E+00 0.  1.
          2   -1    0    0  501    0  0.00000000000E+00 -0.00000000000E+00 -0.20000919548E+03  0.20000919548E+03  0.00000000000E+00 0. -1.
         23    2    1    2    0    0  0.30998895363E+02  0.17788093202E+02  0.12649397409E+02  0.99123182744E+02  0.91586299898E+02 0.  0.
          5    1    1    2  502    0 -0.61568846024E+02  0.30974427046E+02 -0.49777862107E+02  0.85120184959E+02  0.41800000000E+01 0.  1.
         -5    1    1    2    0  502  0.30569950661E+02 -0.48762520247E+02 -0.80003822774E+02  0.98642735783E+02  0.41800000000E+01 0.  1.
        -11    1    3    3    0    0 -0.19263384978E+02 -0.24484162936E+02 -0.38946507111E+01  0.31396186706E+02  0.00000000000E+00 0.  1.
         11    1    3    3    0    0  0.50262280341E+02  0.42272256138E+02  0.16544048120E+02  0.67726996038E+02  0.00000000000E+00 0. -1.
</event>
<event>
 7    1  0.5831876E-006  0.6784498E+02  0.7561462E-02  0.1367578E+00
          2   -1    0    0  501    0  0.00000000000E+00  0.00000000000E+00  0.47043138176E+03  0.47043138176E+03  0.00000000000E+00 0. -1.
         -2   -1    0    0    0  501 -0.00000000000E+00 -0.00000000000E+00 -0.27691497128E+02  0.27691497128E+02  0.00000000000E+00 0.  1.
         23    2    1    2    0    0 -0.62595317794E+01 -0.30500228635E+02  0.14848045506E+03  0.17686492208E+03  0.90913747271E+02 0.  0.
          5    1    1    2  502    0  0.45006227967E+01  0.45073011483E+02  0.25664927642E+02  0.52230191275E+02  0.41800000000E+01 0. -1.
         -5    1    1    2    0  502  0.17589089827E+01 -0.14572782848E+02  0.26859450192E+03  0.26902776553E+03  0.41800000000E+01 0. -1.
        -11    1    3    3    0    0  0.17678209352E+02 -0.44026564379E+02  0.32104007352E+02  0.57284594308E+02  0.00000000000E+00 0.  1.
         11    1    3    3    0    0 -0.23937741131E+02  0.13526335744E+02  0.11637644771E+03  0.11958032777E+03  0.00000000000E+00 0. -1.
</event>
<event>
 7    1  0.5831876E-006  0.1418051E+03  0.7561462E-02  0.1210921E+00
         -2   -1    0    0    0  501 -0.00000000000E+00  0.00000000000E+00  0.10667471816E+03  0.10667471816E+03  0.00000000000E+00 0.  1.
          2   -1    0    0  501    0  0.00000000000E+00 -0.00000000000E+00 -0.24527078343E+03  0.24527078343E+03  0.00000000000E+00 0. -1.
         23    2    1    2    0    0 -0.59840466322E+02  0.10333884150E+03 -0.55378693521E+02  0.16003623393E+03  0.91021969329E+02 0.  0.
          5    1    1    2  502    0  0.23029818721E+01 -0.70451387793E+02  0.16111616648E+02  0.72427607709E+02  0.41800000000E+01 0.  1.
         -5    1    1    2    0  502  0.57537484450E+02 -0.32887453711E+02 -0.99328988401E+02  0.11948165995E+03  0.41800000000E+01 0.  1.
        -11    1    3    3    0    0  0.11098054552E+02 -0.86193805428E+01  0.42781402054E+01  0.14688874000E+02  0.00000000000E+00 0.  1.
         11    1    3    3    0    0 -0.70938520874E+02  0.11195822205E+03 -0.59656833727E+02  0.14534735993E+03  0.00000000000E+00 0. -1.
</event>
<event>
 7    1  0.5831876E-006  0.9707985E+02  0.7561462E-02  0.1286559E+00
          2   -1    0    0  501    0  0.00000000000E+00  0.00000000000E+00  0.29148113940E+03  0.29148113940E+03  0.00000000000E+00 0. -1.
         -2   -1    0    0    0  501 -0.00000000000E+00 -0.00000000000E+00 -0.11270901556E+03  0.11270901556E+03  0.00000000000E+00 0.  1.
         23    2    1    2    0    0  0.25789776703E+02 -0.27390110193E+02 -0.71567158826E+02  0.12182791314E+03  0.91130957845E+02 0.  0.
          5    1    1    2  502    0 -0.57878107095E+02  0.42426465277E+02  0.23068394239E+03  0.24162457224E+03  0.41800000000E+01 0.  1.
         -5    1    1    2    0  502  0.32088330392E+02 -0.15036355084E+02  0.19655340284E+02  0.40737669585E+02  0.41800000000E+01 0.  1.
        -11    1    3    3    0    0 -0.21086224267E+02 -0.33229139554E+02 -0.42409262688E+01  0.39582698556E+02  0.00000000000E+00 0. -1.
         11    1    3    3    0    0  0.46876000970E+02  0.58390293610E+01 -0.67326232557E+02  0.82245214579E+02  0.00000000000E+00 0.  1.
</event>
<event>
 7    1  0.5831876E-006  0.1153083E+03  0.7561462E-02  0.1251044E+00
          4   -1    0    0  501    0  0.00000000000E+00  0.00000000000E+00  0.22586249912E+03  0.22586249912E+03  0.00000000000E+00 0. -1.
         -4   -1    0    0    0  501 -0.00000000000E+00 -0.00000000000E+00 -0.10016322828E+03  0.10016322828E+03  0.00000000000E+00 0.  1.
         23    2    1    2    0    0 -0.80222410000E+02 -0.16689115374E+02 -0.10255693668E+02  0.12392328022E+03  0.92399342472E+02 0.  0.
          5    1    1    2  502    0  0.76787699042E+00 -0.38697076023E+02  0.51194468434E+01  0.39264926636E+02  0.41800000000E+01 0.  1.
         -5    1    1    2    0  502  0.79454533009E+02  0.55386191396E+02  0.13083551767E+03  0.16283752055E+03  0.41800000000E+01 0.  1.
        -11    1    3    3    0    0 -0.25453203393E+02  0.16845424142E+02  0.34183022022E+02  0.45826988468E+02  0.00000000000E+00 0. -1.
         11    1    3    3    0    0 -0.54769206607E+02 -0.33534539516E+02 -0.44438715690E+02  0.78096291750E+02  0.00000000000E+00 0.  1.
</event>
<event>
 7    1  0.5831876E-006  0.1167864E+03  0.7561462E-02  0.1248495E+00
         -3   -1    0    0    0  501 -0.00000000000E+00  0.00000000000E+00  0.26523223354E+03  0.26523223354E+03  0.00000000000E+00 0.  1.
          3   -1    0    0  501    0  0.00000000000E+00 -0.00000000000E+00 -0.13343473037E+03  0.13343473037E+03  0.00000000000E+00 0. -1.
         23    2    1    2    0    0 -0.82363448671E+02  0.41149657160E+02  0.19525102413E+03  0.23088606947E+03  0.81904717157E+02 0.  0.
          5    1    1    2  502    0  0.87366574421E+02 -0.49048611152E+02 -0.92841673887E+02  0.13665918700E+03  0.41800000000E+01 0. -1.
         -5    1    1    2    0  502 -0.50031257497E+01  0.78989539917E+01  0.29388152928E+02  0.31121707439E+02  0.41800000000E+01 0. -1.
        -11    1    3    3    0    0 -0.14539022073E+02 -0.24608199394E+02  0.50754898294E+02  0.58249517947E+02  0.00000000000E+00 0. -1.
         11    1    3    3    0    0 -0.67824426598E+02  0.65757856554E+02  0.14449612583E+03  0.17263655152E+03  0.00000000000E+00 0.  1.
</event>
<event>
 7    1  0.5831876E-006  0.1196795E+03  0.7561462E-02  0.1243627E+00
         -4   -1    0    0    0  501 -0.00000000000E+00  0.00000000000E+00  0.49783121740E+02  0.49783121740E+02  0.00000000000E+00 0. -1.
          4   -1    0    0  501    0  0.00000000000E+00 -0.00000000000E+00 -0.46828491303E+03  0.46828491303E+03  0.00000000000E+00 0.  1.
         23    2    1    2    0    0 -0.56698889633E+02 -0.67624536546E+02 -0.10674878285E+03  0.17075487157E+03  0.99870323413E+02 0.  0.
          5    1    1    2  502    0  0.11264711308E+02  0.73403139074E+02 -0.73167260885E+02  0.10433520505E+03  0.41800000000E+01 0.  1.
         -5    1    1    2    0  502  0.45434178325E+02 -0.57786025280E+01 -0.23858574756E+03  0.24297795815E+03  0.41800000000E+01 0.  1.
        -11    1    3    3    0    0 -0.40608005127E+02  0.82405183539E+01 -0.77478023942E+02  0.87862167155E+02  0.00000000000E+00 0. -1.
         11    1    3    3    0    0 -0.16090884506E+02 -0.75865054900E+02 -0.29270758903E+02  0.82892704420E+02  0.00000000000E+00 0.  1.
</event>
<event>
 6    1  0.5831876E-006  0.1845813E+03  0.7561462E-02  0.1163442E+00
         -2   -1    0    0    0  501 -0.00000000000E+00  0.00000000000E+00  0.68350617203E+02  0.68350617203E+02  0.00000000000E+00 0.  1.
          2   -1    0    0  501    0  0.00000000000E+00 -0.00000000000E+00 -0.51718051328E+03  0.51718051328E+03  0.00000000000E+00 0. -1.
          5    1    1    2  502    0  0.37918693513E+02  0.25506498413E+02 -0.76397241299E+02  0.89120253911E+02  0.41800000000E+01 0. -1.
         -5    1    1    2    0  502 -0.83602329036E+02  0.13063240803E+03 -0.13773406267E+03  0.20746643070E+03  0.41800000000E+01 0. -1.
        -11    1    1    2    0    0  0.12503098951E+02 -0.11304539543E+03 -0.16807489371E+03  0.20294028385E+03  0.00000000000E+00 0.  1.
         11    1    1    2    0    0  0.33180536572E+02 -0.43093511007E+02 -0.66623698393E+02  0.86004162026E+02  0.00000000000E+00 0. -1.
</event>
<event>
 7    1  0.5831876E-006  0.5468194E+02  0.7561462E-02  0.1421609E+00
          2   -1    0    0  501    0  0.00000000000E+00  0.00000000000E+00  0.19716954324E+03  0.19716954324E+03  0.00000000000E+00 0.  1.
         -2   -1    0    0    0  501 -0.00000000000E+00 -0.00000000000E+00 -0.76788558303E+02  0.76788558303E+02  0.00000000000E+00 0. -1.
         23    2    1    2    0    0 -0.13095086013E+02 -0.48325568581E+01 -0.67939150956E+01  0.95028743765E+02  0.93752173179E+02 0.  0.
          5    1    1    2  502    0  0.13825684861E+02 -0.10447930566E+00  0.15229549802E+03  0.15297892533E+03  0.41800000000E+01 0. -1.
         -5    1    1    2    0  502 -0.73059884785E+00  0.49370361637E+01 -0.25120597990E+02  0.25950432446E+02  0.41800000000E+01 0. -1.
        -11    1    3    3    0    0  0.28689631231E+01  0.40369576266E+02  0.13931434987E+02  0.42802085440E+02  0.00000000000E+00 0.  1.
         11    1    3    3    0    0 -0.15964049136E+02 -0.45202133124E+02 -0.20725350082E+02  0.52226658325E+02  0.00000000000E+00 0. -1.
</event>
<event>
 7    1  0.5831876E-006  0.8210642E+02  0.7561462E-02  0.1323178E+00
         -2   -1    0    0    0  501 -0.00000000000E+00  0.00000000000E+00  0.26356075959E+02  0.26356075959E+02  0.00000000000E+00 0.  1.
          2   -1    0    0  501    0  0.00000000000E+00 -0.00000000000E+00 -0.57781361625E+03  0.57781361625E+03  0.00000000000E+00 0. -1.
         23    2    1    2    0    0 -0.13299376696E+02 -0.43043977304E+02 -0.15169001469E+03  0.18286740395E+03  0.91656802630E+02 0.  0.
          5    1    1    2  502    0  0.37804242906E+02  0.45163917934E+02 -0.74415856958E+02  0.94995433741E+02  0.41800000000E+01 0. -1.
         -5    1    1    2    0  502 -0.24504866210E+02 -0.21199406302E+01 -0.32535166864E+03  0.32630685451E+03  0.41800000000E+01 0. -1.
        -11    1    3    3    0    0  0.22971417844E+02 -0.36847764242E+02 -0.13618147784E+03  0.14293648475E+03  0.00000000000E+00 0. -1.
         11    1    3    3    0    0 -0.36270794540E+02 -0.61962130623E+01 -0.15508536857E+02  0.39930919202E+02  0.00000000000E+00 0.  1.
</event>
<event>
 7    1  0.5831876E-006  0.1093222E+03  0.7561462E-02  0.1261830E+00
         -1   -1    0    0    0  501 -0.00000000000E+00  0.00000000000E+00  0.66671869654E+02  0.66671869654E+02  0.00000000000E+00 0.  1.
          1   -1    0    0  501    0  0.00000000000E+00 -0.00000000000E+00 -0.22030931415E+03  0.22030931415E+03  0.00000000000E+00 0. -1.
         23    2    1    2    0    0  0.52870785713E+02 -0.42264650390E+02 -0.48636729672E+02  0.11019168497E+03  0.72076732094E+02 0.  0.
          5    1    1    2  502    0 -0.33871997327E+02  0.76830979852E+02 -0.25349542220E+02  0.87808788619E+02  0.41800000000E+01 0.  1.
         -5    1    1    2    0  502 -0.18998788386E+02 -0.34566329462E+02 -0.79651172600E+02  0.88980710208E+02  0.41800000000E+01 0.  1.
        -11    1    3    3    0    0 -0.16621368580E+01  0.15431398802E+02  0.25537052805E+01  0.15729341327E+02  0.00000000000E+00 0.  1.
         11    1    3    3    0    0  0.54532922571E+02 -0.57696049191E+02 -0.51190434952E+02  0.94462343646E+02  0.00000000000E+00 0. -1.
</event>
<event>
 6    1  0.5831876E-006  0.8574084E+02  0.7561462E-02  0.1313506E+00
         -1   -1    0    0    0  501 -0.00000000000E+00  0.00000000000E+00  0.29733680779E+02  0.29733680779E+02  0.00000000000E+00 0.  1.
          1   -1    0    0  501    0  0.00000000000E+00 -0.00000000000E+00 -0.28842478565E+03  0.28842478565E+03  0.00000000000E+00 0. -1.
          5    1    1    2  502    0 -0.47724090676E+02  0.42267656875E+02 -0.14756385914E+03  0.16080021322E+03  0.41800000000E+01 0. -1.
         -5    1    1    2    0  502  0.12412992834E+02 -0.58691717559E+02 -0.74573273028E+02  0.95798985126E+02  0.41800000000E+01 0.  1.
        -11    1    1    2    0    0  0.22791084679E+02 -0.43510135277E+01 -0.90959786270E+01  0.24921911779E+02  0.00000000000E+00 0. -1.
         11    1    1    2    0    0  0.12520013163E+02  0.20775074211E+02 -0.27457994080E+02  0.36637356305E+02  0.00000000000E+00 0.  1.
</event>
<event>
 7    1  0.5831876E-006  0.1452889E+03  0.7561462E-02  0.1206384E+00
         -1   -1    0    0    0  501 -0.00000000000E+00  0.00000000000E+00  0.14077922302E+02  0.14077922302E+02  0.00000000000E+00 0.  1.
          1   -1    0    0  501    0  0.00000000000E+00 -0.00000000000E+00 -0.20092824615E+04  0.20092824615E+04  0.00000000000E+00 0. -1.
         23    2    1    2    0    0 -0.10349704433E+03 -0.60813990910E+02 -0.66845676599E+03  0.68533325205E+03  0.91854443004E+02 0.  0.
          5    1    1    2  502    0  0.43693721943E+02  0.79965028879E+02 -0.10616428297E+04  0.10655545587E+04  0.41800000000E+01 0.  1.
         -5    1    1    2    0  502  0.59803322389E+02 -0.19151037969E+02 -0.26510494348E+03  0.27247257308E+03  0.41800000000E+01 0.  1.
        -11    1    3    3    0    0 -0.32465615009E+01  0.12057713259E+02 -0.12135667864E+02  0.17412726527E+02  0.00000000000E+00 0.  1.
         11    1    3    3    0    0 -0.10025048283E+03 -0.72871704169E+02 -0.65632109812E+03  0.66792052553E+03  0.00000000000E+00 0. -1.
</event>
<event>
 7    1  0.5831876E-006  0.9952060E+02  0.7561462E-02  0.1281307E+00
         -2   -1    0    0    0  501 -0.00000000000E+00  0.00000000000E+00  0.43372916802E+03  0.43372916802E+03  0.00000000000E+00 0.  1.
          2   -1    0    0  501    0  0.00000000000E+00 -0.00000000000E+00 -0.36667522087E+02  0.36667522087E+02  0.00000000000E+00 0. -1.
         23    2    1    2    0    0 -0.10002805647E+02 -0.54181159157E+02  0.23809915867E+03  0.26074902145E+03  0.90902083041E+02 0.  0.
          5    1    1    2  502    0  0.24375963750E+02 -0.20097559826E+02  0.12055810199E+03  0.12469894897E+03  0.41800000000E+01 0. -1.
         -5    1    1    2    0  502 -0.14373158103E+02  0.74278718983E+02  0.38404385279E+02  0.84948719685E+02  0.41800000000E+01 0. -1.
        -11    1    3    3    0    0 -0.32699919317E+02 -0.45411875264E-01  0.15854419824E+03  0.16188128237E+03  0.00000000000E+00 0.  1.
         11    1    3    3    0    0  0.22697113670E+02 -0.54135747282E+02  0.79554960425E+02  0.98867739081E+02  0.00000000000E+00 0. -1.
</event>
<event>
 7    1  0.5831876E-006  0.1173115E+03  0.7561462E-02  0.1247599E+00
         -2   -1    0    0    0  501 -0.00000000000E+00  0.00000000000E+00  0.20707769539E+02  0.20707769539E+02  0.00000000000E+00 0.  1.
          2   -1    0    0  501    0  0.00000000000E+00 -0.00000000000E+00 -0.71681332844E+03  0.71681332844E+03  0.00000000000E+00 0. -1.
         23    2    1    2    0    0 -0.49955823918E+02  0.14503969772E+02 -0.24115087672E+03  0.26282502400E+03  0.90649315596E+02 0.  0.
          5    1    1    2  502    0  0.57660189710E+02 -0.60921816812E+02 -0.23049012744E+03  0.24531477022E+03  0.41800000000E+01 0.  1.
         -5    1    1    2    0  502 -0.77043657914E+01  0.46417847040E+02 -0.22446455474E+03  0.22938130375E+03  0.41800000000E+01 0.  1.
        -11    1    3    3    0    0  0.13416555945E+02 -0.25247459417E+02 -0.84999520959E+02  0.89679187907E+02  0.00000000000E+00 0. -1.
         11    1    3    3    0    0 -0.63372379863E+02  0.39751429189E+02 -0.15615135576E+03  0.17314583610E+03  0.00000000000E+00 0.  1.
</event>
<event>
 7    1  0.5831876E-006  0.8572915E+02  0.7561462E-02  0.1313537E+00
         -3   -1    0    0    0  501 -0.00000000000E+00  0.00000000000E+00  0.12655998096E+03  0.12655998096E+03  0.00000000000E+00 0.  1.
          3   -1    0    0  501    0  0.00000000000E+00 -0.00000000000E+00 -0.19912371279E+03  0.19912371279E+03  0.00000000000E+00 0. -1.
         23    2    1    2    0    0 -0.65504686970E+01  0.20574806885E+02  0.81857365265E+02  0.12578307176E+03  0.93029681150E+02 0.  0.
          5    1    1    2  502    0  0.39321283177E+02  0.10371853886E+02 -0.20325701615E+01  0.40930946791E+02  0.41800000000E+01 0.  1.
         -5    1    1    2    0  502 -0.32770814480E+02 -0.30946660771E+02 -0.15238852693E+03  0.15896967521E+03  0.41800000000E+01 0.  1.
        -11    1    3    3    0    0  0.23638558334E+02 -0.22550083899E+02  0.56385349168E+01  0.33152387546E+02  0.00000000000E+00 0. -1.
         11    1    3    3    0    0 -0.30189027031E+02  0.43124890785E+02  0.76218830348E+02  0.92630684214E+02  0.00000000000E+00 0.  1.
</event>
<event>
 7    1  0.5831876E-006  0.8766338E+02  0.7561462E-02  0.1308611E+00
          2   -1    0    0  501    0  0.00000000000E+00  0.00000000000E+00  0.46198220864E+03  0.46198220864E+03  0.00000000000E+00 0. -1.
         -2   -1    0    0    0  501 -0.00000000000E+00 -0.00000000000E+00 -0.44013072474E+02  0.44013072474E+02  0.00000000000E+00 0.  1.
         23    2    1    2    0    0  0.49249803673E+02  0.32690926495E+02  0.65120782262E+02  0.12699224153E+03  0.91608259945E+02 0.  0.
          5    1    1    2  502    0 -0.59060992604E+02 -0.35861684199E+02  0.35945757100E+03  0.36606212450E+03  0.41800000000E+01 0. -1.
         -5    1    1    2    0  502  0.98111889306E+01  0.31707577035E+01 -0.66092170955E+01  0.12940915086E+02  0.41800000000E+01 0. -1.
        -11    1    3    3    0    0  0.37583160635E+02  0.56849997141E+02  0.72160977893E+02  0.99255341764E+02  0.00000000000E+00 0. -1.
         11    1    3    3    0    0  0.11666643038E+02 -0.24159070646E+02 -0.70401956311E+01  0.27736899768E+02  0.00000000000E+00 0.  1.
</event>
<event>
 7    1  0.5831876E-006  0.9861423E+02  0.7561462E-02  0.1283237E+00
          1   -1    0    0  501    0  0.00000000000E+00  0.00000000000E+00  0.50850258624E+02  0.50850258624E+02  0.00000000000E+00 0. -1.
         -1   -1    0    0    0  501 -0.00000000000E+00 -0.00000000000E+00 -0.23503266022E+03  0.23503266022E+03  0.00000000000E+00 0.  1.
         23    2    1    2    0    0 -0.86368634148E+01  0.61206473576E+01 -0.68941212326E+02  0.11547130761E+03  0.92025400792E+02 0.  0.
          5    1    1    2  502    0 -0.13433999152E+02  0.49355519392E+02 -0.93639061249E+02  0.10678101807E+03  0.41800000000E+01 0.  1.
         -5    1    1    2    0  502  0.22070862567E+02 -0.55476166749E+02 -0.21602128022E+02  0.63630593166E+02  0.41800000000E+01 0.  1.
        -11    1    3    3    0    0  0.37200341723E+02 -0.80820804372E+01 -0.52285584073E+02  0.64675866831E+02  0.00000000000E+00 0.  1.
         11    1    3    3    0    0 -0.45837205137E+02  0.14202727795E+02 -0.16655628253E+02  0.50795440781E+02  0.00000000000E+00 0. -1.
</event>
<event>
 7    1  0.5831876E-006  0.1420019E+03  0.7561462E-02  0.1210660E+00
          1   -1    0    0  501    0  0.00000000000E+00  0.00000000000E+00  0.14569590383E+03  0.14569590383E+03  0.00000000000E+00 0. -1.
         -1   -1    0    0    0  501 -0.00000000000E+00 -0.00000000000E+00 -0.23250692740E+03  0.23250692740E+03  0.00000000000E+00 0.  1.
         23    2    1    2    0    0  0.58841133017E+02  0.33340308974E+02 -0.13480067696E+03  0.17646879689E+03  0.91630555105E+02 0.  0.
          5    1    1    2  502    0  0.51930907198E+02 -0.61333932578E+02  0.91833977917E+01  0.80996775262E+02  0.41800000000E+01 0. -1.
         -5    1    1    2    0  502 -0.11077204022E+03  0.27993623604E+02  0.38806255593E+02  0.12073725908E+03  0.41800000000E+01 0.  1.
        -11    1    3    3    0    0  0.51117566265E+02  0.49582053314E+02 -0.43575635598E+02  0.83487853065E+02  0.00000000000E+00 0.  1.
         11    1    3    3    0    0  0.77235667521E+01 -0.16241744340E+02 -0.91225041361E+02  0.92980943822E+02  0.00000000000E+00 0. -1.
</event>
<event>
 7    1  0.5831876E-006  0.8068410E+02  0.7561462E-02  0.1327121E+00
         -1   -1    0    0    0  501 -0.00000000000E+00  0.00000000000E+00  0.55651954558E+02  0.55651954558E+02  0.00000000000E+00 0.  1.
          1   -1    0    0  501    0  0.00000000000E+00 -0.00000000000E+00 -0.25152588151E+03  0.25152588151E+03  0.00000000000E+00 0. -1.
         23    2    1    2    0    0  0.46609940371E+02  0.32134601624E+01 -0.81039543281E+02  0.13106147088E+03  0.91798086616E+02 0.  0.
          5    1    1    2  502    0 -0.45730677574E+02  0.86522150851E+01 -0.14020338324E+03  0.14778571233E+03  0.41800000000E+01 0. -1.
         -5    1    1    2    0  502 -0.87926279742E+00 -0.11865675248E+02  0.25368999569E+02  0.28330652857E+02  0.41800000000E+01 0. -1.
        -11    1    3    3    0    0 -0.69032995501E+01 -0.35381541857E+02 -0.37466836881E+02  0.51993008325E+02  0.00000000000E+00 0. -1.
         11    1    3    3    0    0  0.53513239921E+02  0.38595002019E+02 -0.43572706400E+02  0.79068462555E+02  0.00000000000E+00 0.  1.
</event>
<event>
 7    1  0.5831876E-006  0.9706705E+02  0.7561462E-02  0.1286587E+00
          1   -1    0    0  501    0  0.00000000000E+00  0.00000000000E+00  0.44112592456E+02  0.44112592456E+02  0.00000000000E+00 0. -1.
         -1   -1    0    0    0  501 -0.00000000000E+00 -0.00000000000E+00 -0.31705361632E+03  0.31705361632E+03  0.00000000000E+00 0.  1.
         23    2    1    2    0    0 -0.12341838268E+02 -0.21978815306E+02 -0.18051348952E+03  0.20360459668E+03  0.90743168321E+02 0.  0.
          5    1    1    2  502    0 -0.51222943463E+02  0.21560388687E+02 -0.71190913926E+02  0.90411608342E+02  0.41800000000E+01 0. -1.
         -5    1    1    2    0  502  0.63564781731E+02  0.41842661920E+00 -0.21236620421E+02  0.67150003755E+02  0.41800000000E+01 0. -1.
        -11    1    3    3    0    0  0.28705879559E+02 -0.16967826482E+02 -0.14594656486E+03  0.14970749631E+03  0.00000000000E+00 0.  1.
         11    1    3    3    0    0 -0.41047717827E+02 -0.50109888236E+01 -0.34566924653E+02  0.53897100365E+02  0.00000000000E+00 0. -1.
</event>
<event>
 7    1  0.5831876E-006  0.6272762E+02  0.7561462E-02  0.1386729E+00
         -1   -1    0    0    0  501 -0.00000000000E+00  0.00000000000E+00  0.61684566164E+02  0.61684566164E+02  0.00000000000E+00 0.  1.
          1   -1    0    0  501    0  0.00000000000E+00 -0.00000000000E+00 -0.20958905378E+03  0.20958905378E+03  0.00000000000E+00 0. -1.
         23    2    1    2    0    0  0.16160293751E+02  0.24707580086E+02 -0.68665808255E+02  0.12028101802E+03  0.94238582680E+02 0.  0.
          5    1    1    2  502    0 -0.43179525358E+02 -0.42179755563E+02 -0.96757331822E+02  0.11411860870E+03  0.41800000000E+01 0.  1.
         -5    1    1    2    0  502  0.27019231608E+02  0.17472175477E+02  0.17518652458E+02  0.36873993227E+02  0.41800000000E+01 0.  1.
        -11    1    3    3    0    0  0.16982110820E+02  0.14700636489E+02 -0.92093166238E+02  0.94792679405E+02  0.00000000000E+00 0. -1.
         11    1    3    3    0    0 -0.82181706914E+00  0.10006943597E+02  0.23427357983E+02  0.25488338618E+02  0.00000000000E+00 0.  1.
</event>
<event>
 7    1  0.5831876E-006  0.1134767E+03  0.7561462E-02  0.1254264E+00
         -1   -1    0    0    0  501 -0.00000000000E+00  0.00000000000E+00  0.31834862569E+02  0.31834862569E+02  0.00000000000E+00 0.  1.
          1   -1    0    0  501    0  0.00000000000E+00 -0.00000000000E+00 -0.52671209255E+03  0.52671209255E+03  0.00000000000E+00 0. -1.
         23    2    1    2    0    0 -0.14213232748E+02  0.49508761604E+02 -0.10690211844E+03  0.15158069804E+03  0.94316020001E+02 0.  0.
          5    1    1    2  502    0 -0.27739257590E+02 -0.69785316352E+02 -0.21498457249E+03  0.22776148840E+03  0.41800000000E+01 0. -1.
         -5    1    1    2    0  502  0.41952490338E+02  0.20276554747E+02 -0.17299053905E+03  0.17920476869E+03  0.41800000000E+01 0.  1.
        -11    1    3    3    0    0 -0.33703857235E+02 -0.15495050060E+02 -0.54097146112E+02  0.65593809055E+02  0.00000000000E+00 0. -1.
         11    1    3    3    0    0  0.19490624487E+02  0.65003811665E+02 -0.52804972333E+02  0.85986888983E+02  0.00000000000E+00 0.  1.
</event>
<event>
 7    1  0.5831876E-006  0.9367184E+02  0.7561462E-02  0.1294196E+00
         -1   -1    0    0    0  501 -0.00000000000E+00  0.00000000000E+00  0.15329696918E+03  0.15329696918E+03  0.00000000000E+00 0.  1.
          1   -1    0    0  501    0  0.00000000000E+00 -0.00000000000E+00 -0.12662297646E+03  0.12662297646E+03  0.00000000000E+00 0. -1.
         23    2    1    2    0    0 -0.42384785101E+02  0.54260860978E+02  0.67015014617E+02  0.13154360424E+03  0.89844290799E+02 0.  0.
          5    1    1    2  502    0  0.77288624051E+01  0.17374910932E+02 -0.62665228734E+02  0.65620318014E+02  0.41800000000E+01 0.  1.
         -5    1    1    2    0  502  0.34655922695E+02 -0.71635771911E+02  0.22324206840E+02  0.82756023383E+02  0.41800000000E+01 0.  1.
        -11    1    3    3    0    0 -0.50860583272E+02  0.23042742612E+02  0.79261842788E+02  0.96954662807E+02  0.00000000000E+00 0.  1.
         11    1    3    3    0    0  0.84757981712E+01  0.31218118366E+02 -0.12246828171E+02  0.34588941429E+02  0.00000000000E+00 0. -1.
</event>
<event>
 7    1  0.5831876E-006  0.9651312E+02  0.7561462E-02  0.1287804E+00
          1   -1    0    0  501    0  0.00000000000E+00  0.00000000000E+00  0.23484514781E+03  0.23484514781E+03  0.00000000000E+00 0. -1.
         -1   -1    0    0    0  501 -0.00000000000E+00 -0.00000000000E+00 -0.62111390400E+02  0.62111390400E+02  0.00000000000E+00 0.  1.
         23    2    1    2    0    0  0.52916631862E+01  0.43282504495E+02  0.33729998443E+02  0.10497026343E+03  0.89328979140E+02 0.  0.
          5    1    1    2  502    0 -0.51891130605E+02  0.40291324727E+01  0.10499146597E+03  0.11725870403E+03  0.41800000000E+01 0.  1.
         -5    1    1    2    0  502  0.46599467419E+02 -0.47311636968E+02  0.34012292998E+02  0.74727570757E+02  0.41800000000E+01 0.  1.
        -11    1    3    3    0    0  0.63534302719E+00  0.58426087675E+02  0.53782701896E+02  0.79414044130E+02  0.00000000000E+00 0. -1.
         11    1    3    3    0    0  0.46563201590E+01 -0.15143583181E+02 -0.20052703453E+02  0.25556219297E+02  0.00000000000E+00 0.  1.
</event>
<event>
 7    1  0.5831876E-006  0.2374247E+03  0.7561462E-02  0.1121520E+00
          2   -1    0    0  501    0  0.00000000000E+00  0.00000000000E+00  0.19306107684E+03  0.19306107684E+03  0.00000000000E+00 0. -1.
         -2   -1    0    0    0  501 -0.00000000000E+00 -0.00000000000E+00 -0.40148086290E+03  0.40148086290E+03  0.00000000000E+00 0.  1.
         23    2    1    2    0    0  0.11866762015E+03  0.19799415879E+03 -0.22092616736E+03  0.33169852959E+03  0.89060946121E+02 0.  0.
          5    1    1    2  502    0 -0.11546820112E+02 -0.46751667287E+02  0.54413950891E+02  0.72783225405E+02  0.41800000000E+01 0. -1.
         -5    1    1    2    0  502 -0.10712080004E+03 -0.15124249150E+03 -0.41907569580E+02  0.19006018474E+03  0.41800000000E+01 0. -1.
        -11    1    3    3    0    0  0.40818590576E+02  0.13484712788E+03 -0.91501807336E+02  0.16799549393E+03  0.00000000000E+00 0. -1.
         11    1    3    3    0    0  0.77849029572E+02  0.63147030903E+02 -0.12942436003E+03  0.16370303567E+03  0.00000000000E+00 0.  1.
</event>
<event>
 7    1  0.5831876E-006  0.1242943E+03  0.7561462E-02  0.1236176E+00
         -2   -1    0    0    0  501 -0.00000000000E+00  0.00000000000E+00  0.98786574329E+01  0.98786574329E+01  0.00000000000E+00 0.  1.
          2   -1    0    0  501    0  0.00000000000E+00 -0.00000000000E+00 -0.16666944604E+04  0.16666944604E+04  0.00000000000E+00 0. -1.
         23    2    1    2    0    0 -0.66285370297E+02 -0.18103104210E+01 -0.60801805570E+03  0.61826238728E+03  0.90362580349E+02 0.  0.
          5    1    1    2  502    0 -0.25022747795E+02 -0.30682606415E+02 -0.44413851035E+03  0.44591933017E+03  0.41800000000E+01 0.  1.
         -5    1    1    2    0  502  0.91308118092E+02  0.32492916836E+02 -0.60465923687E+03  0.61239140034E+03  0.41800000000E+01 0.  1.
        -11    1    3    3    0    0 -0.43850261169E+02  0.43150815933E+02 -0.31151602214E+03  0.31753278629E+03  0.00000000000E+00 0.  1.
         11    1    3    3    0    0 -0.22435109128E+02 -0.44961126354E+02 -0.29650203357E+03  0.30072960099E+03  0.00000000000E+00 0. -1.
</event>
<event>
 7    1  0.5831876E-006  0.1003418E+03  0.7561462E-02  0.1279579E+00
          1   -1    0    0  501    0  0.00000000000E+00  0.00000000000E+00  0.71278869095E+03  0.71278869095E+03  0.00000000000E+00 0. -1.
         -1   -1    0    0    0  501 -0.00000000000E+00 -0.00000000000E+00 -0.27166667920E+02  0.27166667920E+02  0.00000000000E+00 0.  1.
         23    2    1    2    0    0 -0.77486396361E+02 -0.85870345461E+01  0.20219397569E+03  0.23455627620E+03  0.89757251043E+02 0.  0.
          5    1    1    2  502    0  0.49384237769E+02  0.28992837118E+02  0.70191434244E+02  0.90684603905E+02  0.41800000000E+01 0.  1.
         -5    1    1    2    0  502  0.28102158592E+02 -0.20405802572E+02  0.41323661309E+03  0.41471447877E+03  0.41800000000E+01 0.  1.
        -11    1    3    3    0    0 -0.36225951958E+02  0.33503918991E+02  0.45409160165E+02  0.67058362714E+02  0.00000000000E+00 0.  1.
         11    1    3    3    0    0 -0.41260444402E+02 -0.42090953537E+02  0.15678481552E+03  0.16749791348E+03  0.00000000000E+00 0. -1.
</event>
<event>
 7    1  0.5831876E-006  0.2677892E+03  0.7561462E-02  0.1102552E+00
         -2   -1    0    0    0  501 -0.00000000000E+00  0.00000000000E+00  0.25712091866E+03  0.25712091866E+03  0.00000000000E+00 0.  1.
          2   -1    0    0  501    0  0.00000000000E+00 -0.00000000000E+00 -0.31438643244E+03  0.31438643244E+03  0.00000000000E+00 0. -1.
         23    2    1    2    0    0 -0.20464247999E+03 -0.14411632398E+03  0.50980090745E+02  0.27148722704E+03  0.91968936834E+02 0.  0.
          5    1    1    2  502    0 -0.80377527462E+01 -0.50723125607E+01  0.10126768104E+02  0.14503711806E+02  0.41800000000E+01 0.  1.
         -5    1    1    2    0  502  0.21268023273E+03  0.14918863654E+03 -0.11837237262E+03  0.28551641225E+03  0.41800000000E+01 0.  1.
        -11    1    3    3    0    0 -0.18756193957E+03 -0.15649826585E+03  0.39438464767E+02  0.24744005515E+03  0.00000000000E+00 0.  1.
         11    1    3    3    0    0 -0.17080540421E+02  0.12381941879E+02  0.11541625978E+02  0.24047171891E+02  0.00000000000E+00 0. -1.
</event>
<event>
 7    1  0.5831876E-006  0.1044568E+03  0.7561462E-02  0.1271194E+00
          1   -1    0    0  501    0  0.00000000000E+00  0.00000000000E+00  0.74339691758E+03  0.74339691758E+03  0.00000000000E+00 0. -1.
         -1   -1    0    0    0  501 -0.00000000000E+00 -0.00000000000E+00 -0.25190325402E+02  0.25190325402E+02  0.00000000000E+00 0.  1.
         23    2    1    2    0    0 -0.40218353835E+01  0.56961623849E+02  0.15569964629E+03  0.18951677516E+03  0.91724731998E+02 0.  0.
          5    1    1    2  502    0 -0.54656341528E+02 -0.56188691095E+02  0.30683949935E+03  0.31672138456E+03  0.41800000000E+01 0. -1.
         -5    1    1    2    0  502  0.58678176912E+02 -0.77293275335E+00  0.25566744653E+03  0.26234908326E+03  0.41800000000E+01 0. -1.
        -11    1    3    3    0    0  0.14100811698E+02  0.26756550607E+01 -0.77682960299E+01  0.16319878791E+02  0.00000000000E+00 0.  1.
         11    1    3    3    0    0 -0.18122647082E+02  0.54285968788E+02  0.16346794232E+03  0.17319689637E+03  0.00000000000E+00 0. -1.
</event>
<event>
 7    1  0.5831876E-006  0.1356745E+03  0.7561462E-02  0.1219271E+00
         -1   -1    0    0    0  501 -0.00000000000E+00  0.00000000000E+00  0.33030907607E+02  0.33030907607E+02  0.00000000000E+00 0.  1.
          1   -1    0    0  501    0  0.00000000000E+00 -0.00000000000E+00 -0.57939712740E+03  0.57939712740E+03  0.00000000000E+00 0. -1.
         23    2    1    2    0    0 -0.81236398273E+02 -0.25201696007E+02 -0.26564682959E+03  0.29354497984E+03  0.91465508425E+02 0.  0.
          5    1    1    2  502    0  0.12979513713E+02  0.66231220445E+02 -0.93531797743E+02  0.11541538861E+03  0.41800000000E+01 0. -1.
         -5    1    1    2    0  502  0.68256884560E+02 -0.41029524438E+02 -0.18718759246E+03  0.20346766656E+03  0.41800000000E+01 0. -1.
        -11    1    3    3    0    0 -0.52198088636E+01  0.29734982576E+02 -0.81008598490E+02  0.86451192142E+02  0.00000000000E+00 0.  1.
         11    1    3    3    0    0 -0.76016589410E+02 -0.54936678583E+02 -0.18463823110E+03  0.20709378770E+03  0.00000000000E+00 0. -1.
</event>
<event>
 7    1  0.5831876E-006  0.1059837E+03  0.7561462E-02  0.1268194E+00
          3   -1    0    0  501    0  0.00000000000E+00  0.00000000000E+00  0.17221569360E+02  0.17221569360E+02  0.00000000000E+00 0. -1.
         -3   -1    0    0    0  501 -0.00000000000E+00 -0.00000000000E+00 -0.87489108594E+03  0.87489108594E+03  0.00000000000E+00 0.  1.
         23    2    1    2    0    0 -0.52551014528E+02  0.20205061769E+02 -0.37346538171E+03  0.38872615129E+03  0.91987910694E+02 0.  0.
          5    1    1    2  502    0  0.42906026884E+02  0.33052452643E+02 -0.87538473536E+02  0.10302353381E+03  0.41800000000E+01 0. -1.
         -5    1    1    2    0  502  0.96449876443E+01 -0.53257514412E+02 -0.39666566133E+03  0.40036297020E+03  0.41800000000E+01 0.  1.
        -11    1    3    3    0    0 -0.34832035620E+02 -0.32571873255E+02 -0.22882796676E+03  0.23374438176E+03  0.00000000000E+00 0.  1.
         11    1    3    3    0    0 -0.17718978908E+02  0.52776935024E+02 -0.14463741495E+03  0.15498176953E+03  0.00000000000E+00 0. -1.
</event>
<event>
 7    1  0.5831876E-006  0.2441233E+03  0.7561462E-02  0.1117076E+00
          1   -1    0    0  501    0  0.00000000000E+00  0.00000000000E+00  0.51529786734E+03  0.51529786734E+03  0.00000000000E+00 0. -1.
         -1   -1    0    0    0  501 -0.00000000000E+00 -0.00000000000E+00 -0.13565673415E+03  0.13565673415E+03  0.00000000000E+00 0.  1.
         23    2    1    2    0    0 -0.22393199100E+03 -0.79140681003E+02  0.13799109124E+03  0.28977459479E+03  0.92298377774E+02 0.  0.
          5    1    1    2  502    0  0.31818910716E+02 -0.16362620594E+02 -0.25295332866E+01  0.36111623759E+02  0.41800000000E+01 0. -1.
         -5    1    1    2    0  502  0.19211308028E+03  0.95503301597E+02  0.24417957523E+03  0.32506838294E+03  0.41800000000E+01 0. -1.
        -11    1    3    3    0    0 -0.19025557548E+03 -0.70247517425E+02  0.15072879908E+03  0.25268768980E+03  0.00000000000E+00 0. -1.
         11    1    3    3    0    0 -0.33676415516E+02 -0.88931635778E+01 -0.12737707835E+02  0.37086904984E+02  0.00000000000E+00 0.  1.
</event>
<event>
 7    1  0.5831876E-006  0.2062801E+03  0.7561462E-02  0.1144546E+00
         -1   -1    0    0    0  501 -0.00000000000E+00  0.00000000000E+00  0.96277782438E+02  0.96277782438E+02  0.00000000000E+00 0.  1.
          1   -1    0    0  501    0  0.00000000000E+00 -0.00000000000E+00 -0.20783263005E+04  0.20783263005E+04  0.00000000000E+00 0. -1.
         23    2    1    2    0    0  0.13024580473E+03  0.14411025381E+03 -0.48715757158E+02  0.22090226104E+03  0.93235449447E+02 0.  0.
          5    1    1    2  502    0 -0.86985092886E+02 -0.13755643326E+03 -0.18672651819E+04  0.18743491966E+04  0.41800000000E+01 0. -1.
         -5    1    1    2    0  502 -0.43260711845E+02 -0.65538205461E+01 -0.66067579034E+02  0.79352625367E+02  0.41800000000E+01 0.  1.
        -11    1    3    3    0    0  0.12691170901E+03  0.10002713030E+03 -0.64458531789E+02  0.17397388023E+03  0.00000000000E+00 0.  1.
         11    1    3    3    0    0  0.33340957174E+01  0.44083123508E+02  0.15742774631E+02  0.46928380811E+02  0.00000000000E+00 0. -1.
</event>
<event>
 7    1  0.5831876E-006  0.1674050E+03  0.7561462E-02  0.1180581E+00
         -2   -1    0    0    0  501 -0.00000000000E+00  0.00000000000E+00  0.30258266692E+02  0.30258266692E+02  0.00000000000E+00 0.  1.
          2   -1    0    0  501    0  0.00000000000E+00 -0.00000000000E+00 -0.10421346986E+04  0.10421346986E+04  0.00000000000E+00 0. -1.
         23    2    1    2    0    0  0.24540226185E+02 -0.12646825520E+03 -0.31315341451E+03  0.35096559159E+03  0.92278617190E+02 0.  0.
          5    1    1    2  502    0  0.42173961373E+02  0.95941101073E+02 -0.45094182557E+03  0.46297876878E+03  0.41800000000E+01 0.  1.
         -5    1    1    2    0  502 -0.66714187557E+02  0.30527154123E+02 -0.24778119188E+03  0.25844860496E+03  0.41800000000E+01 0.  1.
        -11    1    3    3    0    0 -0.71931835365E+01 -0.12443301460E+03 -0.26981430732E+03  0.29721217581E+03  0.00000000000E+00 0. -1.
         11    1    3    3    0    0  0.31733409721E+02 -0.20352405917E+01 -0.43339107183E+02  0.53753415782E+02  0.00000000000E+00 0.  1.
</event>
<event>
 7    1  0.5831876E-006  0.1586482E+03  0.7561462E-02  0.1190231E+00
          1   -1    0    0  501    0  0.00000000000E+00  0.00000000000E+00  0.16332887022E+04  0.16332887022E+04  0.00000000000E+00 0. -1.
         -1   -1    0    0    0  501 -0.00000000000E+00 -0.00000000000E+00 -0.16396484548E+02  0.16396484548E+02  0.00000000000E+00 0.  1.
         23    2    1    2    0    0  0.43500865743E+02  0.10433580784E+03  0.57337949845E+03  0.59264011350E+03  0.98386832304E+02 0.  0.
          5    1    1    2  502    0 -0.54264471657E+02 -0.12959072073E+03  0.89260059090E+03  0.90359928898E+03  0.41800000000E+01 0. -1.
         -5    1    1    2    0  502  0.10763605914E+02  0.25254912894E+02  0.15091212826E+03  0.15344578421E+03  0.41800000000E+01 0. -1.
        -11    1    3    3    0    0  0.72017937176E+02  0.50210697206E+02  0.30558337147E+03  0.31794479758E+03  0.00000000000E+00 0.  1.
         11    1    3    3    0    0 -0.28517071433E+02  0.54125110632E+02  0.26779612698E+03  0.27469531593E+03  0.00000000000E+00 0. -1.
</event>
<event>
 7    1  0.5831876E-006  0.1216355E+03  0.7561462E-02  0.1240423E+00
          2   -1    0    0  501    0  0.00000000000E+00  0.00000000000E+00  0.29158058632E+03  0.29158058632E+03  0.00000000000E+00 0. -1.
         -2   -1    0    0    0  501 -0.00000000000E+00 -0.00000000000E+00 -0.73573725342E+02  0.73573725342E+02  0.00000000000E+00 0.  1.
         23    2    1    2    0    0 -0.88289418280E+02  0.31944597797E+02  0.13299265940E+03  0.18712254846E+03  0.92262245692E+02 0.  0.
          5    1    1    2  502    0  0.72465602013E+02  0.34588688473E+02  0.72736332143E+02  0.10842364714E+03  0.41800000000E+01 0. -1.
         -5    1    1    2    0  502  0.15823816267E+02 -0.66533286270E+02  0.12277869429E+02  0.69608116056E+02  0.41800000000E+01 0. -1.
        -11    1    3    3    0    0 -0.79864183353E+02  0.25827512873E+02  0.14723516135E+03  0.16948020811E+03  0.00000000000E+00 0. -1.
         11    1    3    3    0    0 -0.84252349269E+01  0.61170849236E+01 -0.14242501945E+02  0.17642340355E+02  0.00000000000E+00 0.  1.
</event>
<event>
 7    1  0.5831876E-006  0.9999794E+02  0.7561462E-02  0.1280300E+00
          2   -1    0    0  501    0  0.00000000000E+00  0.00000000000E+00  0.10535530453E+04  0.10535530453E+04  0.00000000000E+00 0. -1.
         -2   -1    0    0    0  501 -0.00000000000E+00 -0.00000000000E+00 -0.19312446846E+02  0.19312446846E+02  0.00000000000E+00 0.  1.
         23    2    1    2    0    0 -0.83266277894E+02 -0.33036897701E+02  0.36661748831E+03  0.38774271559E+03  0.88945607609E+02 0.  0.
          5    1    1    2  502    0  0.78119309490E+02  0.88860069554E+01  0.17537539148E+03  0.19223836238E+03  0.41800000000E+01 0.  1.
         -5    1    1    2    0  502  0.51469684040E+01  0.24150890746E+02  0.49224771867E+03  0.49288441418E+03  0.41800000000E+01 0.  1.
        -11    1    3    3    0    0 -0.15765137644E+02  0.75224132958E+01  0.57608250509E+01  0.18393296931E+02  0.00000000000E+00 0.  1.
         11    1    3    3    0    0 -0.67501140249E+02 -0.40559310997E+02  0.36085666326E+03  0.36934941866E+03  0.00000000000E+00 0. -1.
</event>
<event>
 7    1  0.5831876E-006  0.1060410E+03  0.7561462E-02  0.1268082E+00
         -2   -1    0    0    0  501 -0.00000000000E+00  0.00000000000E+00  0.73110508408E+02  0.73110508408E+02  0.00000000000E+00 0.  1.
          2   -1    0    0  501    0  0.00000000000E+00 -0.00000000000E+00 -0.35169230765E+03  0.35169230765E+03  0.00000000000E+00 0. -1.
         23    2    1    2    0    0 -0.27732070014E+02 -0.52902809649E+01  0.15334901751E+02  0.10128270943E+03  0.96051929902E+02 0.  0.
          5    1    1    2  502    0  0.40169581588E+02  0.62425375503E+02 -0.19279577119E+03  0.20663543883E+03  0.41800000000E+01 0. -1.
         -5    1    1    2    0  502 -0.12437511575E+02 -0.57135094538E+02 -0.10112092981E+03  0.11688466780E+03  0.41800000000E+01 0.  1.
        -11    1    3    3    0    0 -0.28852311350E+02 -0.37257089296E+02  0.39263381333E+02  0.61336446643E+02  0.00000000000E+00 0.  1.
         11    1    3    3    0    0  0.11202413367E+01  0.31966808331E+02 -0.23928479582E+02  0.39946262787E+02  0.00000000000E+00 0. -1.
</event>
<event>
 7    1  0.5831876E-006  0.1015899E+03  0.7561462E-02  0.1276988E+00
          1   -1    0    0  501    0  0.00000000000E+00  0.00000000000E+00  0.52565638090E+03  0.52565638090E+03  0.00000000000E+00 0. -1.
         -1   -1    0    0    0  501 -0.00000000000E+00 -0.00000000000E+00 -0.84115748288E+02  0.84115748288E+02  0.00000000000E+00 0.  1.
         23    2    1    2    0    0  0.70275735247E+01  0.34631809188E+02 -0.40250314768E+02  0.10598762116E+03  0.91457853696E+02 0.  0.
          5    1    1    2  502    0 -0.80852032646E+00 -0.72472532308E+02  0.44360184241E+03  0.44950304630E+03  0.41800000000E+01 0. -1.
         -5    1    1    2    0  502 -0.62190531982E+01  0.37840723120E+02  0.38189104970E+02  0.54281461728E+02  0.41800000000E+01 0.  1.
        -11    1    3    3    0    0  0.35036333588E+02 -0.12484361690E+02  0.12836788491E+01  0.37216283929E+02  0.00000000000E+00 0. -1.
         11    1    3    3    0    0 -0.28008760063E+02  0.47116170878E+02 -0.41533993617E+02  0.68771337229E+02  0.00000000000E+00 0.  1.
</event>
<event>
 7    1  0.5831876E-006  0.9678307E+02  0.7561462E-02  0.1287210E+00
          2   -1    0    0  501    0  0.00000000000E+00  0.00000000000E+00  0.41034465027E+03  0.41034465027E+03  0.00000000000E+00 0. -1.
         -2   -1    0    0    0  501 -0.00000000000E+00 -0.00000000000E+00 -0.43233010080E+02  0.43233010080E+02  0.00000000000E+00 0.  1.
         23    2    1    2    0    0 -0.60312634838E+02  0.37690100214E+02  0.11869013471E+03  0.16649079282E+03  0.92594159863E+02 0.  0.
          5    1    1    2  502    0  0.54296504905E+02 -0.19649116521E+02  0.25405941269E+02  0.63222879377E+02  0.41800000000E+01 0. -1.
         -5    1    1    2    0  502  0.60161299333E+01 -0.18040983693E+02  0.22301556421E+03  0.22386398815E+03  0.41800000000E+01 0. -1.
        -11    1    3    3    0    0  0.23109702609E+02  0.20787559559E+02  0.24827124938E+02  0.39781492176E+02  0.00000000000E+00 0. -1.
         11    1    3    3    0    0 -0.83422337448E+02  0.16902540655E+02  0.93863009774E+02  0.12670930064E+03  0.00000000000E+00 0.  1.
</event>
<event>
 7    1  0.5831876E-006  0.1414997E+03  0.7561462E-02  0.1211325E+00
          2   -1    0    0  501    0  0.00000000000E+00  0.00000000000E+00  0.60499593287E+03  0.60499593287E+03  0.00000000000E+00 0. -1.
         -2   -1    0    0    0  501 -0.00000000000E+00 -0.00000000000E+00 -0.36522942997E+02  0.36522942997E+02  0.00000000000E+00 0.  1.
         23    2    1    2    0    0  0.93924195591E+02  0.36415527867E+02  0.23423824045E+03  0.27069792155E+03  0.90895358835E+02 0.  0.
          5    1    1    2  502    0 -0.89473033550E+02  0.20175446371E+02  0.26903895815E+03  0.28427434948E+03  0.41800000000E+01 0. -1.
         -5    1    1    2    0  502 -0.44511620413E+01 -0.56590974238E+02  0.65195791282E+02  0.86546604841E+02  0.41800000000E+01 0. -1.
        -11    1    3    3    0    0 -0.13608583816E+02  0.21862899647E+02  0.30964929399E+02  0.40274145393E+02  0.00000000000E+00 0.  1.
         11    1    3    3    0    0  0.10753277941E+03  0.14552628220E+02  0.20327331105E+03  0.23042377616E+03  0.00000000000E+00 0. -1.
</event>
<event>
 7    1  0.5831876E-006  0.1360066E+03  0.7561462E-02  0.1218806E+00
          2   -1    0    0  501    0  0.00000000000E+00  0.00000000000E+00  0.11794149320E+03  0.11794149320E+03  0.00000000000E+00 0.  1.
         -2   -1    0    0    0  501 -0.00000000000E+00 -0.00000000000E+00 -0.18315058499E+03  0.18315058499E+03  0.00000000000E+00 0. -1.
         23    2    1    2    0    0 -0.94470318741E+02 -0.10934646147E+02 -0.12453217240E+02  0.13533843944E+03  0.95484045586E+02 0.  0.
          5    1    1    2  502    0 -0.17993881434E+02 -0.19355803575E+02 -0.40532771619E+02  0.48567529031E+02  0.41800000000E+01 0. -1.
         -5    1    1    2    0  502  0.11246420017E+03  0.30290449722E+02 -0.12223102925E+02  0.11718610972E+03  0.41800000000E+01 0. -1.
        -11    1    3    3    0    0  0.16872198997E+02 -0.23808609406E+01 -0.16329361314E+02  0.23600585559E+02  0.00000000000E+00 0. -1.
         11    1    3    3    0    0 -0.11134251774E+03 -0.85537852067E+01  0.38761440736E+01  0.11173785388E+03  0.00000000000E+00 0.  1.
</event>
<event>
 7    1  0.5831876E-006  0.8252730E+02  0.7561462E-02  0.1322029E+00
         -2   -1    0    0    0  501 -0.00000000000E+00  0.00000000000E+00  0.10119711085E+03  0.10119711085E+03  0.00000000000E+00 0.  1.
          2   -1    0    0  501    0  0.00000000000E+00 -0.00000000000E+00 -0.15035402455E+03  0.15035402455E+03  0.00000000000E+00 0. -1.
         23    2    1    2    0    0 -0.12085659737E+02 -0.51682804455E+02  0.95585223100E+01  0.10352413071E+03  0.88366876392E+02 0.  0.
          5    1    1    2  502    0  0.64715217773E+01  0.78857775007E+02 -0.80159536083E+02  0.11270959541E+03  0.41800000000E+01 0.  1.
         -5    1    1    2    0  502  0.56141379599E+01 -0.27174970552E+02  0.21444100082E+02  0.35317409274E+02  0.41800000000E+01 0.  1.
        -11    1    3    3    0    0  0.81531148963E+00 -0.41004232792E+02  0.47077950848E+02  0.62436730342E+02  0.00000000000E+00 0.  1.
         11    1    3    3    0    0 -0.12900971227E+02 -0.10678571663E+02 -0.37519428538E+02  0.41087400370E+02  0.00000000000E+00 0. -1.
</event>
<event>
 7    1  0.5831876E-006  0.8184619E+02  0.7561462E-02  0.1323892E+00
          2   -1    0    0  501    0  0.00000000000E+00  0.00000000000E+00  0.12500431178E+04  0.12500431178E+04  0.00000000000E+00 0. -1.
         -2   -1    0    0    0  501 -0.00000000000E+00 -0.00000000000E+00 -0.14561894003E+02  0.14561894003E+02  0.00000000000E+00 0.  1.
         23    2    1    2    0    0 -0.17865026076E+02  0.36055409689E+02  0.23553502729E+03  0.25606188021E+03  0.92042303804E+02 0.  0.
          5    1    1    2  502    0  0.39997403221E+02 -0.12168674260E+01  0.89188883663E+03  0.89279585703E+03  0.41800000000E+01 0.  1.
         -5    1    1    2    0  502 -0.22132377145E+02 -0.34838542263E+02  0.10805735987E+03  0.11574727456E+03  0.41800000000E+01 0.  1.
        -11    1    3    3    0    0  0.17771007411E+02  0.42220390778E+02  0.53331268287E+02  0.70303586530E+02  0.00000000000E+00 0.  1.
         11    1    3    3    0    0 -0.35636033487E+02 -0.61649810893E+01  0.18220375901E+03  0.18575829368E+03  0.00000000000E+00 0. -1.
</event>
<event>
 7    1  0.5831876E-006  0.1788610E+03  0.7561462E-02  0.1168910E+00
          2   -1    0    0  501    0  0.00000000000E+00  0.00000000000E+00  0.54000466184E+02  0.54000466184E+02  0.00000000000E+00 0. -1.
         -2   -1    0    0    0  501 -0.00000000000E+00 -0.00000000000E+00 -0.67245243147E+03  0.67245243147E+03  0.00000000000E+00 0.  1.
         23    2    1    2    0    0 -0.11632057601E+03  0.98890167802E+02 -0.29610107923E+03  0.34847527861E+03  0.10222244857E+03 0.  0.
          5    1    1    2  502    0  0.16491640962E+02 -0.67491117328E+02 -0.48641957961E+02  0.84914884526E+02  0.41800000000E+01 0. -1.
         -5    1    1    2    0  502  0.99828935047E+02 -0.31399050475E+02 -0.27370892809E+03  0.29306273451E+03  0.41800000000E+01 0. -1.
        -11    1    3    3    0    0  0.48589681248E+01  0.53908163312E+02 -0.77801607183E+02  0.94777580277E+02  0.00000000000E+00 0.  1.
         11    1    3    3    0    0 -0.12117954413E+03  0.44982004490E+02 -0.21829947205E+03  0.25369769834E+03  0.00000000000E+00 0. -1.
</event>
<event>
 7    1  0.5831876E-006  0.8698431E+02  0.7561462E-02  0.1310323E+00
          2   -1    0    0  501    0  0.00000000000E+00  0.00000000000E+00  0.56318920713E+03  0.56318920713E+03  0.00000000000E+00 0.  1.
         -2   -1    0    0    0  501 -0.00000000000E+00 -0.00000000000E+00 -0.22278973504E+02  0.22278973504E+02  0.00000000000E+00 0. -1.
         23    2    1    2    0    0  0.35788619737E+02  0.39128626545E+00  0.21480681516E+03  0.23436700058E+03  0.86631083992E+02 0.  0.
          5    1    1    2  502    0  0.27877415719E+02 -0.19245152407E+02  0.23916911764E+02  0.41677539115E+02  0.41800000000E+01 0.  1.
         -5    1    1    2    0  502 -0.63666035457E+02  0.18853866142E+02  0.30218650671E+03  0.30942364095E+03  0.41800000000E+01 0.  1.
        -11    1    3    3    0    0  0.23625165148E+02  0.31805102119E+02  0.18560133321E+03  0.18978294928E+03  0.00000000000E+00 0.  1.
         11    1    3    3    0    0  0.12163454590E+02 -0.31413815853E+02  0.29205481947E+02  0.44584051294E+02  0.00000000000E+00 0. -1.
</event>
<event>
 7    1  0.5831876E-006  0.6786880E+02  0.7561462E-02  0.1367494E+00
         -2   -1    0    0    0  501 -0.00000000000E+00  0.00000000000E+00  0.38832202993E+03  0.38832202993E+03  0.00000000000E+00 0.  1.
          2   -1    0    0  501    0  0.00000000000E+00 -0.00000000000E+00 -0.32882851054E+02  0.32882851054E+02  0.00000000000E+00 0. -1.
         23    2    1    2    0    0 -0.38378149865E+01  0.11688958709E+02  0.17308374860E+03  0.19642480141E+03  0.92050844647E+02 0.  0.
          5    1    1    2  502    0  0.92390163416E+01  0.14152534364E+02 -0.16588897527E+02  0.24048234302E+02  0.41800000000E+01 0. -1.
         -5    1    1    2    0  502 -0.54012013550E+01 -0.25841493073E+02  0.19894432781E+03  0.20073184527E+03  0.41800000000E+01 0.  1.
        -11    1    3    3    0    0 -0.22992604330E+02 -0.34577038792E+02  0.62558317344E+02  0.75085115265E+02  0.00000000000E+00 0. -1.
         11    1    3    3    0    0  0.19154789343E+02  0.46265997501E+02  0.11052543125E+03  0.12133968614E+03  0.00000000000E+00 0.  1.
</event>
<event>
 7    1  0.5831876E-006  0.1353903E+03  0.7561462E-02  0.1219670E+00
         -2   -1    0    0    0  501 -0.00000000000E+00  0.00000000000E+00  0.18276264271E+03  0.18276264271E+03  0.00000000000E+00 0.  1.
          2   -1    0    0  501    0  0.00000000000E+00 -0.00000000000E+00 -0.15750217240E+03  0.15750217240E+03  0.00000000000E+00 0. -1.
         23    2    1    2    0    0  0.83100197042E+02 -0.93529678960E+02  0.48050046512E+02  0.16189631491E+03  0.90819415426E+02 0.  0.
          5    1    1    2  502    0 -0.69640271322E+02  0.23188996749E+02  0.39414032497E+02  0.83417236334E+02  0.41800000000E+01 0.  1.
         -5    1    1    2    0  502 -0.13459925720E+02  0.70340682211E+02 -0.62203608700E+02  0.94951263865E+02  0.41800000000E+01 0.  1.
        -11    1    3    3    0    0  0.37459984230E+02 -0.49788730708E+02  0.71164977954E+02  0.94586585789E+02  0.00000000000E+00 0.  1.
         11    1    3    3    0    0  0.45640212812E+02 -0.43740948252E+02 -0.23114931441E+02  0.67309729126E+02  0.00000000000E+00 0. -1.
</event>
<event>
 7    1  0.5831876E-006  0.1312986E+03  0.7561462E-02  0.1225541E+00
          1   -1    0    0  501    0  0.00000000000E+00  0.00000000000E+00  0.11061467460E+03  0.11061467460E+03  0.00000000000E+00 0. -1.
         -1   -1    0    0    0  501 -0.00000000000E+00 -0.00000000000E+00 -0.18824023477E+03  0.18824023477E+03  0.00000000000E+00 0.  1.
         23    2    1    2    0    0 -0.63260575432E+02  0.70996456623E+02 -0.51984426010E+02  0.13964245353E+03  0.88063823582E+02 0.  0.
          5    1    1    2  502    0  0.82578900782E+02 -0.93244977654E+02 -0.86062751660E+01  0.12492173984E+03  0.41800000000E+01 0. -1.
         -5    1    1    2    0  502 -0.19318325350E+02  0.22248521031E+02 -0.17034858994E+02  0.34290715993E+02  0.41800000000E+01 0. -1.
        -11    1    3    3    0    0 -0.37617568717E+01  0.41740438398E+02 -0.59647216585E+02  0.72898597097E+02  0.00000000000E+00 0.  1.
         11    1    3    3    0    0 -0.59498818560E+02  0.29256018224E+02  0.76627905744E+01  0.66743856435E+02  0.00000000000E+00 0. -1.
</event>
<event>
 7    1  0.5831876E-006  0.1361759E+03  0.7561462E-02  0.1218569E+00
         -2   -1    0    0    0  501 -0.00000000000E+00  0.00000000000E+00  0.21574563146E+03  0.21574563146E+03  0.00000000000E+00 0.  1.
          2   -1    0    0  501    0  0.00000000000E+00 -0.00000000000E+00 -0.13313292268E+04  0.13313292268E+04  0.00000000000E+00 0. -1.
         23    2    1    2    0    0  0.10638462463E+03  0.67417882875E+02  0.18215692690E+03  0.23724967206E+03  0.85108175810E+02 0.  0.
          5    1    1    2  502    0 -0.43479705060E+02 -0.12912662887E+02 -0.98858904675E+03  0.98963781120E+03  0.41800000000E+01 0.  1.
         -5    1    1    2    0  502 -0.62904919566E+02 -0.54505219988E+02 -0.30915147544E+03  0.32018737495E+03  0.41800000000E+01 0.  1.
        -11    1    3    3    0    0 -0.89517112955E+01  0.13375796253E+02  0.14419052900E+01  0.16159336353E+02  0.00000000000E+00 0.  1.
         11    1    3    3    0    0  0.11533633592E+03  0.54042086622E+02  0.18071502161E+03  0.22109033571E+03  0.00000000000E+00 0. -1.
</event>
<event>
 7    1  0.5831876E-006  0.1432603E+03  0.7561462E-02  0.1209008E+00
          1   -1    0    0  501    0  0.00000000000E+00  0.00000000000E+00  0.76307520491E+03  0.76307520491E+03  0.00000000000E+00 0. -1.
         -1   -1    0    0    0  501 -0.00000000000E+00 -0.00000000000E+00 -0.32355295270E+02  0.32355295270E+02  0.00000000000E+00 0.  1.
         23    2    1    2    0    0  0.10635144473E+03  0.23315315079E+02  0.24449248781E+03  0.28170089982E+03  0.87889627650E+02 0.  0.
          5    1    1    2  502    0 -0.12421861622E+02  0.38507008177E+02  0.57184671407E+02  0.70175860300E+02  0.41800000000E+01 0. -1.
         -5    1    1    2    0  502 -0.93929583104E+02 -0.61822323256E+02  0.42904275042E+03  0.44355374006E+03  0.41800000000E+01 0. -1.
        -11    1    3    3    0    0  0.35918343593E+02 -0.28521894517E+02  0.46792387317E+02  0.65522159489E+02  0.00000000000E+00 0.  1.
         11    1    3    3    0    0  0.70433101133E+02  0.51837209596E+02  0.19770010050E+03  0.21617874033E+03  0.00000000000E+00 0. -1.
</event>
<event>
 7    1  0.5831876E-006  0.1398774E+03  0.7561462E-02  0.1213494E+00
         -1   -1    0    0    0  501 -0.00000000000E+00  0.00000000000E+00  0.28956946220E+02  0.28956946220E+02  0.00000000000E+00 0.  1.
          1   -1    0    0  501    0  0.00000000000E+00 -0.00000000000E+00 -0.83876182297E+03  0.83876182297E+03  0.00000000000E+00 0. -1.
         23    2    1    2    0    0 -0.57603896649E+02 -0.85386748791E+02 -0.25490481235E+03  0.28964422624E+03  0.91149375495E+02 0.  0.
          5    1    1    2  502    0 -0.30361759258E+02  0.22613129741E+02 -0.28144630765E+03  0.28401177185E+03  0.41800000000E+01 0.  1.
         -5    1    1    2    0  502  0.87965655907E+02  0.62773619050E+02 -0.27345375675E+03  0.29406277110E+03  0.41800000000E+01 0.  1.
        -11    1    3    3    0    0  0.64623972992E+01  0.13916086276E+02 -0.11863059603E+02  0.19394644087E+02  0.00000000000E+00 0.  1.
         11    1    3    3    0    0 -0.64066293949E+02 -0.99302835067E+02 -0.24304175275E+03  0.27024958215E+03  0.00000000000E+00 0. -1.
</event>
<event>
 7    1  0.5831876E-006  0.2268618E+03  0.7561462E-02  0.1128868E+00
          2   -1    0    0  501    0  0.00000000000E+00  0.00000000000E+00  0.11551082234E+04  0.11551082234E+04  0.00000000000E+00 0.  1.
         -2   -1    0    0    0  501 -0.00000000000E+00 -0.00000000000E+00 -0.51600469014E+02  0.51600469014E+02  0.00000000000E+00 0. -1.
         23    2    1    2    0    0  0.21107632304E+03 -0.37155677731E+02  0.43492944904E+03  0.49356458673E+03  0.92242165473E+02 0.  0.
          5    1    1    2  502    0 -0.13964216768E+03  0.65851539338E+02  0.55337482642E+03  0.57452374289E+03  0.41800000000E+01 0. -1.
         -5    1    1    2    0  502 -0.71434155359E+02 -0.28695861606E+02  0.11520347890E+03  0.13862036278E+03  0.41800000000E+01 0. -1.
        -11    1    3    3    0    0  0.10385399857E+03 -0.48003063403E+02  0.29869743734E+03  0.31985951008E+03  0.00000000000E+00 0.  1.
         11    1    3    3    0    0  0.10722232447E+03  0.10847385672E+02  0.13623201170E+03  0.17370507665E+03  0.00000000000E+00 0. -1.
</event>
<event>
 7    1  0.5831876E-006  0.8537946E+02  0.7561462E-02  0.1314443E+00
         -2   -1    0    0    0  501 -0.00000000000E+00  0.00000000000E+00  0.16049680244E+03  0.16049680244E+03  0.00000000000E+00 0. -1.
          2   -1    0    0  501    0  0.00000000000E+00 -0.00000000000E+00 -0.90775899740E+02  0.90775899740E+02  0.00000000000E+00 0.  1.
         23    2    1    2    0    0 -0.40895100822E+01 -0.49612728955E+02  0.49211375898E+02  0.11508768822E+03  0.91352446573E+02 0.  0.
          5    1    1    2  502    0 -0.40284037289E+02  0.13742531866E+01 -0.32370854794E+02  0.51865565381E+02  0.41800000000E+01 0.  1.
         -5    1    1    2    0  502  0.44373547372E+02  0.48238475769E+02  0.52880381592E+02  0.84319448576E+02  0.41800000000E+01 0.  1.
        -11    1    3    3    0    0 -0.13739810694E+02  0.27844409109E+00  0.61326585874E+02  0.62847514382E+02  0.00000000000E+00 0. -1.
         11    1    3    3    0    0  0.96503006117E+01 -0.49891173046E+02 -0.12115209976E+02  0.52240173838E+02  0.00000000000E+00 0.  1.
</event>
<event>
 7    1  0.5831876E-006  0.1328930E+03  0.7561462E-02  0.1223225E+00
          1   -1    0    0  501    0  0.00000000000E+00  0.00000000000E+00  0.11393378152E+03  0.11393378152E+03  0.00000000000E+00 0. -1.
         -1   -1    0    0    0  501 -0.00000000000E+00 -0.00000000000E+00 -0.22535554881E+03  0.22535554881E+03  0.00000000000E+00 0.  1.
         23    2    1    2    0    0 -0.57332077877E+02 -0.82841742572E+02 -0.11581249295E+03  0.17861901582E+03  0.91337275105E+02 0.  0.
          5    1    1    2  502    0  0.62672471871E+02 -0.10823918549E+02  0.16874289344E+02  0.65933375342E+02  0.41800000000E+01 0. -1.
         -5    1    1    2    0  502 -0.53403939937E+01  0.93665661121E+02 -0.12483563679E+02  0.94736939170E+02  0.41800000000E+01 0. -1.
        -11    1    3    3    0    0 -0.39611964950E+02 -0.23170454068E+02  0.13902813631E+01  0.45911987445E+02  0.00000000000E+00 0. -1.
         11    1    3    3    0    0 -0.17720112927E+02 -0.59671288504E+02 -0.11720277431E+03  0.13270702837E+03  0.00000000000E+00 0.  1.
</event>
<event>
 7    1  0.5831876E-006  0.1306755E+03  0.7561462E-02  0.1226457E+00
         -3   -1    0    0    0  501 -0.00000000000E+00  0.00000000000E+00  0.34352863468E+03  0.34352863468E+03  0.00000000000E+00 0.  1.
          3   -1    0    0  501    0  0.00000000000E+00 -0.00000000000E+00 -0.60499460356E+02  0.60499460356E+02  0.00000000000E+00 0. -1.
         23    2    1    2    0    0 -0.74053176625E+02  0.46324903432E+02  0.83289124266E+02  0.15268849765E+03  0.93524485823E+02 0.  0.
          5    1    1    2  502    0  0.10097078079E+03 -0.41805309472E+02  0.10119452550E+03  0.14899861364E+03  0.41800000000E+01 0. -1.
         -5    1    1    2    0  502 -0.26917604169E+02 -0.45195939606E+01  0.98545524562E+02  0.10234098375E+03  0.41800000000E+01 0. -1.
        -11    1    3    3    0    0 -0.25605805759E+02 -0.26537223612E+02  0.91285255848E+01  0.37989623649E+02  0.00000000000E+00 0.  1.
         11    1    3    3    0    0 -0.48447370866E+02  0.72862127045E+02  0.74160598681E+02  0.11469887401E+03  0.00000000000E+00 0. -1.
</event>
<event>
 7    1  0.5831876E-006  0.1167322E+03  0.7561462E-02  0.1248587E+00
         -2   -1    0    0    0  501 -0.00000000000E+00  0.00000000000E+00  0.23162004670E+02  0.23162004670E+02  0.00000000000E+00 0.  1.
          2   -1    0    0  501    0  0.00000000000E+00 -0.00000000000E+00 -0.65991159038E+03  0.65991159038E+03  0.00000000000E+00 0. -1.
         23    2    1    2    0    0 -0.44832257077E+02 -0.29904597913E+02 -0.36316297327E+03  0.37745821448E+03  0.87653535424E+02 0.  0.
          5    1    1    2  502    0  0.56803380799E+02 -0.34908531694E+02 -0.17125719709E+03  0.18382526924E+03  0.41800000000E+01 0.  1.
         -5    1    1    2    0  502 -0.11971123722E+02  0.64813129606E+02 -0.10232941535E+03  0.12179011133E+03  0.41800000000E+01 0.  1.
        -11    1    3    3    0    0  0.22776304277E+01  0.26800961898E+02 -0.13592740752E+03  0.13856312379E+03  0.00000000000E+00 0.  1.
         11    1    3    3    0    0 -0.47109887504E+02 -0.56705559810E+02 -0.22723556575E+03  0.23889509069E+03  0.00000000000E+00 0. -1.
</event>
<event>
 7    1  0.5831876E-006  0.8626283E+02  0.7561462E-02  0.1312163E+00
          1   -1    0    0  501    0  0.00000000000E+00  0.00000000000E+00  0.33707148222E+02  0.33707148222E+02  0.00000000000E+00 0. -1.
         -1   -1    0    0    0  501 -0.00000000000E+00 -0.00000000000E+00 -0.48759383150E+03  0.48759383150E+03  0.00000000000E+00 0.  1.
         23    2    1    2    0    0  0.33013968502E+02  0.43635448384E+02 -0.28160150091E+03  0.30147563497E+03  0.92704793267E+02 0.  0.
          5    1    1    2  502    0 -0.56059470563E+02 -0.39394289941E+01 -0.16345506633E+03  0.17289654261E+03  0.41800000000E+01 0. -1.
         -5    1    1    2    0  502  0.23045502061E+02 -0.39696019390E+02 -0.88301160433E+01  0.46928802137E+02  0.41800000000E+01 0. -1.
        -11    1    3    3    0    0  0.21890914905E+02 -0.30387828385E+01 -0.77007542925E+01  0.23404016177E+02  0.00000000000E+00 0. -1.
         11    1    3    3    0    0  0.11123053597E+02  0.46674231223E+02 -0.27390074661E+03  0.27807161879E+03  0.00000000000E+00 0.  1.
</event>
<event>
 7    1  0.5831876E-006  0.1412344E+03  0.7561462E-02  0.1211678E+00
         -1   -1    0    0    0  501 -0.00000000000E+00  0.00000000000E+00  0.69272471908E+03  0.69272471908E+03  0.00000000000E+00 0.  1.
          1   -1    0    0  501    0  0.00000000000E+00 -0.00000000000E+00 -0.39640747220E+02  0.39640747220E+02  0.00000000000E+00 0. -1.
         23    2    1    2    0    0 -0.11708410841E+03  0.41326103339E+02  0.32735457048E+03  0.36200662994E+03  0.92039393986E+02 0.  0.
          5    1    1    2  502    0  0.26611007896E+01 -0.69366481227E+01 -0.10489863218E+02  0.13516958790E+02  0.41800000000E+01 0.  1.
         -5    1    1    2    0  502  0.11442300762E+03 -0.34389455217E+02  0.33621926459E+03  0.35684187757E+03  0.41800000000E+01 0.  1.
        -11    1    3    3    0    0 -0.88734163001E+02 -0.16254433925E+02  0.19945075466E+03  0.21890308778E+03  0.00000000000E+00 0.  1.
         11    1    3    3    0    0 -0.28349945408E+02  0.57580537264E+02  0.12790381582E+03  0.14310354216E+03  0.00000000000E+00 0. -1.
</event>
<event>
 7    1  0.5831876E-006  0.1329994E+03  0.7561462E-02  0.1223072E+00
          4   -1    0    0  501    0  0.00000000000E+00  0.00000000000E+00  0.31910470741E+02  0.31910470741E+02  0.00000000000E+00 0. -1.
         -4   -1    0    0    0  501 -0.00000000000E+00 -0.00000000000E+00 -0.62886642942E+03  0.62886642942E+03  0.00000000000E+00 0.  1.
         23    2    1    2    0    0  0.50700679120E+02 -0.74706438170E+02 -0.34858450472E+03  0.36839488593E+03  0.77794757404E+02 0.  0.
          5    1    1    2  502    0  0.11409084793E+02 -0.27447320822E+02 -0.25290928730E+02  0.39250810337E+02  0.41800000000E+01 0.  1.
         -5    1    1    2    0  502 -0.62109763913E+02  0.10215375899E+03 -0.22308052523E+03  0.25313120390E+03  0.41800000000E+01 0.  1.
        -11    1    3    3    0    0 -0.90765061621E+01 -0.51401038401E+02 -0.11755774543E+03  0.12862454362E+03  0.00000000000E+00 0. -1.
         11    1    3    3    0    0  0.59777185282E+02 -0.23305399770E+02 -0.23102675929E+03  0.23977034230E+03  0.00000000000E+00 0.  1.
</event>
<event>
 7    1  0.5831876E-006  0.1535497E+03  0.7561462E-02  0.1196178E+00
         -2   -1    0    0    0  501 -0.00000000000E+00  0.00000000000E+00  0.79753610461E+02  0.79753610461E+02  0.00000000000E+00 0.  1.
          2   -1    0    0  501    0  0.00000000000E+00 -0.00000000000E+00 -0.32382537452E+03  0.32382537452E+03  0.00000000000E+00 0. -1.
         23    2    1    2    0    0  0.91932280866E+01  0.11319811278E+03 -0.12600426094E+03  0.19745857848E+03  0.10106675152E+03 0.  0.
          5    1    1    2  502    0  0.43413999439E+02 -0.90551208901E+02 -0.37703623827E+02  0.10734678584E+03  0.41800000000E+01 0.  1.
         -5    1    1    2    0  502 -0.52607227526E+02 -0.22646903876E+02 -0.80363879295E+02  0.98773620661E+02  0.41800000000E+01 0.  1.
        -11    1    3    3    0    0 -0.28354840697E+02 -0.15821161521E+01 -0.10295300638E+02  0.30207503996E+02  0.00000000000E+00 0.  1.
         11    1    3    3    0    0  0.37548068783E+02  0.11478022893E+03 -0.11570896030E+03  0.16725107448E+03  0.00000000000E+00 0. -1.
</event>
<event>
 7    1  0.5831876E-006  0.8467026E+02  0.7561462E-02  0.1316297E+00
         -2   -1    0    0    0  501 -0.00000000000E+00  0.00000000000E+00  0.60468527742E+02  0.60468527742E+02  0.00000000000E+00 0.  1.
          2   -1    0    0  501    0  0.00000000000E+00 -0.00000000000E+00 -0.27532142936E+03  0.27532142936E+03  0.00000000000E+00 0. -1.
         23    2    1    2    0    0 -0.48586031577E+02  0.13690029310E+02 -0.31681956958E+02  0.10831077657E+03  0.90440359114E+02 0.  0.
          5    1    1    2  502    0 -0.63250934302E+01  0.31560491843E+01  0.17165997553E+02  0.19029222931E+02  0.41800000000E+01 0. -1.
         -5    1    1    2    0  502  0.54911125007E+02 -0.16846078495E+02 -0.20033694221E+03  0.20844995761E+03  0.41800000000E+01 0. -1.
        -11    1    3    3    0    0 -0.20523903692E+02 -0.38870778366E+02 -0.14827628211E+02  0.46389940633E+02  0.00000000000E+00 0.  1.
         11    1    3    3    0    0 -0.28062127885E+02  0.52560807677E+02 -0.16854328747E+02  0.61920835933E+02  0.00000000000E+00 0. -1.
</event>
<event>
 7    1  0.5831876E-006  0.3707701E+03  0.7561462E-02  0.1054399E+00
          1   -1    0    0  501    0  0.00000000000E+00  0.00000000000E+00  0.10198286964E+04  0.10198286964E+04  0.00000000000E+00 0. -1.
         -1   -1    0    0    0  501 -0.00000000000E+00 -0.00000000000E+00 -0.50628800498E+03  0.50628800498E+03  0.00000000000E+00 0.  1.
         23    2    1    2    0    0 -0.11822228126E+03  0.35028960009E+03 -0.38801179410E+03  0.54371000554E+03  0.91586604048E+02 0.  0.
          5    1    1    2  502    0  0.55366724901E+02 -0.18021878617E+03  0.61518597424E+03  0.64344039384E+03  0.41800000000E+01 0.  1.
         -5    1    1    2    0  502  0.62855556357E+02 -0.17007081392E+03  0.28636651126E+03  0.33896630198E+03  0.41800000000E+01 0.  1.
        -11    1    3    3    0    0 -0.96831918414E+01  0.76016396964E+02 -0.13436708478E+03  0.15468280540E+03  0.00000000000E+00 0.  1.
         11    1    3    3    0    0 -0.10853908942E+03  0.27427320313E+03 -0.25364470932E+03  0.38902720014E+03  0.00000000000E+00 0. -1.
</event>
<event>
 7    1  0.5831876E-006  0.1717145E+03  0.7561462E-02  0.1176072E+00
         -4   -1    0    0    0  501 -0.00000000000E+00  0.00000000000E+00  0.42849290838E+02  0.42849290838E+02  0.00000000000E+00 0. -1.
          4   -1    0    0  501    0  0.00000000000E+00 -0.00000000000E+00 -0.92422082203E+03  0.92422082203E+03  0.00000000000E+00 0.  1.
         23    2    1    2    0    0 -0.11108756038E+03 -0.11620368127E+03 -0.32820388766E+03  0.37759084101E+03  0.94938452332E+02 0.  0.
          5    1    1    2  502    0  0.29331006365E+01  0.18474993525E+02 -0.27263463861E+03  0.27330760515E+03  0.41800000000E+01 0. -1.
         -5    1    1    2    0  502  0.10815445974E+03  0.97728687749E+02 -0.28053300493E+03  0.31617166671E+03  0.41800000000E+01 0. -1.
        -11    1    3    3    0    0 -0.36589187493E+02 -0.93730984806E+02 -0.12811757662E+03  0.16290604530E+03  0.00000000000E+00 0. -1.
         11    1    3    3    0    0 -0.74498372888E+02 -0.22472696469E+02 -0.20008631103E+03  0.21468479572E+03  0.00000000000E+00 0.  1.
</event>
<event>
 7    1  0.5831876E-006  0.1099558E+03  0.7561462E-02  0.1260652E+00
          1   -1    0    0  501    0  0.00000000000E+00  0.00000000000E+00  0.61275362094E+02  0.61275362094E+02  0.00000000000E+00 0. -1.
         -1   -1    0    0    0  501 -0.00000000000E+00 -0.00000000000E+00 -0.20374644739E+03  0.20374644739E+03  0.00000000000E+00 0.  1.
         23    2    1    2    0    0  0.88725502900E+01 -0.39208007060E+02 -0.78881010968E+02  0.11905006352E+03  0.79590915101E+02 0.  0.
          5    1    1    2  502    0  0.32223057554E+02 -0.33784893704E+02 -0.29831392027E+02  0.55561936890E+02  0.41800000000E+01 0.  1.
         -5    1    1    2    0  502 -0.41095607844E+02  0.72992900764E+02 -0.33758682300E+02  0.90409809073E+02  0.41800000000E+01 0.  1.
        -11    1    3    3    0    0  0.39352034304E+02  0.19280132481E+00 -0.34651881369E+02  0.52434460602E+02  0.00000000000E+00 0. -1.
         11    1    3    3    0    0 -0.30479484014E+02 -0.39400808385E+02 -0.44229129599E+02  0.66615602918E+02  0.00000000000E+00 0.  1.
</event>
<event>
 7    1  0.5831876E-006  0.1449931E+03  0.7561462E-02  0.1206764E+00
         -2   -1    0    0    0  501 -0.00000000000E+00  0.00000000000E+00  0.97800952792E+02  0.97800952792E+02  0.00000000000E+00 0.  1.
          2   -1    0    0  501    0  0.00000000000E+00 -0.00000000000E+00 -0.23790986373E+03  0.23790986373E+03  0.00000000000E+00 0. -1.
         23    2    1    2    0    0  0.21266983403E+02  0.10483184739E+03 -0.44832200257E+02  0.14553478119E+03  0.87911577985E+02 0.  0.
          5    1    1    2  502    0  0.45147188900E+02 -0.47343669502E+02 -0.75911339798E+01  0.65990828321E+02  0.41800000000E+01 0.  1.
         -5    1    1    2    0  502 -0.66414172302E+02 -0.57488177892E+02 -0.87685576701E+02  0.12418520701E+03  0.41800000000E+01 0.  1.
        -11    1    3    3    0    0  0.54222168332E+02  0.69995139499E+02 -0.17221317503E+02  0.90199428316E+02  0.00000000000E+00 0.  1.
         11    1    3    3    0    0 -0.32955184929E+02  0.34836707895E+02 -0.27610882754E+02  0.55335352869E+02  0.00000000000E+00 0. -1.
</event>
<event>
 7    1  0.5831876E-006  0.1092573E+03  0.7561462E-02  0.1261952E+00
          3   -1    0    0  501    0  0.00000000000E+00  0.00000000000E+00  0.10730340177E+03  0.10730340177E+03  0.00000000000E+00 0. -1.
         -3   -1    0    0    0  501 -0.00000000000E+00 -0.00000000000E+00 -0.17560968818E+03  0.17560968818E+03  0.00000000000E+00 0.  1.
         23    2    1    2    0    0  0.37074077958E+02 -0.75105705905E+02 -0.20012180563E+02  0.12482867379E+03  0.90367893149E+02 0.  0.
          5    1    1    2  502    0  0.30658169433E+02  0.21456694243E+02 -0.59952417286E+02  0.70796029685E+02  0.41800000000E+01 0.  1.
         -5    1    1    2    0  502 -0.67732247391E+02  0.53649011662E+02  0.11658311432E+02  0.87288386481E+02  0.41800000000E+01 0.  1.
        -11    1    3    3    0    0  0.29682656519E+02 -0.14026575537E+02 -0.47256907537E+02  0.57541465303E+02  0.00000000000E+00 0.  1.
         11    1    3    3    0    0  0.73914214389E+01 -0.61079130368E+02  0.27244726974E+02  0.67287208482E+02  0.00000000000E+00 0. -1.
</event>
<event>
 7    1  0.5831876E-006  0.9323999E+02  0.7561462E-02  0.1295190E+00
          1   -1    0    0  501    0  0.00000000000E+00  0.00000000000E+00  0.32072793932E+03  0.32072793932E+03  0.00000000000E+00 0. -1.
         -1   -1    0    0    0  501 -0.00000000000E+00 -0.00000000000E+00 -0.57943166908E+02  0.57943166908E+02  0.00000000000E+00 0.  1.
         23    2    1    2    0    0 -0.41817007971E+02  0.19408670496E+02  0.14742256765E+02  0.97073023771E+02  0.84145583149E+02 0.  0.
          5    1    1    2  502    0 -0.31784875844E+02  0.15776247367E+02  0.14895653393E+03  0.15318188442E+03  0.41800000000E+01 0. -1.
         -5    1    1    2    0  502  0.73601883815E+02 -0.35184917863E+02  0.99085981720E+02  0.12841619804E+03  0.41800000000E+01 0. -1.
        -11    1    3    3    0    0 -0.90387080965E+01 -0.17502650778E+02  0.37772506491E+02  0.42600507919E+02  0.00000000000E+00 0. -1.
         11    1    3    3    0    0 -0.32778299874E+02  0.36911321274E+02 -0.23030249726E+02  0.54472515852E+02  0.00000000000E+00 0.  1.
</event>
<event>
 7    1  0.5831876E-006  0.1367683E+03  0.7561462E-02  0.1217745E+00
          1   -1    0    0  501    0  0.00000000000E+00  0.00000000000E+00  0.17474993619E+02  0.17474993619E+02  0.00000000000E+00 0. -1.
         -1   -1    0    0    0  501 -0.00000000000E+00 -0.00000000000E+00 -0.13122428430E+04  0.13122428430E+04  0.00000000000E+00 0.  1.
         23    2    1    2    0    0 -0.47503292575E+01 -0.10320978693E+03 -0.62770860084E+03  0.64319377369E+03  0.94896349750E+02 0.  0.
          5    1    1    2  502    0  0.17274484647E+02 -0.12328589358E+02 -0.31528959221E+03  0.31603069675E+03  0.41800000000E+01 0. -1.
         -5    1    1    2    0  502 -0.12524155389E+02  0.11553837629E+03 -0.35176965629E+03  0.37049336613E+03  0.41800000000E+01 0. -1.
        -11    1    3    3    0    0 -0.45803415231E+02 -0.43599415656E+02 -0.21196701411E+03  0.22119872731E+03  0.00000000000E+00 0. -1.
         11    1    3    3    0    0  0.41053085974E+02 -0.59610371277E+02 -0.41574158673E+03  0.42199504638E+03  0.00000000000E+00 0.  1.
</event>
<event>
 7    1  0.5831876E-006  0.1639328E+03  0.7561462E-02  0.1184327E+00
          1   -1    0    0  501    0  0.00000000000E+00  0.00000000000E+00  0.12384218714E+03  0.12384218714E+03  0.00000000000E+00 0. -1.
         -1   -1    0    0    0  501 -0.00000000000E+00 -0.00000000000E+00 -0.25050625468E+03  0.25050625468E+03  0.00000000000E+00 0.  1.
         23    2    1    2    0    0  0.11768490773E+03 -0.35797046520E+02 -0.12736661430E+03  0.19890857289E+03  0.90615671299E+02 0.  0.
          5    1    1    2  502    0 -0.13316193457E+03  0.59960382590E+02  0.46612817379E+01  0.14617300793E+03  0.41800000000E+01 0.  1.
         -5    1    1    2    0  502  0.15477026840E+02 -0.24163336070E+02 -0.39587349819E+01  0.29266860995E+02  0.41800000000E+01 0.  1.
        -11    1    3    3    0    0  0.41795533468E+01 -0.38995304825E+02 -0.33837552931E+02  0.51798479253E+02  0.00000000000E+00 0. -1.
         11    1    3    3    0    0  0.11350535439E+03  0.31982583055E+01 -0.93529061369E+02  0.14711009364E+03  0.00000000000E+00 0.  1.
</event>
<event>
 7    1  0.5831876E-006  0.1364695E+03  0.7561462E-02  0.1218160E+00
         -1   -1    0    0    0  501 -0.00000000000E+00  0.00000000000E+00  0.10391601814E+03  0.10391601814E+03  0.00000000000E+00 0.  1.
          1   -1    0    0  501    0  0.00000000000E+00 -0.00000000000E+00 -0.26132557479E+03  0.26132557479E+03  0.00000000000E+00 0. -1.
         23    2    1    2    0    0  0.96379421479E+02 -0.21685226944E+02  0.46228806795E+01  0.13487011396E+03  0.91702424507E+02 0.  0.
          5    1    1    2  502    0 -0.93373438423E+02  0.57334335318E+02 -0.66418059319E+02  0.12819772234E+03  0.41800000000E+01 0. -1.
         -5    1    1    2    0  502 -0.30059830559E+01 -0.35649108375E+02 -0.95614378012E+02  0.10217375663E+03  0.41800000000E+01 0.  1.
        -11    1    3    3    0    0  0.24340335180E+01  0.23076871197E+02 -0.16769052956E+02  0.28629838289E+02  0.00000000000E+00 0. -1.
         11    1    3    3    0    0  0.93945387961E+02 -0.44762098141E+02  0.21391933635E+02  0.10624027567E+03  0.00000000000E+00 0.  1.
</event>
<event>
 7    1  0.5831876E-006  0.1513960E+03  0.7561462E-02  0.1198768E+00
         -1   -1    0    0    0  501 -0.00000000000E+00  0.00000000000E+00  0.16631045332E+02  0.16631045332E+02  0.00000000000E+00 0.  1.
          1   -1    0    0  501    0  0.00000000000E+00 -0.00000000000E+00 -0.16223431481E+04  0.16223431481E+04  0.00000000000E+00 0. -1.
         23    2    1    2    0    0  0.21939110551E+02 -0.11486909540E+03 -0.66820789112E+03  0.68595944815E+03  0.10179560451E+03 0.  0.
          5    1    1    2  502    0  0.11243214930E+02  0.13160552643E+03 -0.66994377142E+03  0.68285324465E+03  0.41800000000E+01 0.  1.
         -5    1    1    2    0  502 -0.33182325481E+02 -0.16736431025E+02 -0.26756044026E+03  0.27016150066E+03  0.41800000000E+01 0.  1.
        -11    1    3    3    0    0  0.16878646243E+02  0.13321747793E+01 -0.15452527647E+02  0.22922565287E+02  0.00000000000E+00 0.  1.
         11    1    3    3    0    0  0.50604643083E+01 -0.11620127018E+03 -0.65275536347E+03  0.66303688286E+03  0.00000000000E+00 0. -1.
</event>
<event>
 7    1  0.5831876E-006  0.9743902E+02  0.7561462E-02  0.1285775E+00
          1   -1    0    0  501    0  0.00000000000E+00  0.00000000000E+00  0.50423117714E+02  0.50423117714E+02  0.00000000000E+00 0. -1.
         -1   -1    0    0    0  501 -0.00000000000E+00 -0.00000000000E+00 -0.33583103458E+03  0.33583103458E+03  0.00000000000E+00 0.  1.
         23    2    1    2    0    0 -0.19273997102E+01  0.47999415785E+02 -0.20394485993E+03  0.22942390340E+03  0.93456742793E+02 0.  0.
          5    1    1    2  502    0  0.54506318178E+02  0.16376168269E+01 -0.60225937864E+02  0.81352667454E+02  0.41800000000E+01 0. -1.
         -5    1    1    2    0  502 -0.52578918468E+02 -0.49637032612E+02 -0.21237119073E+02  0.75477581442E+02  0.41800000000E+01 0. -1.
        -11    1    3    3    0    0  0.22879180523E+02  0.20444814568E+02 -0.10457212281E+02  0.32416055170E+02  0.00000000000E+00 0. -1.
         11    1    3    3    0    0 -0.24806580233E+02  0.27554601217E+02 -0.19348764765E+03  0.19700784823E+03  0.00000000000E+00 0.  1.
</event>
<event>
 7    1  0.5831876E-006  0.1671596E+03  0.7561462E-02  0.1180843E+00
          1   -1    0    0  501    0  0.00000000000E+00  0.00000000000E+00  0.58456767648E+03  0.58456767648E+03  0.00000000000E+00 0. -1.
         -1   -1    0    0    0  501 -0.00000000000E+00 -0.00000000000E+00 -0.48386299715E+02  0.48386299715E+02  0.00000000000E+00 0.  1.
         23    2    1    2    0    0  0.61762669926E+02 -0.11171453829E+03  0.24913913798E+03  0.29482074712E+03  0.92488904164E+02 0.  0.
          5    1    1    2  502    0 -0.56599220718E+02 -0.86950542653E+01  0.10708857763E+03  0.12150930670E+03  0.41800000000E+01 0.  1.
         -5    1    1    2    0  502 -0.51634492079E+01  0.12040959256E+03  0.17995366115E+03  0.21662392238E+03  0.41800000000E+01 0.  1.
        -11    1    3    3    0    0  0.59363019527E+02 -0.12734274329E+03  0.23394221716E+03  0.27289027708E+03  0.00000000000E+00 0.  1.
         11    1    3    3    0    0  0.23996503992E+01  0.15628204998E+02  0.15196920825E+02  0.21930470037E+02  0.00000000000E+00 0. -1.
</event>
<event>
 7    1  0.5831876E-006  0.4169767E+03  0.7561462E-02  0.1038055E+00
         -1   -1    0    0    0  501 -0.00000000000E+00  0.00000000000E+00  0.91810179434E+02  0.91810179434E+02  0.00000000000E+00 0.  1.
          1   -1    0    0  501    0  0.00000000000E+00 -0.00000000000E+00 -0.22051026751E+04  0.22051026751E+04  0.00000000000E+00 0. -1.
         23    2    1    2    0    0 -0.25995459407E+03 -0.28757177869E+03 -0.81737912613E+03  0.90941282480E+03  0.93000705407E+02 0.  0.
          5    1    1    2  502    0  0.14747240603E+03  0.29298530606E+03 -0.11843041187E+04  0.12288947140E+04  0.41800000000E+01 0. -1.
         -5    1    1    2    0  502  0.11248218804E+03 -0.54135273669E+01 -0.11160925079E+03  0.15860531569E+03  0.41800000000E+01 0.  1.
        -11    1    3    3    0    0 -0.24542637471E+03 -0.28838147782E+03 -0.80733216126E+03  0.89173045297E+03  0.00000000000E+00 0.  1.
         11    1    3    3    0    0 -0.14528219359E+02  0.80969912709E+00 -0.10046964864E+02  0.17682371826E+02  0.00000000000E+00 0. -1.
</event>
<event>
 7    1  0.5831876E-006  0.1181358E+03  0.7561462E-02  0.1246204E+00
         -1   -1    0    0    0  501 -0.00000000000E+00  0.00000000000E+00  0.14912149334E+03  0.14912149334E+03  0.00000000000E+00 0.  1.
          1   -1    0    0  501    0  0.00000000000E+00 -0.00000000000E+00 -0.12312119848E+03  0.12312119848E+03  0.00000000000E+00 0. -1.
         23    2    1    2    0    0  0.40348043182E+02 -0.12493536343E+02  0.72234440089E+02  0.13235455665E+03  0.10254687363E+03 0.  0.
          5    1    1    2  502    0 -0.63125517647E+02 -0.39858915916E+02 -0.26948057379E+02  0.79481031402E+02  0.41800000000E+01 0.  1.
         -5    1    1    2    0  502  0.22777474465E+02  0.52352452259E+02 -0.19286087853E+02  0.60407103765E+02  0.41800000000E+01 0.  1.
        -11    1    3    3    0    0  0.60449236967E+02  0.22001207564E+02  0.65609197974E+02  0.91884330781E+02  0.00000000000E+00 0.  1.
         11    1    3    3    0    0 -0.20101193785E+02 -0.34494743907E+02  0.66252421150E+01  0.40470225869E+02  0.00000000000E+00 0. -1.
</event>
<event>
 7    1  0.5831876E-006  0.4523400E+02  0.7561462E-02  0.1472886E+00
         -2   -1    0    0    0  501 -0.00000000000E+00  0.00000000000E+00  0.61957298742E+02  0.61957298742E+02  0.00000000000E+00 0.  1.
          2   -1    0    0  501    0  0.00000000000E+00 -0.00000000000E+00 -0.75755778064E+03  0.75755778064E+03  0.00000000000E+00 0. -1.
         23    2    1    2    0    0 -0.10493330516E+02 -0.84185261874E+01  0.14089540046E+02  0.10089855377E+03  0.99000108316E+02 0.  0.
          5    1    1    2  502    0  0.24012192348E+02 -0.87619977213E+01 -0.34906450138E+02  0.43465971134E+02  0.41800000000E+01 0. -1.
         -5    1    1    2    0  502 -0.13518861832E+02  0.17180523909E+02 -0.67478357181E+03  0.67515055447E+03  0.41800000000E+01 0.  1.
        -11    1    3    3    0    0  0.15353654430E+02 -0.54537306586E+01 -0.38730884021E+02  0.42018558513E+02  0.00000000000E+00 0. -1.
         11    1    3    3    0    0 -0.25846984946E+02 -0.29647955288E+01  0.52820424067E+02  0.58879995261E+02  0.00000000000E+00 0.  1.
</event>
<event>
 7    1  0.5831876E-006  0.9378175E+02  0.7561462E-02  0.1293944E+00
          1   -1    0    0  501    0  0.00000000000E+00  0.00000000000E+00  0.27053551047E+03  0.27053551047E+03  0.00000000000E+00 0. -1.
         -1   -1    0    0    0  501 -0.00000000000E+00 -0.00000000000E+00 -0.46798835165E+02  0.46798835165E+02  0.00000000000E+00 0.  1.
         23    2    1    2    0    0  0.11959750935E+02  0.37287825473E+02  0.18484463590E+02  0.73799092684E+02  0.59759627808E+02 0.  0.
          5    1    1    2  502    0 -0.21327324043E+02  0.43779782724E+02  0.66882803454E+02  0.82839036233E+02  0.41800000000E+01 0. -1.
         -5    1    1    2    0  502  0.93675731087E+01 -0.81067608197E+02  0.13836940826E+03  0.16069621671E+03  0.41800000000E+01 0. -1.
        -11    1    3    3    0    0  0.24383729577E+02  0.37282310993E+02 -0.73331433991E+01  0.45147668524E+02  0.00000000000E+00 0.  1.
         11    1    3    3    0    0 -0.12423978642E+02  0.55144800101E-02  0.25817606989E+02  0.28651424159E+02  0.00000000000E+00 0. -1.
</event>
<event>
 7    1  0.5831876E-006  0.1010109E+03  0.7561462E-02  0.1278184E+00
         -3   -1    0    0    0  501 -0.00000000000E+00  0.00000000000E+00  0.61210063899E+02  0.61210063899E+02  0.00000000000E+00 0.  1.
          3   -1    0    0  501    0  0.00000000000E+00 -0.00000000000E+00 -0.26899276829E+03  0.26899276829E+03  0.00000000000E+00 0. -1.
         23    2    1    2    0    0  0.16059251444E+02 -0.60205206918E+02 -0.54252595820E+02  0.12259365345E+03  0.90572033303E+02 0.  0.
          5    1    1    2  502    0 -0.45823418919E+02  0.29706780943E+02 -0.73189451231E+01  0.55256835895E+02  0.41800000000E+01 0. -1.
         -5    1    1    2    0  502  0.29764167475E+02  0.30498425975E+02 -0.14621116345E+03  0.15235234284E+03  0.41800000000E+01 0. -1.
        -11    1    3    3    0    0  0.50158965391E+02 -0.27591903720E+02 -0.48555972776E+02  0.75066087231E+02  0.00000000000E+00 0. -1.
         11    1    3    3    0    0 -0.34099713947E+02 -0.32613303198E+02 -0.56966230440E+01  0.47527566221E+02  0.00000000000E+00 0.  1.
</event>
<event>
 7    1  0.5831876E-006  0.1079942E+03  0.7561462E-02  0.1264330E+00
         -1   -1    0    0    0  501 -0.00000000000E+00  0.00000000000E+00  0.35770938258E+03  0.35770938258E+03  0.00000000000E+00 0.  1.
          1   -1    0    0  501    0  0.00000000000E+00 -0.00000000000E+00 -0.39734491634E+02  0.39734491634E+02  0.00000000000E+00 0. -1.
         23    2    1    2    0    0 -0.82012850742E+00  0.41186433090E+02  0.18273291160E+03  0.20867215241E+03  0.91955181079E+02 0.  0.
          5    1    1    2  502    0 -0.45362782393E+02  0.15428613669E+02  0.91881177821E+02  0.10370847306E+03  0.41800000000E+01 0.  1.
         -5    1    1    2    0  502  0.46182910900E+02 -0.56615046759E+02  0.43360801524E+02  0.85063248748E+02  0.41800000000E+01 0.  1.
        -11    1    3    3    0    0 -0.34073723579E+00  0.67945523420E+02  0.93965213874E+02  0.11595762878E+03  0.00000000000E+00 0. -1.
         11    1    3    3    0    0 -0.47939127164E+00 -0.26759090331E+02  0.88767697727E+02  0.92714523625E+02  0.00000000000E+00 0.  1.
</event>
<event>
 7    1  0.5831876E-006  0.7864834E+02  0.7561462E-02  0.1332932E+00
          2   -1    0    0  501    0  0.00000000000E+00  0.00000000000E+00  0.18059429893E+03  0.18059429893E+03  0.00000000000E+00 0. -1.
         -2   -1    0    0    0  501 -0.00000000000E+00 -0.00000000000E+00 -0.78470783135E+02  0.78470783135E+02  0.00000000000E+00 0.  1.
         23    2    1    2    0    0 -0.13366018949E+02  0.32135913556E+02 -0.13294106700E+02  0.85344796059E+02  0.76783028976E+02 0.  0.
          5    1    1    2  502    0  0.36848872326E+02  0.21447733819E+01 -0.12471738797E+02  0.39184896493E+02  0.41800000000E+01 0. -1.
         -5    1    1    2    0  502 -0.23482853377E+02 -0.34280686938E+02  0.12788936130E+03  0.13453538952E+03  0.41800000000E+01 0. -1.
        -11    1    3    3    0    0  0.27573821290E+02  0.24196026418E+02 -0.21954528949E+02  0.42752364336E+02  0.00000000000E+00 0.  1.
         11    1    3    3    0    0 -0.40939840239E+02  0.79398871381E+01  0.86604222488E+01  0.42592431723E+02  0.00000000000E+00 0. -1.
</event>
<event>
 7    1  0.5831876E-006  0.1019305E+03  0.7561462E-02  0.1276288E+00
         -1   -1    0    0    0  501 -0.00000000000E+00  0.00000000000E+00  0.14337874304E+03  0.14337874304E+03  0.00000000000E+00 0.  1.
          1   -1    0    0  501    0  0.00000000000E+00 -0.00000000000E+00 -0.95727848677E+02  0.95727848677E+02  0.00000000000E+00 0. -1.
         23    2    1    2    0    0  0.20896847392E+02 -0.37323580751E+02  0.33549189121E+02  0.10615428067E+03  0.91178151461E+02 0.  0.
          5    1    1    2  502    0 -0.59181567927E+02  0.40936567638E+02  0.43657648604E+02  0.84271722623E+02  0.41800000000E+01 0. -1.
         -5    1    1    2    0  502  0.38284720535E+02 -0.36129868862E+01 -0.29555943363E+02  0.48680588418E+02  0.41800000000E+01 0. -1.
        -11    1    3    3    0    0  0.50523466142E+02 -0.75298400518E+01  0.38334575067E+02  0.63865943724E+02  0.00000000000E+00 0.  1.
         11    1    3    3    0    0 -0.29626618750E+02 -0.29793740700E+02 -0.47853859460E+01  0.42288336951E+02  0.00000000000E+00 0. -1.
</event>
<event>
 7    1  0.5831876E-006  0.1746426E+03  0.7561462E-02  0.1173091E+00
          4   -1    0    0  501    0  0.00000000000E+00  0.00000000000E+00  0.37937195383E+03  0.37937195383E+03  0.00000000000E+00 0. -1.
         -4   -1    0    0    0  501 -0.00000000000E+00 -0.00000000000E+00 -0.10675052299E+03  0.10675052299E+03  0.00000000000E+00 0.  1.
         23    2    1    2    0    0  0.26347483018E+02  0.16634888889E+03  0.12207704708E+03  0.22790330820E+03  0.93118042102E+02 0.  0.
          5    1    1    2  502    0 -0.17825469843E+02 -0.37121935848E+02  0.11738445624E+03  0.12446834322E+03  0.41800000000E+01 0. -1.
         -5    1    1    2    0  502 -0.85220131752E+01 -0.12922695305E+03  0.33159927522E+02  0.13375082540E+03  0.41800000000E+01 0. -1.
        -11    1    3    3    0    0 -0.18486545649E+02  0.63180593496E+02  0.57454717413E+01  0.66079877498E+02  0.00000000000E+00 0.  1.
         11    1    3    3    0    0  0.44834028667E+02  0.10316829540E+03  0.11633157534E+03  0.16182343070E+03  0.00000000000E+00 0. -1.
</event>
<event>
 7    1  0.5831876E-006  0.2149474E+03  0.7561462E-02  0.1137707E+00
          1   -1    0    0  501    0  0.00000000000E+00  0.00000000000E+00  0.31221529090E+03  0.31221529090E+03  0.00000000000E+00 0. -1.
         -1   -1    0    0    0  501 -0.00000000000E+00 -0.00000000000E+00 -0.15485572787E+03  0.15485572787E+03  0.00000000000E+00 0.  1.
         23    2    1    2    0    0 -0.17795237321E+02  0.18802786668E+03  0.67498248636E+02  0.22336911451E+03  0.98318862025E+02 0.  0.
          5    1    1    2  502    0 -0.42745269498E+02 -0.12817943953E+03  0.27144365396E+02  0.13788189060E+03  0.41800000000E+01 0.  1.
         -5    1    1    2    0  502  0.60540506819E+02 -0.59848427147E+02  0.62716949002E+02  0.10582001365E+03  0.41800000000E+01 0.  1.
        -11    1    3    3    0    0  0.14288409907E+02  0.17379350347E+03  0.70607152590E+02  0.18813216233E+03  0.00000000000E+00 0. -1.
         11    1    3    3    0    0 -0.32083647228E+02  0.14234363212E+02 -0.31089039545E+01  0.35236952185E+02  0.00000000000E+00 0.  1.
</event>
<event>
 7    1  0.5831876E-006  0.1114161E+03  0.7561462E-02  0.1257970E+00
          4   -1    0    0  501    0  0.00000000000E+00  0.00000000000E+00  0.70842967525E+02  0.70842967525E+02  0.00000000000E+00 0. -1.
         -4   -1    0    0    0  501 -0.00000000000E+00 -0.00000000000E+00 -0.36130257335E+03  0.36130257335E+03  0.00000000000E+00 0.  1.
         23    2    1    2    0    0 -0.86230038465E+02  0.14773057719E+02 -0.23863047703E+03  0.27093615466E+03  0.93851119147E+02 0.  0.
          5    1    1    2  502    0  0.77232404184E+02  0.12799299543E+01  0.25624679580E+02  0.81489748314E+02  0.41800000000E+01 0. -1.
         -5    1    1    2    0  502  0.89976342815E+01 -0.16052987673E+02 -0.77453808370E+02  0.79719637900E+02  0.41800000000E+01 0. -1.
        -11    1    3    3    0    0 -0.10596091235E+03  0.13724816102E+02 -0.21536561992E+03  0.24041305241E+03  0.00000000000E+00 0.  1.
         11    1    3    3    0    0  0.19730873886E+02  0.10482416164E+01 -0.23264857113E+02  0.30523102255E+02  0.00000000000E+00 0. -1.
</event>
<event>
 7    1  0.5831876E-006  0.8506346E+02  0.7561462E-02  0.1315267E+00
         -2   -1    0    0    0  501 -0.00000000000E+00  0.00000000000E+00  0.62557141732E+02  0.62557141732E+02  0.00000000000E+00 0.  1.
          2   -1    0    0  501    0  0.00000000000E+00 -0.00000000000E+00 -0.23928061121E+03  0.23928061121E+03  0.00000000000E+00 0. -1.
         23    2    1    2    0    0  0.16689532057E+02 -0.25918836266E+02 -0.18108296470E+02  0.97479573332E+02  0.90686439241E+02 0.  0.
          5    1    1    2  502    0 -0.48554386705E+00 -0.41194446288E+02 -0.13419456363E+02  0.43528983068E+02  0.41800000000E+01 0. -1.
         -5    1    1    2    0  502 -0.16203988190E+02  0.67113282554E+02 -0.14519571665E+03  0.16082919655E+03  0.41800000000E+01 0. -1.
        -11    1    3    3    0    0 -0.17369667997E+02 -0.10946327800E+01 -0.44479504999E+02  0.47763269907E+02  0.00000000000E+00 0. -1.
         11    1    3    3    0    0  0.34059200054E+02 -0.24824203486E+02  0.26371208528E+02  0.49716303425E+02  0.00000000000E+00 0.  1.
</event>
<event>
 7    1  0.5831876E-006  0.1236920E+03  0.7561462E-02  0.1237128E+00
         -2   -1    0    0    0  501 -0.00000000000E+00  0.00000000000E+00  0.30192036683E+02  0.30192036683E+02  0.00000000000E+00 0.  1.
          2   -1    0    0  501    0  0.00000000000E+00 -0.00000000000E+00 -0.83998360500E+03  0.83998360500E+03  0.00000000000E+00 0. -1.
         23    2    1    2    0    0 -0.83416751516E+02  0.76265730654E+02 -0.28596260635E+03  0.31988807051E+03  0.88198352132E+02 0.  0.
          5    1    1    2  502    0  0.37473455510E+01 -0.30942379903E+02 -0.18062711253E+02  0.36265788432E+02  0.41800000000E+01 0.  1.
         -5    1    1    2    0  502  0.79669405965E+02 -0.45323350751E+02 -0.50576625072E+03  0.51402178275E+03  0.41800000000E+01 0.  1.
        -11    1    3    3    0    0 -0.55711757918E+00  0.28569947230E+02 -0.14422990450E+02  0.32008981837E+02  0.00000000000E+00 0.  1.
         11    1    3    3    0    0 -0.82859633936E+02  0.47695783424E+02 -0.27153961590E+03  0.28787908867E+03  0.00000000000E+00 0. -1.
</event>
<event>
 7    1  0.5831876E-006  0.8693556E+02  0.7561462E-02  0.1310447E+00
         -1   -1    0    0    0  501 -0.00000000000E+00  0.00000000000E+00  0.69018926818E+02  0.69018926818E+02  0.00000000000E+00 0.  1.
          1   -1    0    0  501    0  0.00000000000E+00 -0.00000000000E+00 -0.18287511879E+03  0.18287511879E+03  0.00000000000E+00 0. -1.
         23    2    1    2    0    0 -0.20426438898E+02  0.44565121222E+02 -0.35842111722E+02  0.96534122474E+02  0.75039259016E+02 0.  0.
          5    1    1    2  502    0  0.44045081804E+02 -0.12439103142E+02 -0.99696840465E+02  0.10977992948E+03  0.41800000000E+01 0. -1.
         -5    1    1    2    0  502 -0.23618642906E+02 -0.32126018079E+02  0.21682760219E+02  0.45579993649E+02  0.41800000000E+01 0. -1.
        -11    1    3    3    0    0 -0.47773145568E+02  0.23151379389E+02 -0.30971033160E+02  0.61461082809E+02  0.00000000000E+00 0.  1.
         11    1    3    3    0    0  0.27346706670E+02  0.21413741833E+02 -0.48710785621E+01  0.35073039665E+02  0.00000000000E+00 0. -1.
</event>
<event>
 7    1  0.5831876E-006  0.1392444E+03  0.7561462E-02  0.1214349E+00
         -2   -1    0    0    0  501 -0.00000000000E+00  0.00000000000E+00  0.21642490829E+03  0.21642490829E+03  0.00000000000E+00 0.  1.
          2   -1    0    0  501    0  0.00000000000E+00 -0.00000000000E+00 -0.10234748143E+03  0.10234748143E+03  0.00000000000E+00 0. -1.
         23    2    1    2    0    0 -0.91185613545E+02 -0.42469640301E+02  0.67173156250E+02  0.15155759575E+03  0.91318045555E+02 0.  0.
          5    1    1    2  502    0 -0.29876542494E+02  0.10085199361E+01  0.20498541566E+02  0.36486812826E+02  0.41800000000E+01 0. -1.
         -5    1    1    2    0  502  0.12106215604E+03  0.41461120364E+02  0.26405729043E+02  0.13072798114E+03  0.41800000000E+01 0. -1.
        -11    1    3    3    0    0 -0.10052434097E+03 -0.30420184858E+02  0.79686408554E+02  0.13183495167E+03  0.00000000000E+00 0.  1.
         11    1    3    3    0    0  0.93387274205E+01 -0.12049455443E+02 -0.12513252304E+02  0.19722644081E+02  0.00000000000E+00 0. -1.
</event>
<event>
 7    1  0.5831876E-006  0.1236715E+03  0.7561462E-02  0.1237160E+00
          2   -1    0    0  501    0  0.00000000000E+00  0.00000000000E+00  0.44976263205E+03  0.44976263205E+03  0.00000000000E+00 0. -1.
         -2   -1    0    0    0  501 -0.00000000000E+00 -0.00000000000E+00 -0.38096916791E+02  0.38096916791E+02  0.00000000000E+00 0.  1.
         23    2    1    2    0    0  0.63778482063E+01  0.74002183847E+02  0.15479105661E+03  0.19265028254E+03  0.87389129726E+02 0.  0.
          5    1    1    2  502    0  0.36664104673E+02  0.19446141476E+02  0.60656141837E+02  0.73614189748E+02  0.41800000000E+01 0. -1.
         -5    1    1    2    0  502 -0.43041952879E+02 -0.93448325323E+02  0.19621851681E+03  0.22159507656E+03  0.41800000000E+01 0. -1.
        -11    1    3    3    0    0 -0.20716422442E+02  0.72636674739E+02  0.67702433826E+02  0.10143409793E+03  0.00000000000E+00 0.  1.
         11    1    3    3    0    0  0.27094270648E+02  0.13655091075E+01  0.87088622786E+02  0.91216184615E+02  0.00000000000E+00 0. -1.
</event>
<event>
 7    1  0.5831876E-006  0.9524300E+02  0.7561462E-02  0.1290630E+00
         -2   -1    0    0    0  501 -0.00000000000E+00  0.00000000000E+00  0.81314090759E+02  0.81314090759E+02  0.00000000000E+00 0.  1.
          2   -1    0    0  501    0  0.00000000000E+00 -0.00000000000E+00 -0.14858017373E+03  0.14858017373E+03  0.00000000000E+00 0. -1.
         23    2    1    2    0    0  0.17486681459E+02  0.12522678676E+01 -0.28595139011E+02  0.97788012494E+02  0.91855654204E+02 0.  0.
          5    1    1    2  502    0 -0.57948734793E+02 -0.39316368922E+02 -0.27122231132E+02  0.75212502624E+02  0.41800000000E+01 0. -1.
         -5    1    1    2    0  502  0.40462053334E+02  0.38064101055E+02 -0.11548712825E+02  0.56893749367E+02  0.41800000000E+01 0. -1.
        -11    1    3    3    0    0 -0.12239394720E+02 -0.23136253232E+02 -0.48034522688E+02  0.54702873477E+02  0.00000000000E+00 0. -1.
         11    1    3    3    0    0  0.29726076179E+02  0.24388521100E+02  0.19439383677E+02  0.43085139018E+02  0.00000000000E+00 0.  1.
</event>
<event>
 7    1  0.5831876E-006  0.1462398E+03  0.7561462E-02  0.1205171E+00
         -2   -1    0    0    0  501 -0.00000000000E+00  0.00000000000E+00  0.45735571320E+03  0.45735571320E+03  0.00000000000E+00 0.  1.
          2   -1    0    0  501    0  0.00000000000E+00 -0.00000000000E+00 -0.67811570681E+02  0.67811570681E+02  0.00000000000E+00 0. -1.
         23    2    1    2    0    0  0.77689992520E+02  0.77350546465E+02  0.31152560816E+03  0.34144828076E+03  0.86717252688E+02 0.  0.
          5    1    1    2  502    0 -0.95078312861E+02 -0.22062930635E+02  0.78943826589E+02  0.12560357734E+03  0.41800000000E+01 0.  1.
         -5    1    1    2    0  502  0.17388320342E+02 -0.55287615829E+02 -0.92529223150E+00  0.58115425784E+02  0.41800000000E+01 0.  1.
        -11    1    3    3    0    0  0.49380660909E+02 -0.49653386731E+01  0.80522245536E+02  0.94588246025E+02  0.00000000000E+00 0. -1.
         11    1    3    3    0    0  0.28309331610E+02  0.82315885138E+02  0.23100336263E+03  0.24686003473E+03  0.00000000000E+00 0.  1.
</event>
<event>
 7    1  0.5831876E-006  0.1011528E+03  0.7561462E-02  0.1277890E+00
         -1   -1    0    0    0  501 -0.00000000000E+00  0.00000000000E+00  0.10441432665E+03  0.10441432665E+03  0.00000000000E+00 0.  1.
          1   -1    0    0  501    0  0.00000000000E+00 -0.00000000000E+00 -0.14832539412E+03  0.14832539412E+03  0.00000000000E+00 0. -1.
         23    2    1    2    0    0  0.43280957091E+01 -0.10962522070E+02  0.41999985470E+02  0.10117532300E+03  0.91288213384E+02 0.  0.
          5    1    1    2  502    0 -0.62390096246E+01  0.61860684702E+02 -0.78023675718E+02  0.99854073154E+02  0.41800000000E+01 0. -1.
         -5    1    1    2    0  502  0.19109139155E+01 -0.50898162632E+02 -0.78873772210E+01  0.51710324605E+02  0.41800000000E+01 0.  1.
        -11    1    3    3    0    0  0.44750754928E+02  0.58001860688E+01  0.34441271591E+02  0.56766833749E+02  0.00000000000E+00 0.  1.
         11    1    3    3    0    0 -0.40422659219E+02 -0.16762708139E+02  0.75587138790E+01  0.44408489256E+02  0.00000000000E+00 0. -1.
</event>
<event>
 7    1  0.5831876E-006  0.8593824E+02  0.7561462E-02  0.1312997E+00
         -1   -1    0    0    0  501 -0.00000000000E+00  0.00000000000E+00  0.28180864094E+02  0.28180864094E+02  0.00000000000E+00 0.  1.
          1   -1    0    0  501    0  0.00000000000E+00 -0.00000000000E+00 -0.66463195662E+03  0.66463195662E+03  0.00000000000E+00 0. -1.
         23    2    1    2    0    0 -0.65629274726E+02  0.18346645769E+02 -0.16860713439E+03  0.20376325148E+03  0.91909171334E+02 0.  0.
          5    1    1    2  502    0  0.21608593615E+02 -0.24159837273E+01 -0.42461456864E+03  0.42519145405E+03  0.41800000000E+01 0.  1.
         -5    1    1    2    0  502  0.44020681112E+02 -0.15930662041E+02 -0.43229389501E+02  0.63858115187E+02  0.41800000000E+01 0.  1.
        -11    1    3    3    0    0 -0.19548438934E+02 -0.30088152749E+02 -0.20638600217E+02  0.41393118021E+02  0.00000000000E+00 0.  1.
         11    1    3    3    0    0 -0.46080835792E+02  0.48434798518E+02 -0.14796853417E+03  0.16237013346E+03  0.00000000000E+00 0. -1.
</event>
<event>
 7    1  0.5831876E-006  0.9975644E+02  0.7561462E-02  0.1280809E+00
         -4   -1    0    0    0  501 -0.00000000000E+00  0.00000000000E+00  0.64243354263E+03  0.64243354263E+03  0.00000000000E+00 0. -1.
          4   -1    0    0  501    0  0.00000000000E+00 -0.00000000000E+00 -0.28218282628E+02  0.28218282628E+02  0.00000000000E+00 0.  1.
         23    2    1    2    0    0  0.75355305077E+02 -0.26021419782E+02  0.28688309406E+03  0.31127988240E+03  0.90761882070E+02 0.  0.
          5    1    1    2  502    0 -0.15172449001E+02 -0.90642769792E+00 -0.79415835736E+01  0.17651231388E+02  0.41800000000E+01 0.  1.
         -5    1    1    2    0  502 -0.60182856076E+02  0.26927847480E+02  0.33527374951E+03  0.34172071147E+03  0.41800000000E+01 0.  1.
        -11    1    3    3    0    0  0.12388256894E+02 -0.49086605820E+02  0.89624928680E+02  0.10293489020E+03  0.00000000000E+00 0. -1.
         11    1    3    3    0    0  0.62967048183E+02  0.23065186039E+02  0.19725816538E+03  0.20834499220E+03  0.00000000000E+00 0.  1.
</event>
<event>
 7    1  0.5831876E-006  0.1791516E+03  0.7561462E-02  0.1168627E+00
          2   -1    0    0  501    0  0.00000000000E+00  0.00000000000E+00  0.14152462986E+04  0.14152462986E+04  0.00000000000E+00 0. -1.
         -2   -1    0    0    0  501 -0.00000000000E+00 -0.00000000000E+00 -0.26869465132E+02  0.26869465132E+02  0.00000000000E+00 0.  1.
         23    2    1    2    0    0  0.52066765308E+01  0.16210960404E+03  0.69767935443E+03  0.72168844932E+03  0.88153860236E+02 0.  0.
          5    1    1    2  502    0 -0.39618900736E+02 -0.74825586620E+02  0.15599705412E+03  0.17754176692E+03  0.41800000000E+01 0.  1.
         -5    1    1    2    0  502  0.34412224205E+02 -0.87284017415E+02  0.53470042492E+03  0.54288554750E+03  0.41800000000E+01 0.  1.
        -11    1    3    3    0    0 -0.22060008945E+02  0.85555200410E+01  0.47506607806E+02  0.53072767999E+02  0.00000000000E+00 0.  1.
         11    1    3    3    0    0  0.27266685475E+02  0.15355408399E+03  0.65017274663E+03  0.66861568132E+03  0.00000000000E+00 0. -1.
</event>
<event>
 7    1  0.5831876E-006  0.1035288E+03  0.7561462E-02  0.1273046E+00
         -1   -1    0    0    0  501 -0.00000000000E+00  0.00000000000E+00  0.78564861354E+02  0.78564861354E+02  0.00000000000E+00 0.  1.
          1   -1    0    0  501    0  0.00000000000E+00 -0.00000000000E+00 -0.18601556516E+03  0.18601556516E+03  0.00000000000E+00 0. -1.
         23    2    1    2    0    0  0.18995189131E+02 -0.49720960875E+02 -0.55604494068E+02  0.11909177441E+03  0.90873537465E+02 0.  0.
          5    1    1    2  502    0  0.47221806078E+02  0.40697610336E+02 -0.28992320867E+01  0.62546561880E+02  0.41800000000E+01 0.  1.
         -5    1    1    2    0  502 -0.66216995208E+02  0.90233505387E+01 -0.48946977653E+02  0.82942090224E+02  0.41800000000E+01 0.  1.
        -11    1    3    3    0    0  0.10521221633E+01  0.12662460058E+02 -0.52596538962E+02  0.54109525654E+02  0.00000000000E+00 0. -1.
         11    1    3    3    0    0  0.17943066967E+02 -0.62383420933E+02 -0.30079551058E+01  0.64982248757E+02  0.00000000000E+00 0.  1.
</event>
<event>
 7    1  0.5831876E-006  0.1013936E+03  0.7561462E-02  0.1277392E+00
         -1   -1    0    0    0  501 -0.00000000000E+00  0.00000000000E+00  0.27005033277E+02  0.27005033277E+02  0.00000000000E+00 0.  1.
          1   -1    0    0  501    0  0.00000000000E+00 -0.00000000000E+00 -0.96265660391E+03  0.96265660391E+03  0.00000000000E+00 0. -1.
         23    2    1    2    0    0  0.55495891820E+02 -0.36169349599E+02 -0.13114690229E+03  0.17280076693E+03  0.90953720163E+02 0.  0.
          5    1    1    2  502    0 -0.55725581597E+02 -0.23139100739E+02 -0.18786129451E+03  0.19735778880E+03  0.41800000000E+01 0. -1.
         -5    1    1    2    0  502  0.22968977696E+00  0.59308450338E+02 -0.61664337383E+03  0.61950308145E+03  0.41800000000E+01 0. -1.
        -11    1    3    3    0    0  0.33504177693E+02 -0.47485539954E+02 -0.13572904251E+03  0.14764748358E+03  0.00000000000E+00 0. -1.
         11    1    3    3    0    0  0.21991714127E+02  0.11316190354E+02  0.45821402144E+01  0.25153283351E+02  0.00000000000E+00 0.  1.
</event>
<event>
 7    1  0.5831876E-006  0.1539173E+03  0.7561462E-02  0.1195740E+00
          1   -1    0    0  501    0  0.00000000000E+00  0.00000000000E+00  0.48706561577E+03  0.48706561577E+03  0.00000000000E+00 0. -1.
         -1   -1    0    0    0  501 -0.00000000000E+00 -0.00000000000E+00 -0.67980904396E+02  0.67980904396E+02  0.00000000000E+00 0.  1.
         23    2    1    2    0    0  0.83745245063E+02 -0.96091241766E+02  0.93804589402E+02  0.18393781807E+03  0.93739143943E+02 0.  0.
          5    1    1    2  502    0  0.14919372848E+02  0.43546960288E+02  0.29375257068E+02  0.54765897822E+02  0.41800000000E+01 0. -1.
         -5    1    1    2    0  502 -0.98664617911E+02  0.52544281479E+02  0.29590486490E+03  0.31634280427E+03  0.41800000000E+01 0. -1.
        -11    1    3    3    0    0  0.12226435298E+02 -0.73848513252E+02  0.17203714105E+02  0.76805314977E+02  0.00000000000E+00 0.  1.
         11    1    3    3    0    0  0.71518809765E+02 -0.22242728514E+02  0.76600875296E+02  0.10713250309E+03  0.00000000000E+00 0. -1.
</event>
<event>
 7    1  0.5831876E-006  0.1955312E+03  0.7561462E-02  0.1153565E+00
          2   -1    0    0  501    0  0.00000000000E+00  0.00000000000E+00  0.24044255659E+04  0.24044255659E+04  0.00000000000E+00 0. -1.
         -2   -1    0    0    0  501 -0.00000000000E+00 -0.00000000000E+00 -0.20281207161E+02  0.20281207161E+02  0.00000000000E+00 0.  1.
         23    2    1    2    0    0 -0.10740070452E+03 -0.14742077355E+03  0.82112862250E+03  0.84612058057E+03  0.91651657794E+02 0.  0.
          5    1    1    2  502    0  0.37688226250E+02  0.89567255279E+02  0.38540252625E+03  0.39748619505E+03  0.41800000000E+01 0. -1.
         -5    1    1    2    0  502  0.69712478272E+02  0.57853518275E+02  0.11776132100E+04  0.11810999975E+04  0.41800000000E+01 0. -1.
        -11    1    3    3    0    0 -0.15249788930E+02 -0.96756162645E+02  0.43826833635E+03  0.44908066728E+03  0.00000000000E+00 0. -1.
         11    1    3    3    0    0 -0.92150915592E+02 -0.50664610909E+02  0.38286028615E+03  0.39703991330E+03  0.00000000000E+00 0.  1.
</event>
<event>
 7    1  0.5831876E-006  0.1525959E+03  0.7561462E-02  0.1197319E+00
          2   -1    0    0  501    0  0.00000000000E+00  0.00000000000E+00  0.54952036203E+03  0.54952036203E+03  0.00000000000E+00 0. -1.
         -2   -1    0    0    0  501 -0.00000000000E+00 -0.00000000000E+00 -0.47878717936E+02  0.47878717936E+02  0.00000000000E+00 0.  1.
         23    2    1    2    0    0 -0.25688214901E+02 -0.10977437465E+03  0.29861139274E+03  0.33362061806E+03  0.97075512890E+02 0.  0.
          5    1    1    2  502    0 -0.15856487953E+02 -0.16729103457E+02  0.76659780078E+02  0.80159125459E+02  0.41800000000E+01 0. -1.
         -5    1    1    2    0  502  0.41544702854E+02  0.12650347811E+03  0.12637047127E+03  0.18361933645E+03  0.41800000000E+01 0. -1.
        -11    1    3    3    0    0 -0.13905568965E+02 -0.12695657114E+03  0.26278488225E+03  0.29217671047E+03  0.00000000000E+00 0.  1.
         11    1    3    3    0    0 -0.11782645935E+02  0.17182196494E+02  0.35826510496E+02  0.41443907586E+02  0.00000000000E+00 0. -1.
</event>
<event>
 7    1  0.5831876E-006  0.1154943E+03  0.7561462E-02  0.1250721E+00
          2   -1    0    0  501    0  0.00000000000E+00  0.00000000000E+00  0.14254961263E+04  0.14254961263E+04  0.00000000000E+00 0. -1.
         -2   -1    0    0    0  501 -0.00000000000E+00 -0.00000000000E+00 -0.13703615220E+02  0.13703615220E+02  0.00000000000E+00 0.  1.
         23    2    1    2    0    0 -0.18916103643E+02 -0.12825707738E+02  0.23185681106E+03  0.25016987801E+03  0.91132152795E+02 0.  0.
          5    1    1    2  502    0  0.16844280542E+02 -0.65615085361E+02  0.50746614865E+03  0.51198479825E+03  0.41800000000E+01 0. -1.
         -5    1    1    2    0  502  0.20718231012E+01  0.78440793098E+02  0.67246955140E+03  0.67704506529E+03  0.41800000000E+01 0.  1.
        -11    1    3    3    0    0 -0.38779929841E+02  0.21896812568E+02  0.17547761692E+03  0.18104073409E+03  0.00000000000E+00 0.  1.
         11    1    3    3    0    0  0.19863826198E+02 -0.34722520305E+02  0.56379194136E+02  0.69129143919E+02  0.00000000000E+00 0. -1.
</event>
<event>
 7    1  0.5831876E-006  0.1349363E+03  0.7561462E-02  0.1220310E+00
          1   -1    0    0  501    0  0.00000000000E+00  0.00000000000E+00  0.21506930780E+03  0.21506930780E+03  0.00000000000E+00 0. -1.
         -1   -1    0    0    0  501 -0.00000000000E+00 -0.00000000000E+00 -0.88247070711E+02  0.88247070711E+02  0.00000000000E+00 0.  1.
         23    2    1    2    0    0  0.70199523117E+02 -0.43045823934E+02  0.41671635018E+02  0.13104002792E+03  0.93027134468E+02 0.  0.
          5    1    1    2  502    0  0.26601985805E+02  0.44527965634E+02  0.38484979559E+02  0.64722263742E+02  0.41800000000E+01 0.  1.
         -5    1    1    2    0  502 -0.96801508922E+02 -0.14821416999E+01  0.46665622510E+02  0.10755408685E+03  0.41800000000E+01 0.  1.
        -11    1    3    3    0    0  0.64568531825E+02  0.11936330277E+02  0.37492370673E+02  0.75612493288E+02  0.00000000000E+00 0.  1.
         11    1    3    3    0    0  0.56309912927E+01 -0.54982154211E+02  0.41792643448E+01  0.55427534629E+02  0.00000000000E+00 0. -1.
</event>
<event>
 7    1  0.5831876E-006  0.6397145E+02  0.7561462E-02  0.1381883E+00
         -1   -1    0    0    0  501 -0.00000000000E+00  0.00000000000E+00  0.13716737420E+03  0.13716737420E+03  0.00000000000E+00 0.  1.
          1   -1    0    0  501    0  0.00000000000E+00 -0.00000000000E+00 -0.12039924830E+03  0.12039924830E+03  0.00000000000E+00 0. -1.
         23    2    1    2    0    0  0.36749597346E+02 -0.14164240100E+02  0.49328188263E+02  0.12243978406E+03  0.10491459365E+03 0.  0.
          5    1    1    2  502    0  0.23141150840E+02 -0.25864687778E+01 -0.61878199920E+02  0.66246409022E+02  0.41800000000E+01 0.  1.
         -5    1    1    2    0  502 -0.59890748186E+02  0.16750708878E+02  0.29318137563E+02  0.68880429415E+02  0.41800000000E+01 0.  1.
        -11    1    3    3    0    0  0.17624024872E+02 -0.14507948718E+02  0.81705273141E+02  0.84834182307E+02  0.00000000000E+00 0.  1.
         11    1    3    3    0    0  0.19125572474E+02  0.34370861798E+00 -0.32377084878E+02  0.37605601754E+02  0.00000000000E+00 0. -1.
</event>
<event>
 7    1  0.5831876E-006  0.1214192E+03  0.7561462E-02  0.1240774E+00
          3   -1    0    0  501    0  0.00000000000E+00  0.00000000000E+00  0.46110751248E+03  0.46110751248E+03  0.00000000000E+00 0. -1.
         -3   -1    0    0    0  501 -0.00000000000E+00 -0.00000000000E+00 -0.46618424599E+02  0.46618424599E+02  0.00000000000E+00 0.  1.
         23    2    1    2    0    0  0.85773525698E+02 -0.17341962507E+02  0.11268964261E+03  0.16951224455E+03  0.91529252834E+02 0.  0.
          5    1    1    2  502    0  0.16135341803E+02  0.21305659914E+01 -0.24332625385E+01  0.16978861361E+02  0.41800000000E+01 0. -1.
         -5    1    1    2    0  502 -0.10190886750E+03  0.15211396516E+02  0.30423270781E+03  0.32123483117E+03  0.41800000000E+01 0. -1.
        -11    1    3    3    0    0  0.62249040522E+02  0.30709014377E+02  0.83444959918E+02  0.10854053596E+03  0.00000000000E+00 0. -1.
         11    1    3    3    0    0  0.23524485176E+02 -0.48050976885E+02  0.29244682695E+02  0.60971708589E+02  0.00000000000E+00 0.  1.
</event>
<event>
 7    1  0.5831876E-006  0.1574840E+03  0.7561462E-02  0.1191567E+00
         -1   -1    0    0    0  501 -0.00000000000E+00  0.00000000000E+00  0.21846409419E+02  0.21846409419E+02  0.00000000000E+00 0.  1.
          1   -1    0    0  501    0  0.00000000000E+00 -0.00000000000E+00 -0.14982803471E+04  0.14982803471E+04  0.00000000000E+00 0. -1.
         23    2    1    2    0    0  0.12651147177E+03  0.33445189484E+02 -0.44142194698E+03  0.46940637660E+03  0.91461893315E+02 0.  0.
          5    1    1    2  502    0  0.15562102503E+02  0.22113483990E+02 -0.12092344390E+03  0.12398038915E+03  0.41800000000E+01 0.  1.
         -5    1    1    2    0  502 -0.14207357427E+03 -0.55558673475E+02 -0.91408854681E+03  0.92673999078E+03  0.41800000000E+01 0.  1.
        -11    1    3    3    0    0  0.25190502640E+02  0.21230966082E+02 -0.26974082338E+02  0.42578356732E+02  0.00000000000E+00 0. -1.
         11    1    3    3    0    0  0.10132096913E+03  0.12214223402E+02 -0.41444786464E+03  0.42682801986E+03  0.00000000000E+00 0.  1.
</event>
<event>
 7    1  0.5831876E-006  0.1211508E+03  0.7561462E-02  0.1241211E+00
          1   -1    0    0  501    0  0.00000000000E+00  0.00000000000E+00  0.47917381424E+02  0.47917381424E+02  0.00000000000E+00 0. -1.
         -1   -1    0    0    0  501 -0.00000000000E+00 -0.00000000000E+00 -0.33359688609E+03  0.33359688609E+03  0.00000000000E+00 0.  1.
         23    2    1    2    0    0  0.56594800607E+02  0.19533379016E+02 -0.17662736725E+03  0.20509417698E+03  0.85333874978E+02 0.  0.
          5    1    1    2  502    0  0.83844452362E+01 -0.60698255386E+02 -0.43385163699E+02  0.75195225633E+02  0.41800000000E+01 0. -1.
         -5    1    1    2    0  502 -0.64979245844E+02  0.41164876370E+02 -0.65666973722E+02  0.10122486490E+03  0.41800000000E+01 0. -1.
        -11    1    3    3    0    0 -0.51278260207E+01 -0.26411372824E+02 -0.53872610603E+02  0.60217218362E+02  0.00000000000E+00 0. -1.
         11    1    3    3    0    0  0.61722626628E+02  0.45944751839E+02 -0.12275475664E+03  0.14487695862E+03  0.00000000000E+00 0.  1.
</event>
<event>
 7    1  0.5831876E-006  0.8481820E+02  0.7561462E-02  0.1315909E+00
         -2   -1    0    0    0  501 -0.00000000000E+00  0.00000000000E+00  0.11786156888E+02  0.11786156888E+02  0.00000000000E+00 0.  1.
          2   -1    0    0  501    0  0.00000000000E+00 -0.00000000000E+00 -0.14355831754E+04  0.14355831754E+04  0.00000000000E+00 0. -1.
         23    2    1    2    0    0  0.27912705671E+02 -0.84447371328E+01 -0.26299717201E+03  0.27948471003E+03  0.89965315170E+02 0.  0.
          5    1    1    2  502    0  0.12182323800E+02 -0.28455264443E+02 -0.82720163467E+02  0.88420636345E+02  0.41800000000E+01 0. -1.
         -5    1    1    2    0  502 -0.40095029471E+02  0.36900001576E+02 -0.10780796831E+04  0.10794639859E+04  0.41800000000E+01 0. -1.
        -11    1    3    3    0    0  0.17043717964E+02 -0.43674929999E+02 -0.79282106872E+02  0.92106678925E+02  0.00000000000E+00 0.  1.
         11    1    3    3    0    0  0.10868987707E+02  0.35230192867E+02 -0.18371506514E+03  0.18737803111E+03  0.00000000000E+00 0. -1.
</event>
<event>
 7    1  0.5831876E-006  0.1002348E+03  0.7561462E-02  0.1279803E+00
          1   -1    0    0  501    0  0.00000000000E+00  0.00000000000E+00  0.59662135612E+02  0.59662135612E+02  0.00000000000E+00 0. -1.
         -1   -1    0    0    0  501 -0.00000000000E+00 -0.00000000000E+00 -0.27851090014E+03  0.27851090014E+03  0.00000000000E+00 0.  1.
         23    2    1    2    0    0 -0.82621840688E+01 -0.33732116695E+02 -0.18175071825E+03  0.20315308634E+03  0.83855432290E+02 0.  0.
          5    1    1    2  502    0 -0.44484851891E+02 -0.16262538828E+02  0.96349194221E+01  0.48514701784E+02  0.41800000000E+01 0. -1.
         -5    1    1    2    0  502  0.52747035960E+02  0.49994655523E+02 -0.46732965703E+02  0.86505247626E+02  0.41800000000E+01 0. -1.
        -11    1    3    3    0    0 -0.19096829527E+02  0.18615438544E+02 -0.21608438412E+02  0.34324161472E+02  0.00000000000E+00 0. -1.
         11    1    3    3    0    0  0.10834645458E+02 -0.52347555239E+02 -0.16014227984E+03  0.16882892487E+03  0.00000000000E+00 0.  1.
</event>
<event>
 7    1  0.5831876E-006  0.1416446E+03  0.7561462E-02  0.1211133E+00
         -1   -1    0    0    0  501 -0.00000000000E+00  0.00000000000E+00  0.23611205359E+02  0.23611205359E+02  0.00000000000E+00 0.  1.
          1   -1    0    0  501    0  0.00000000000E+00 -0.00000000000E+00 -0.91606307119E+03  0.91606307119E+03  0.00000000000E+00 0. -1.
         23    2    1    2    0    0  0.42071760521E+02 -0.81874781617E+02 -0.29080055389E+03  0.31830046256E+03  0.90976422346E+02 0.  0.
          5    1    1    2  502    0 -0.51190427551E+02  0.11143457300E+03 -0.44288757410E+03  0.45957045121E+03  0.41800000000E+01 0. -1.
         -5    1    1    2    0  502  0.91186670304E+01 -0.29559791381E+02 -0.15876373784E+03  0.16180336278E+03  0.41800000000E+01 0. -1.
        -11    1    3    3    0    0  0.25120456818E+02 -0.10084818058E+03 -0.23002215365E+03  0.25241153707E+03  0.00000000000E+00 0.  1.
         11    1    3    3    0    0  0.16951303703E+02  0.18973398968E+02 -0.60778400245E+02  0.65888925488E+02  0.00000000000E+00 0. -1.
</event>
<event>
 7    1  0.5831876E-006  0.1664639E+03  0.7561462E-02  0.1181586E+00
         -2   -1    0    0    0  501 -0.00000000000E+00  0.00000000000E+00  0.19781875814E+02  0.19781875814E+02  0.00000000000E+00 0.  1.
          2   -1    0    0  501    0  0.00000000000E+00 -0.00000000000E+00 -0.16044149563E+04  0.16044149563E+04  0.00000000000E+00 0. -1.
         23    2    1    2    0    0 -0.13222188883E+03 -0.59987252001E+01 -0.67104293813E+03  0.69007715542E+03  0.91592811000E+02 0.  0.
          5    1    1    2  502    0  0.41159232762E+01  0.39181947286E+02 -0.45718057424E+03  0.45889401356E+03  0.41800000000E+01 0. -1.
         -5    1    1    2    0  502  0.12810596555E+03 -0.33183222086E+02 -0.45640956816E+03  0.47522566318E+03  0.41800000000E+01 0.  1.
        -11    1    3    3    0    0 -0.44719165025E+02 -0.46477126307E+02 -0.27743822287E+03  0.28483661018E+03  0.00000000000E+00 0.  1.
         11    1    3    3    0    0 -0.87502723802E+02  0.40478401107E+02 -0.39360471526E+03  0.40524054524E+03  0.00000000000E+00 0. -1.
</event>
<event>
 7    1  0.5831876E-006  0.1046472E+03  0.7561462E-02  0.1270816E+00
          1   -1    0    0  501    0  0.00000000000E+00  0.00000000000E+00  0.90764046589E+03  0.90764046589E+03  0.00000000000E+00 0. -1.
         -1   -1    0    0    0  501 -0.00000000000E+00 -0.00000000000E+00 -0.23308598885E+02  0.23308598885E+02  0.00000000000E+00 0.  1.
         23    2    1    2    0    0 -0.80588435164E+02 -0.19582736410E+02  0.35938668458E+03  0.37992661679E+03  0.91145299619E+02 0.  0.
          5    1    1    2  502    0  0.61822732761E+02  0.54359523304E+01  0.52342131602E+03  0.52710430308E+03  0.41800000000E+01 0. -1.
         -5    1    1    2    0  502  0.18765702403E+02  0.14146784079E+02  0.15238663964E+01  0.23918144896E+02  0.41800000000E+01 0.  1.
        -11    1    3    3    0    0  0.36014648218E+01 -0.37062960879E+02  0.10685415847E+03  0.11315672671E+03  0.00000000000E+00 0. -1.
         11    1    3    3    0    0 -0.84189899986E+02  0.17480224469E+02  0.25253252611E+03  0.26676989008E+03  0.00000000000E+00 0.  1.
</event>
<event>
 7    1  0.5831876E-006  0.1532310E+03  0.7561462E-02  0.1196558E+00
         -2   -1    0    0    0  501 -0.00000000000E+00  0.00000000000E+00  0.33237826156E+02  0.33237826156E+02  0.00000000000E+00 0. -1.
          2   -1    0    0  501    0  0.00000000000E+00 -0.00000000000E+00 -0.84221336891E+03  0.84221336891E+03  0.00000000000E+00 0.  1.
         23    2    1    2    0    0 -0.91472966088E+02  0.88105777026E+02 -0.35894693093E+03  0.39140283426E+03  0.90682677345E+02 0.  0.
          5    1    1    2  502    0  0.10573574757E+00 -0.55484869784E+02 -0.58820586833E+02  0.80968609907E+02  0.41800000000E+01 0.  1.
         -5    1    1    2    0  502  0.91367230341E+02 -0.32620907242E+02 -0.39120802499E+03  0.40307975090E+03  0.41800000000E+01 0.  1.
        -11    1    3    3    0    0 -0.10770613629E+03  0.84952927819E+02 -0.33756013589E+03  0.36436857312E+03  0.00000000000E+00 0. -1.
         11    1    3    3    0    0  0.16233170201E+02  0.31528492071E+01 -0.21386795039E+02  0.27034261132E+02  0.00000000000E+00 0.  1.
</event>
<event>
 7    1  0.5831876E-006  0.1130803E+03  0.7561462E-02  0.1254970E+00
          3   -1    0    0  501    0  0.00000000000E+00  0.00000000000E+00  0.67067223335E+02  0.67067223335E+02  0.00000000000E+00 0. -1.
         -3   -1    0    0    0  501 -0.00000000000E+00 -0.00000000000E+00 -0.33845124837E+03  0.33845124837E+03  0.00000000000E+00 0.  1.
         23    2    1    2    0    0 -0.65191171370E+02  0.72098213639E+02 -0.17557124972E+03  0.22038168194E+03  0.91075687033E+02 0.  0.
          5    1    1    2  502    0 -0.13641306478E+02  0.27758783535E+01  0.20975660758E+02  0.25519433523E+02  0.41800000000E+01 0. -1.
         -5    1    1    2    0  502  0.78832477849E+02 -0.74874091993E+02 -0.11678843607E+03  0.15961735625E+03  0.41800000000E+01 0. -1.
        -11    1    3    3    0    0 -0.48493376643E+02  0.28763768714E+02 -0.16269753751E+03  0.17219015849E+03  0.00000000000E+00 0.  1.
         11    1    3    3    0    0 -0.16697794727E+02  0.43334444925E+02 -0.12873712212E+02  0.48191523443E+02  0.00000000000E+00 0. -1.
</event>
<event>
 7    1  0.5831876E-006  0.8843309E+02  0.7561462E-02  0.1306691E+00
          1   -1    0    0  501    0  0.00000000000E+00  0.00000000000E+00  0.52254502931E+02  0.52254502931E+02  0.00000000000E+00 0. -1.
         -1   -1    0    0    0  501 -0.00000000000E+00 -0.00000000000E+00 -0.26704184037E+03  0.26704184037E+03  0.00000000000E+00 0.  1.
         23    2    1    2    0    0 -0.19537317788E+02 -0.17822572373E+02 -0.15292540659E+03  0.17726629432E+03  0.85661007744E+02 0.  0.
          5    1    1    2  502    0 -0.14169289161E+02  0.49123938202E+02  0.14035758006E+02  0.53182750611E+02  0.41800000000E+01 0. -1.
         -5    1    1    2    0  502  0.33706606949E+02 -0.31301365829E+02 -0.75897688861E+02  0.88847298379E+02  0.41800000000E+01 0. -1.
        -11    1    3    3    0    0  0.27464609474E+02  0.36497140931E+01 -0.18669764045E+02  0.33409359108E+02  0.00000000000E+00 0. -1.
         11    1    3    3    0    0 -0.47001927262E+02 -0.21472286466E+02 -0.13425564254E+03  0.14385693521E+03  0.00000000000E+00 0.  1.
</event>
<event>
 7    1  0.5831876E-006  0.1080052E+03  0.7561462E-02  0.1264309E+00
          2   -1    0    0  501    0  0.00000000000E+00  0.00000000000E+00  0.11327112138E+03  0.11327112138E+03  0.00000000000E+00 0. -1.
         -2   -1    0    0    0  501 -0.00000000000E+00 -0.00000000000E+00 -0.16495228947E+03  0.16495228947E+03  0.00000000000E+00 0.  1.
         23    2    1    2    0    0 -0.43054267287E+02 -0.33380991867E+02 -0.84625718999E+02  0.13786508000E+03  0.94219464115E+02 0.  0.
          5    1    1    2  502    0 -0.68644935171E+01  0.61118160676E+02 -0.17464861680E+02  0.64070622201E+02  0.41800000000E+01 0. -1.
         -5    1    1    2    0  502  0.49918760804E+02 -0.27737168809E+02  0.50409412592E+02  0.76287708654E+02  0.41800000000E+01 0. -1.
        -11    1    3    3    0    0  0.18089997193E+02  0.11341939812E+02 -0.50403015444E+02  0.54738940097E+02  0.00000000000E+00 0.  1.
         11    1    3    3    0    0 -0.61144264480E+02 -0.44722931680E+02 -0.34222703556E+02  0.83126139905E+02  0.00000000000E+00 0. -1.
</event>
<event>
 7    1  0.5831876E-006  0.1182592E+03  0.7561462E-02  0.1245997E+00
         -2   -1    0    0    0  501 -0.00000000000E+00  0.00000000000E+00  0.91805372692E+03  0.91805372692E+03  0.00000000000E+00 0.  1.
          2   -1    0    0  501    0  0.00000000000E+00 -0.00000000000E+00 -0.15916130140E+02  0.15916130140E+02  0.00000000000E+00 0. -1.
         23    2    1    2    0    0  0.43286783350E+02 -0.24301198021E+02  0.41579116429E+03  0.42934358685E+03  0.94812074298E+02 0.  0.
          5    1    1    2  502    0  0.41765533573E+02  0.24406604116E+02  0.20522985247E+03  0.21089525093E+03  0.41800000000E+01 0. -1.
         -5    1    1    2    0  502 -0.85052316922E+02 -0.10540609530E+00  0.28111658003E+03  0.29373101929E+03  0.41800000000E+01 0. -1.
        -11    1    3    3    0    0  0.69030665606E+02 -0.25025584569E+01  0.33013824704E+03  0.33728735190E+03  0.00000000000E+00 0.  1.
         11    1    3    3    0    0 -0.25743882256E+02 -0.21798639564E+02  0.85652917248E+02  0.92056234952E+02  0.00000000000E+00 0. -1.
</event>
<event>
 7    1  0.5831876E-006  0.1702188E+03  0.7561462E-02  0.1177620E+00
          2   -1    0    0  501    0  0.00000000000E+00  0.00000000000E+00  0.12924294000E+03  0.12924294000E+03  0.00000000000E+00 0. -1.
         -2   -1    0    0    0  501 -0.00000000000E+00 -0.00000000000E+00 -0.25577726292E+03  0.25577726292E+03  0.00000000000E+00 0.  1.
         23    2    1    2    0    0 -0.13413215225E+03  0.14553482162E+01 -0.11958819774E+03  0.20147639324E+03  0.91092522702E+02 0.  0.
          5    1    1    2  502    0  0.99750882996E+02 -0.55667933445E+02  0.15614760537E+02  0.11537092623E+03  0.41800000000E+01 0. -1.
         -5    1    1    2    0  502  0.34381269251E+02  0.54212585229E+02 -0.22560885718E+02  0.68172883442E+02  0.41800000000E+01 0. -1.
        -11    1    3    3    0    0 -0.10307487690E+03  0.41503709656E+02 -0.88168412058E+02  0.14184730187E+03  0.00000000000E+00 0.  1.
         11    1    3    3    0    0 -0.31057275346E+02 -0.40048361440E+02 -0.31419785678E+02  0.59629091373E+02  0.00000000000E+00 0. -1.
</event>
<event>
 7    1  0.5831876E-006  0.1229958E+03  0.7561462E-02  0.1238235E+00
          2   -1    0    0  501    0  0.00000000000E+00  0.00000000000E+00  0.47755301856E+03  0.47755301856E+03  0.00000000000E+00 0. -1.
         -2   -1    0    0    0  501 -0.00000000000E+00 -0.00000000000E+00 -0.44916278458E+02  0.44916278458E+02  0.00000000000E+00 0.  1.
         23    2    1    2    0    0  0.52313114929E+02  0.58239450754E+02  0.92482005771E+02  0.15168455419E+03  0.91251229975E+02 0.  0.
          5    1    1    2  502    0 -0.70798608704E+02  0.11068828725E+02  0.12747428396E+03  0.14629465963E+03  0.41800000000E+01 0. -1.
         -5    1    1    2    0  502  0.18485493774E+02 -0.69308279479E+02  0.21268045037E+03  0.22449008320E+03  0.41800000000E+01 0. -1.
        -11    1    3    3    0    0  0.12422501132E+02  0.61114572469E+02  0.92657239821E+02  0.11169007831E+03  0.00000000000E+00 0. -1.
         11    1    3    3    0    0  0.39890613797E+02 -0.28751217152E+01 -0.17523405001E+00  0.39994475881E+02  0.00000000000E+00 0.  1.
</event>
<event>
 7    1  0.5831876E-006  0.2351221E+03  0.7561462E-02  0.1123086E+00
          1   -1    0    0  501    0  0.00000000000E+00  0.00000000000E+00  0.46543624272E+03  0.46543624272E+03  0.00000000000E+00 0. -1.
         -1   -1    0    0    0  501 -0.00000000000E+00 -0.00000000000E+00 -0.14732583057E+03  0.14732583057E+03  0.00000000000E+00 0.  1.
         23    2    1    2    0    0 -0.20974750809E+03 -0.17071111687E+02  0.24650296944E+02  0.23059722908E+03  0.91005521337E+02 0.  0.
          5    1    1    2  502    0  0.16220173337E+03 -0.42417605959E+02  0.18675952895E+03  0.25100846530E+03  0.41800000000E+01 0. -1.
         -5    1    1    2    0  502  0.47545774727E+02  0.59488717646E+02  0.10670058625E+03  0.13115637891E+03  0.41800000000E+01 0. -1.
        -11    1    3    3    0    0 -0.12133295698E+03  0.31545968766E+02  0.32136404764E+02  0.12942018044E+03  0.00000000000E+00 0.  1.
         11    1    3    3    0    0 -0.88414551113E+02 -0.48617080453E+02 -0.74861078192E+01  0.10117704863E+03  0.00000000000E+00 0. -1.
</event>
<event>
 7    1  0.5831876E-006  0.1281336E+03  0.7561462E-02  0.1230252E+00
          1   -1    0    0  501    0  0.00000000000E+00  0.00000000000E+00  0.60386879778E+03  0.60386879778E+03  0.00000000000E+00 0. -1.
         -1   -1    0    0    0  501 -0.00000000000E+00 -0.00000000000E+00 -0.40851279644E+02  0.40851279644E+02  0.00000000000E+00 0.  1.
         23    2    1    2    0    0  0.55171151792E+02 -0.88348640699E+02  0.35242981226E+03  0.37855394550E+03  0.90812877814E+02 0.  0.
          5    1    1    2  502    0 -0.73971298177E+02  0.86804362122E+02  0.93612378257E+02  0.14760589419E+03  0.41800000000E+01 0. -1.
         -5    1    1    2    0  502  0.18800146386E+02  0.15442785764E+01  0.11697532762E+03  0.11856023773E+03  0.41800000000E+01 0. -1.
        -11    1    3    3    0    0 -0.13006425843E+02 -0.25838839723E+01  0.48571651525E+01  0.14122167784E+02  0.00000000000E+00 0.  1.
         11    1    3    3    0    0  0.68177577635E+02 -0.85764756726E+02  0.34757264711E+03  0.36443177772E+03  0.00000000000E+00 0. -1.
</event>
<event>
 7    1  0.5831876E-006  0.1606133E+03  0.7561462E-02  0.1188006E+00
          1   -1    0    0  501    0  0.00000000000E+00  0.00000000000E+00  0.11150036986E+03  0.11150036986E+03  0.00000000000E+00 0. -1.
         -1   -1    0    0    0  501 -0.00000000000E+00 -0.00000000000E+00 -0.26560695173E+03  0.26560695173E+03  0.00000000000E+00 0.  1.
         23    2    1    2    0    0 -0.65262852112E+02  0.10934584617E+03 -0.11016256347E+03  0.19327718788E+03  0.94892186321E+02 0.  0.
          5    1    1    2  502    0  0.87259386867E+02 -0.11433166245E+03 -0.11839785234E+02  0.14437306726E+03  0.41800000000E+01 0. -1.
         -5    1    1    2    0  502 -0.21996534755E+02  0.49858162767E+01 -0.32104233171E+02  0.39457066447E+02  0.41800000000E+01 0. -1.
        -11    1    3    3    0    0 -0.84907324398E+02  0.68562016798E+02 -0.97318173554E+02  0.14622185469E+03  0.00000000000E+00 0.  1.
         11    1    3    3    0    0  0.19644472286E+02  0.40783829376E+02 -0.12844389912E+02  0.47055333196E+02  0.00000000000E+00 0. -1.
</event>
<event>
 7    1  0.5831876E-006  0.7155765E+02  0.7561462E-02  0.1354875E+00
          4   -1    0    0  501    0  0.00000000000E+00  0.00000000000E+00  0.10088024692E+03  0.10088024692E+03  0.00000000000E+00 0. -1.
         -4   -1    0    0    0  501 -0.00000000000E+00 -0.00000000000E+00 -0.12721791817E+03  0.12721791817E+03  0.00000000000E+00 0.  1.
         23    2    1    2    0    0 -0.30328058891E+02  0.60205086350E+01 -0.25386898945E+02  0.99241167574E+02  0.90820025452E+02 0.  0.
          5    1    1    2  502    0 -0.93127474726E+01  0.34821778675E+02  0.43406350352E+02  0.56576206894E+02  0.41800000000E+01 0.  1.
         -5    1    1    2    0  502  0.39640806364E+02 -0.40842287310E+02 -0.44357122656E+02  0.72280790617E+02  0.41800000000E+01 0.  1.
        -11    1    3    3    0    0  0.10383491858E+01  0.16617778626E+02  0.30232072070E+02  0.34513865578E+02  0.00000000000E+00 0. -1.
         11    1    3    3    0    0 -0.31366408077E+02 -0.10597269991E+02 -0.55618971015E+02  0.64727301996E+02  0.00000000000E+00 0.  1.
</event>
<event>
 7    1  0.5831876E-006  0.1602530E+03  0.7561462E-02  0.1188411E+00
          2   -1    0    0  501    0  0.00000000000E+00  0.00000000000E+00  0.42637370314E+03  0.42637370314E+03  0.00000000000E+00 0. -1.
         -2   -1    0    0    0  501 -0.00000000000E+00 -0.00000000000E+00 -0.12520285359E+03  0.12520285359E+03  0.00000000000E+00 0.  1.
         23    2    1    2    0    0  0.32134088911E+02  0.14055640447E+03  0.25939059904E+01  0.17083818248E+03  0.91598328245E+02 0.  0.
          5    1    1    2  502    0  0.34942290916E+01 -0.92567802383E+02  0.30657566753E+03  0.32029224155E+03  0.41800000000E+01 0. -1.
         -5    1    1    2    0  502 -0.35628318003E+02 -0.47988602084E+02 -0.79987239703E+01  0.60446132704E+02  0.41800000000E+01 0.  1.
        -11    1    3    3    0    0  0.59800661037E+02  0.69936940059E+02 -0.14330983323E+02  0.93127180394E+02  0.00000000000E+00 0.  1.
         11    1    3    3    0    0 -0.27666572126E+02  0.70619464409E+02  0.16924889314E+02  0.77711002084E+02  0.00000000000E+00 0. -1.
</event>
<event>
 7    1  0.5831876E-006  0.1598209E+03  0.7561462E-02  0.1188899E+00
         -4   -1    0    0    0  501 -0.00000000000E+00  0.00000000000E+00  0.14014232971E+03  0.14014232971E+03  0.00000000000E+00 0.  1.
          4   -1    0    0  501    0  0.00000000000E+00 -0.00000000000E+00 -0.22470788857E+03  0.22470788857E+03  0.00000000000E+00 0. -1.
         23    2    1    2    0    0  0.12520446530E+03 -0.11091008239E+02 -0.55554078522E+02  0.16867974867E+03  0.97813257673E+02 0.  0.
          5    1    1    2  502    0  0.16846255937E+02 -0.57691819955E+01 -0.48412504834E+02  0.51752515149E+02  0.41800000000E+01 0. -1.
         -5    1    1    2    0  502 -0.14205072124E+03  0.16860190234E+02  0.19401024495E+02  0.14441795446E+03  0.41800000000E+01 0.  1.
        -11    1    3    3    0    0  0.10671494074E+03 -0.47960056268E+02 -0.32492768759E+02  0.12142497929E+03  0.00000000000E+00 0.  1.
         11    1    3    3    0    0  0.18489524557E+02  0.36869048029E+02 -0.23061309763E+02  0.47254769377E+02  0.00000000000E+00 0. -1.
</event>
<event>
 7    1  0.5831876E-006  0.9651614E+02  0.7561462E-02  0.1287797E+00
          1   -1    0    0  501    0  0.00000000000E+00  0.00000000000E+00  0.18859848249E+03  0.18859848249E+03  0.00000000000E+00 0. -1.
         -1   -1    0    0    0  501 -0.00000000000E+00 -0.00000000000E+00 -0.73832470391E+02  0.73832470391E+02  0.00000000000E+00 0.  1.
         23    2    1    2    0    0  0.39143094493E+02 -0.10289790042E+02  0.13929761001E+02  0.96740450440E+02  0.86756065403E+02 0.  0.
          5    1    1    2  502    0 -0.62147820599E+01 -0.49577603964E+02  0.86699028689E+01  0.50884201346E+02  0.41800000000E+01 0. -1.
         -5    1    1    2    0  502 -0.32928312433E+02  0.59867394006E+02  0.92166348226E+02  0.11480630109E+03  0.41800000000E+01 0. -1.
        -11    1    3    3    0    0 -0.15397141223E+02 -0.12532027665E+02  0.33342284889E+02  0.38805046538E+02  0.00000000000E+00 0. -1.
         11    1    3    3    0    0  0.54540235716E+02  0.22422376236E+01 -0.19412523888E+02  0.57935403901E+02  0.00000000000E+00 0.  1.
</event>
<event>
 7    1  0.5831876E-006  0.7582921E+02  0.7561462E-02  0.1341322E+00
         -2   -1    0    0    0  501 -0.00000000000E+00  0.00000000000E+00  0.31822481854E+02  0.31822481854E+02  0.00000000000E+00 0.  1.
          2   -1    0    0  501    0  0.00000000000E+00 -0.00000000000E+00 -0.51543946717E+03  0.51543946717E+03  0.00000000000E+00 0. -1.
         23    2    1    2    0    0 -0.58581146223E+02  0.29321030122E+02 -0.23355782308E+03  0.26008827869E+03  0.93835933881E+02 0.  0.
          5    1    1    2  502    0 -0.37572103999E+01  0.62702406122E+01  0.12430237592E+02  0.15013852068E+02  0.41800000000E+01 0.  1.
         -5    1    1    2    0  502  0.62338356623E+02 -0.35591270734E+02 -0.26248939983E+03  0.27215981827E+03  0.41800000000E+01 0.  1.
        -11    1    3    3    0    0 -0.21194340449E+02  0.26367932851E+02 -0.12804793879E+02  0.36172236538E+02  0.00000000000E+00 0.  1.
         11    1    3    3    0    0 -0.37386805774E+02  0.29530972715E+01 -0.22075302920E+03  0.22391604215E+03  0.00000000000E+00 0. -1.
</event>
<event>
 7    1  0.5831876E-006  0.8014802E+02  0.7561462E-02  0.1328632E+00
         -3   -1    0    0    0  501 -0.00000000000E+00  0.00000000000E+00  0.90684765635E+02  0.90684765635E+02  0.00000000000E+00 0.  1.
          3   -1    0    0  501    0  0.00000000000E+00 -0.00000000000E+00 -0.17737737183E+03  0.17737737183E+03  0.00000000000E+00 0. -1.
         23    2    1    2    0    0  0.10752276608E+02  0.47379017924E+01  0.32196533207E+02  0.95086317006E+02  0.88694598289E+02 0.  0.
          5    1    1    2  502    0  0.26609514750E+02  0.39041363945E+02 -0.10257074509E+03  0.11300674547E+03  0.41800000000E+01 0.  1.
         -5    1    1    2    0  502 -0.37361791358E+02 -0.43779265737E+02 -0.16318394313E+02  0.59969074988E+02  0.41800000000E+01 0.  1.
        -11    1    3    3    0    0 -0.72651278003E+01  0.26169493996E+02  0.53436718566E+02  0.59942534056E+02  0.00000000000E+00 0.  1.
         11    1    3    3    0    0  0.18017404408E+02 -0.21431592204E+02 -0.21240185359E+02  0.35143782950E+02  0.00000000000E+00 0. -1.
</event>
<event>
 7    1  0.5831876E-006  0.1517251E+03  0.7561462E-02  0.1198369E+00
         -3   -1    0    0    0  501 -0.00000000000E+00  0.00000000000E+00  0.14691927934E+03  0.14691927934E+03  0.00000000000E+00 0.  1.
          3   -1    0    0  501    0  0.00000000000E+00 -0.00000000000E+00 -0.18918238505E+03  0.18918238505E+03  0.00000000000E+00 0. -1.
         23    2    1    2    0    0  0.77133636307E+02 -0.97391116331E+02 -0.53592207399E+01  0.15598025429E+03  0.94162046987E+02 0.  0.
          5    1    1    2  502    0 -0.28975004726E+02  0.97144901435E+02  0.22104922778E+02  0.10384017905E+03  0.41800000000E+01 0. -1.
         -5    1    1    2    0  502 -0.48158631581E+02  0.24621489621E+00 -0.59008807750E+02  0.76281231045E+02  0.41800000000E+01 0. -1.
        -11    1    3    3    0    0  0.96546625725E+02 -0.66742806532E+02 -0.15300341303E+02  0.11836364985E+03  0.00000000000E+00 0. -1.
         11    1    3    3    0    0 -0.19412989418E+02 -0.30648309799E+02  0.99411205635E+01  0.37616604442E+02  0.00000000000E+00 0.  1.
</event>
<event>
 7    1  0.5831876E-006  0.1255688E+03  0.7561462E-02  0.1234183E+00
         -1   -1    0    0    0  501 -0.00000000000E+00  0.00000000000E+00  0.34975003669E+02  0.34975003669E+02  0.00000000000E+00 0. -1.
          1   -1    0    0  501    0  0.00000000000E+00 -0.00000000000E+00 -0.48985896372E+03  0.48985896372E+03  0.00000000000E+00 0.  1.
         23    2    1    2    0    0  0.82543081192E+02  0.12883756671E+02 -0.18027323107E+03  0.21172318879E+03  0.73136306935E+02 0.  0.
          5    1    1    2  502    0  0.21241578373E+02  0.22364347094E+02 -0.23221196586E+02  0.38833813148E+02  0.41800000000E+01 0.  1.
         -5    1    1    2    0  502 -0.10378465956E+03 -0.35248103765E+02 -0.25138953239E+03  0.27427696545E+03  0.41800000000E+01 0.  1.
        -11    1    3    3    0    0  0.34097314890E+02  0.41770720376E+02 -0.76200995532E+02  0.93348870820E+02  0.00000000000E+00 0. -1.
         11    1    3    3    0    0  0.48445766302E+02 -0.28886963705E+02 -0.10407223554E+03  0.11837431797E+03  0.00000000000E+00 0.  1.
</event>
<event>
 7    1  0.5831876E-006  0.1044838E+03  0.7561462E-02  0.1271140E+00
         -2   -1    0    0    0  501 -0.00000000000E+00  0.00000000000E+00  0.51959551915E+02  0.51959551915E+02  0.00000000000E+00 0.  1.
          2   -1    0    0  501    0  0.00000000000E+00 -0.00000000000E+00 -0.65011629921E+03  0.65011629921E+03  0.00000000000E+00 0. -1.
         23    2    1    2    0    0  0.52345865499E+02  0.56610806853E+02 -0.43666494722E+02  0.12844662396E+03  0.92988705537E+02 0.  0.
          5    1    1    2  502    0  0.18124123809E+02  0.50500110423E+01 -0.11155490476E+02  0.22268898561E+02  0.41800000000E+01 0. -1.
         -5    1    1    2    0  502 -0.70469989308E+02 -0.61660817895E+02 -0.54333476210E+03  0.55136032861E+03  0.41800000000E+01 0. -1.
        -11    1    3    3    0    0  0.23173873054E+02  0.62096598231E+02 -0.64262007386E+02  0.92318045351E+02  0.00000000000E+00 0. -1.
         11    1    3    3    0    0  0.29171992445E+02 -0.54857913781E+01  0.20595512664E+02  0.36128578607E+02  0.00000000000E+00 0.  1.
</event>
<event>
 7    1  0.5831876E-006  0.3264394E+03  0.7561462E-02  0.1072723E+00
          2   -1    0    0  501    0  0.00000000000E+00  0.00000000000E+00  0.13146519039E+04  0.13146519039E+04  0.00000000000E+00 0. -1.
         -2   -1    0    0    0  501 -0.00000000000E+00 -0.00000000000E+00 -0.11730931244E+03  0.11730931244E+03  0.00000000000E+00 0.  1.
         23    2    1    2    0    0 -0.28021193503E+03  0.14621087209E+03  0.23398322826E+03  0.41039127715E+03  0.11737334281E+03 0.  0.
          5    1    1    2  502    0  0.14253172111E+03 -0.13771597709E+03  0.63981853463E+03  0.66982550826E+03  0.41800000000E+01 0.  1.
         -5    1    1    2    0  502  0.13768021391E+03 -0.84948949984E+01  0.32354082854E+03  0.35174443091E+03  0.41800000000E+01 0.  1.
        -11    1    3    3    0    0 -0.22191785823E+03  0.12430857620E+03  0.12165794647E+03  0.28195888682E+03  0.00000000000E+00 0.  1.
         11    1    3    3    0    0 -0.58294076798E+02  0.21902295888E+02  0.11232528179E+03  0.12843239033E+03  0.00000000000E+00 0. -1.
</event>
<event>
 7    1  0.5831876E-006  0.1356537E+03  0.7561462E-02  0.1219300E+00
         -2   -1    0    0    0  501 -0.00000000000E+00  0.00000000000E+00  0.10671955710E+03  0.10671955710E+03  0.00000000000E+00 0.  1.
          2   -1    0    0  501    0  0.00000000000E+00 -0.00000000000E+00 -0.26604896067E+03  0.26604896067E+03  0.00000000000E+00 0. -1.
         23    2    1    2    0    0  0.79327019836E+02 -0.62322464024E+02  0.19662228788E+02  0.13221847394E+03  0.83176054316E+02 0.  0.
          5    1    1    2  502    0  0.23278702407E+02  0.10238873643E+02 -0.93910378510E+02  0.97382565745E+02  0.41800000000E+01 0. -1.
         -5    1    1    2    0  502 -0.10260572224E+03  0.52083590381E+02 -0.85081253849E+02  0.14316747808E+03  0.41800000000E+01 0. -1.
        -11    1    3    3    0    0  0.37970981953E+02  0.16482424783E+02  0.10807881655E+02  0.42781726276E+02  0.00000000000E+00 0.  1.
         11    1    3    3    0    0  0.41356037883E+02 -0.78804888807E+02  0.88543471322E+01  0.89436747663E+02  0.00000000000E+00 0. -1.
</event>
<event>
 7    1  0.5831876E-006  0.1325295E+03  0.7561462E-02  0.1223750E+00
         -2   -1    0    0    0  501 -0.00000000000E+00  0.00000000000E+00  0.57623424401E+03  0.57623424401E+03  0.00000000000E+00 0.  1.
          2   -1    0    0  501    0  0.00000000000E+00 -0.00000000000E+00 -0.35092754761E+02  0.35092754761E+02  0.00000000000E+00 0. -1.
         23    2    1    2    0    0 -0.61115483645E+02  0.56519218655E+02  0.33234675902E+03  0.35406769808E+03  0.89331081766E+02 0.  0.
          5    1    1    2  502    0  0.12897935823E+02  0.37350754490E+02  0.30736496437E+02  0.50235845994E+02  0.41800000000E+01 0.  1.
         -5    1    1    2    0  502  0.48217547821E+02 -0.93869973145E+02  0.17805823378E+03  0.20702345470E+03  0.41800000000E+01 0.  1.
        -11    1    3    3    0    0 -0.19222540546E+02  0.72400572190E+02  0.17253832589E+03  0.18809790753E+03  0.00000000000E+00 0.  1.
         11    1    3    3    0    0 -0.41892943099E+02 -0.15881353535E+02  0.15980843314E+03  0.16596979055E+03  0.00000000000E+00 0. -1.
</event>
<event>
 7    1  0.5831876E-006  0.6977582E+02  0.7561462E-02  0.1360857E+00
         -2   -1    0    0    0  501 -0.00000000000E+00  0.00000000000E+00  0.12917983364E+02  0.12917983364E+02  0.00000000000E+00 0.  1.
          2   -1    0    0  501    0  0.00000000000E+00 -0.00000000000E+00 -0.14975082999E+04  0.14975082999E+04  0.00000000000E+00 0. -1.
         23    2    1    2    0    0  0.30312254442E+02 -0.84215610868E+01 -0.21964424990E+03  0.23964402209E+03  0.90531239634E+02 0.  0.
          5    1    1    2  502    0  0.60348387178E+01  0.17374040877E+02 -0.11429106876E+04  0.11430663099E+04  0.41800000000E+01 0. -1.
         -5    1    1    2    0  502 -0.36347093159E+02 -0.89524797902E+01 -0.12203537905E+03  0.12771595130E+03  0.41800000000E+01 0.  1.
        -11    1    3    3    0    0  0.55661747156E+02 -0.13254751524E+02 -0.19755756344E+03  0.20567671090E+03  0.00000000000E+00 0.  1.
         11    1    3    3    0    0 -0.25349492715E+02  0.48331904373E+01 -0.22086686456E+02  0.33967311188E+02  0.00000000000E+00 0. -1.
</event>
<event>
 7    1  0.5831876E-006  0.1052102E+03  0.7561462E-02  0.1269706E+00
         -2   -1    0    0    0  501 -0.00000000000E+00  0.00000000000E+00  0.23071851431E+02  0.23071851431E+02  0.00000000000E+00 0.  1.
          2   -1    0    0  501    0  0.00000000000E+00 -0.00000000000E+00 -0.70212980598E+03  0.70212980598E+03  0.00000000000E+00 0. -1.
         23    2    1    2    0    0 -0.38279468196E+02 -0.39523518849E+02 -0.20089930813E+03  0.22789887166E+03  0.92465871910E+02 0.  0.
          5    1    1    2  502    0 -0.31978738757E+02 -0.18625843357E+02 -0.72602023776E+02  0.81597107974E+02  0.41800000000E+01 0. -1.
         -5    1    1    2    0  502  0.70258206954E+02  0.58149362205E+02 -0.40555662265E+03  0.41570567778E+03  0.41800000000E+01 0. -1.
        -11    1    3    3    0    0 -0.53883648608E+02 -0.38536424095E+02 -0.20164273331E+03  0.21224583734E+03  0.00000000000E+00 0. -1.
         11    1    3    3    0    0  0.15604180411E+02 -0.98709475323E+00  0.74342518441E+00  0.15653034318E+02  0.00000000000E+00 0.  1.
</event>
<event>
 7    1  0.5831876E-006  0.1053138E+03  0.7561462E-02  0.1269503E+00
          2   -1    0    0  501    0  0.00000000000E+00  0.00000000000E+00  0.88186338520E+03  0.88186338520E+03  0.00000000000E+00 0. -1.
         -2   -1    0    0    0  501 -0.00000000000E+00 -0.00000000000E+00 -0.20797954164E+02  0.20797954164E+02  0.00000000000E+00 0.  1.
         23    2    1    2    0    0 -0.51928781582E+02 -0.62992215372E+02  0.38498844000E+03  0.40369776778E+03  0.89950937861E+02 0.  0.
          5    1    1    2  502    0  0.49735355279E+02  0.67745609082E+02  0.14373582889E+03  0.16655489792E+03  0.41800000000E+01 0.  1.
         -5    1    1    2    0  502  0.21934263029E+01 -0.47533937096E+01  0.33234116215E+03  0.33240867367E+03  0.41800000000E+01 0.  1.
        -11    1    3    3    0    0 -0.22250165046E+02  0.21064827787E+02  0.71663836260E+02  0.77939093155E+02  0.00000000000E+00 0. -1.
         11    1    3    3    0    0 -0.29678616536E+02 -0.84057043159E+02  0.31332460374E+03  0.32575867462E+03  0.00000000000E+00 0.  1.
</event>
<event>
 7    1  0.5831876E-006  0.9189052E+02  0.7561462E-02  0.1298337E+00
         -2   -1    0    0    0  501 -0.00000000000E+00  0.00000000000E+00  0.49047059607E+02  0.49047059607E+02  0.00000000000E+00 0.  1.
          2   -1    0    0  501    0  0.00000000000E+00 -0.00000000000E+00 -0.26737586592E+03  0.26737586592E+03  0.00000000000E+00 0. -1.
         23    2    1    2    0    0  0.10340987721E+00 -0.28262184967E+02 -0.60729618296E+02  0.11323802642E+03  0.91301710260E+02 0.  0.
          5    1    1    2  502    0 -0.15420879259E+02 -0.26811430310E+02 -0.13969167506E+03  0.14313592419E+03  0.41800000000E+01 0.  1.
         -5    1    1    2    0  502  0.15317469382E+02  0.55073615277E+02 -0.17907512952E+02  0.60048974913E+02  0.41800000000E+01 0.  1.
        -11    1    3    3    0    0  0.43099838497E+02 -0.29517360421E+02 -0.28658888863E+02  0.59583576224E+02  0.00000000000E+00 0.  1.
         11    1    3    3    0    0 -0.42996428620E+02  0.12551754545E+01 -0.32070729433E+02  0.53654450196E+02  0.00000000000E+00 0. -1.
</event>
<event>
 7    1  0.5831876E-006  0.1405850E+03  0.7561462E-02  0.1212544E+00
         -1   -1    0    0    0  501 -0.00000000000E+00  0.00000000000E+00  0.25102607322E+02  0.25102607322E+02  0.00000000000E+00 0.  1.
          1   -1    0    0  501    0  0.00000000000E+00 -0.00000000000E+00 -0.10881963222E+04  0.10881963222E+04  0.00000000000E+00 0. -1.
         23    2    1    2    0    0  0.79229587147E+02  0.71085927256E+02 -0.28701081242E+03  0.32002365189E+03  0.93324138303E+02 0.  0.
          5    1    1    2  502    0 -0.12947897292E+02  0.27039164351E+02 -0.57416580407E+02  0.64906860645E+02  0.41800000000E+01 0.  1.
         -5    1    1    2    0  502 -0.66281689855E+02 -0.98125091607E+02 -0.71866632200E+03  0.72836841694E+03  0.41800000000E+01 0.  1.
        -11    1    3    3    0    0  0.19448042379E+02  0.69968629160E+02 -0.21202911655E+03  0.22412090863E+03  0.00000000000E+00 0.  1.
         11    1    3    3    0    0  0.59781544768E+02  0.11172980951E+01 -0.74981695873E+02  0.95902743266E+02  0.00000000000E+00 0. -1.
</event>
<event>
 7    1  0.5831876E-006  0.1173033E+03  0.7561462E-02  0.1247613E+00
         -2   -1    0    0    0  501 -0.00000000000E+00  0.00000000000E+00  0.16827707760E+02  0.16827707760E+02  0.00000000000E+00 0. -1.
          2   -1    0    0  501    0  0.00000000000E+00 -0.00000000000E+00 -0.10127677571E+04  0.10127677571E+04  0.00000000000E+00 0.  1.
         23    2    1    2    0    0  0.70483818076E+02  0.21395573549E+02 -0.45860701058E+03  0.47299724015E+03  0.89332300208E+02 0.  0.
          5    1    1    2  502    0 -0.84656280777E+02 -0.52410737674E+02 -0.47580064756E+03  0.48612477814E+03  0.41800000000E+01 0. -1.
         -5    1    1    2    0  502  0.14172462701E+02  0.31015164125E+02 -0.61532391191E+02  0.70473446563E+02  0.41800000000E+01 0. -1.
        -11    1    3    3    0    0  0.57251762672E+02  0.45479497982E+02 -0.41544407516E+03  0.42182926481E+03  0.00000000000E+00 0.  1.
         11    1    3    3    0    0  0.13232055404E+02 -0.24083924433E+02 -0.43162935414E+02  0.51167975335E+02  0.00000000000E+00 0. -1.
</event>
<event>
 7    1  0.5831876E-006  0.1546713E+03  0.7561462E-02  0.1194848E+00
         -2   -1    0    0    0  501 -0.00000000000E+00  0.00000000000E+00  0.13491555772E+03  0.13491555772E+03  0.00000000000E+00 0.  1.
          2   -1    0    0  501    0  0.00000000000E+00 -0.00000000000E+00 -0.35127044016E+03  0.35127044016E+03  0.00000000000E+00 0. -1.
         23    2    1    2    0    0 -0.11628208869E+03  0.80756995655E+02 -0.52179492730E+02  0.17572229744E+03  0.90068917270E+02 0.  0.
          5    1    1    2  502    0  0.41159389780E+02 -0.28432460979E+02 -0.20433139828E+03  0.21040744504E+03  0.41800000000E+01 0. -1.
         -5    1    1    2    0  502  0.75122698913E+02 -0.52324534676E+02  0.40156008563E+02  0.10005625540E+03  0.41800000000E+01 0.  1.
        -11    1    3    3    0    0 -0.75371298649E+02  0.97549897379E+02 -0.33744185112E+02  0.12781034844E+03  0.00000000000E+00 0.  1.
         11    1    3    3    0    0 -0.40910790043E+02 -0.16792901724E+02 -0.18435307618E+02  0.47911949003E+02  0.00000000000E+00 0. -1.
</event>
<event>
 7    1  0.5831876E-006  0.7382244E+02  0.7561462E-02  0.1347557E+00
          1   -1    0    0  501    0  0.00000000000E+00  0.00000000000E+00  0.39653409372E+03  0.39653409372E+03  0.00000000000E+00 0. -1.
         -1   -1    0    0    0  501 -0.00000000000E+00 -0.00000000000E+00 -0.43082166006E+02  0.43082166006E+02  0.00000000000E+00 0.  1.
         23    2    1    2    0    0  0.15914450569E+02 -0.20862442862E+02  0.49632714722E+02  0.10999886745E+03  0.94592987107E+02 0.  0.
          5    1    1    2  502    0  0.13251289508E+02  0.16325080970E+02 -0.27399695742E+01  0.21612144169E+02  0.41800000000E+01 0. -1.
         -5    1    1    2    0  502 -0.29165740077E+02  0.45373618916E+01  0.30655918257E+03  0.30800524811E+03  0.41800000000E+01 0. -1.
        -11    1    3    3    0    0 -0.26827743395E+02 -0.41118922134E+02  0.14870518242E+02  0.51299375103E+02  0.00000000000E+00 0.  1.
         11    1    3    3    0    0  0.42742193964E+02  0.20256479272E+02  0.34762196480E+02  0.58699492344E+02  0.00000000000E+00 0. -1.
</event>
<event>
 7    1  0.5831876E-006  0.1529895E+03  0.7561462E-02  0.1196847E+00
         -2   -1    0    0    0  501 -0.00000000000E+00  0.00000000000E+00  0.82555787125E+02  0.82555787125E+02  0.00000000000E+00 0. -1.
          2   -1    0    0  501    0  0.00000000000E+00 -0.00000000000E+00 -0.38007621965E+03  0.38007621965E+03  0.00000000000E+00 0.  1.
         23    2    1    2    0    0  0.80202307170E+02 -0.80381021838E+02 -0.37952345368E+02  0.15292979321E+03  0.95150524877E+02 0.  0.
          5    1    1    2  502    0  0.13479952362E+02  0.73482336935E+02 -0.11986705557E+03  0.14130444568E+03  0.41800000000E+01 0.  1.
         -5    1    1    2    0  502 -0.93682259532E+02  0.68986849031E+01 -0.13970103159E+03  0.16839776789E+03  0.41800000000E+01 0.  1.
        -11    1    3    3    0    0 -0.63989803692E+01  0.10050260915E+02 -0.24190650376E+02  0.26965575459E+02  0.00000000000E+00 0.  1.
         11    1    3    3    0    0  0.86601287539E+02 -0.90431282753E+02 -0.13761694992E+02  0.12596421775E+03  0.00000000000E+00 0. -1.
</event>
<event>
 7    1  0.5831876E-006  0.9320037E+02  0.7561462E-02  0.1295282E+00
          2   -1    0    0  501    0  0.00000000000E+00  0.00000000000E+00  0.39260630896E+03  0.39260630896E+03  0.00000000000E+00 0. -1.
         -2   -1    0    0    0  501 -0.00000000000E+00 -0.00000000000E+00 -0.72997368721E+02  0.72997368721E+02  0.00000000000E+00 0.  1.
         23    2    1    2    0    0 -0.41867028928E+02  0.30081779748E+02 -0.17982631778E+02  0.10460436243E+03  0.89224077517E+02 0.  0.
          5    1    1    2  502    0  0.28362166147E+02 -0.70656167972E+02  0.14671448947E+03  0.16534606243E+03  0.41800000000E+01 0. -1.
         -5    1    1    2    0  502  0.13504862780E+02  0.40574388224E+02  0.19087708255E+03  0.19565325283E+03  0.41800000000E+01 0.  1.
        -11    1    3    3    0    0 -0.44437237697E+01  0.29420465008E+02 -0.48102535366E+02  0.56561155848E+02  0.00000000000E+00 0.  1.
         11    1    3    3    0    0 -0.37423305158E+02  0.66131474058E+00  0.30119903588E+02  0.48043206578E+02  0.00000000000E+00 0. -1.
</event>
<event>
 7    1  0.5831876E-006  0.1287881E+03  0.7561462E-02  0.1229265E+00
          2   -1    0    0  501    0  0.00000000000E+00  0.00000000000E+00  0.54802228578E+03  0.54802228578E+03  0.00000000000E+00 0.  1.
         -2   -1    0    0    0  501 -0.00000000000E+00 -0.00000000000E+00 -0.36251559127E+02  0.36251559127E+02  0.00000000000E+00 0. -1.
         23    2    1    2    0    0 -0.64242518368E+02  0.62815880698E+02  0.22061601211E+03  0.25489307099E+03  0.90697942667E+02 0.  0.
          5    1    1    2  502    0 -0.86844894788E+01 -0.72416076362E+02  0.19507192897E+03  0.20830275646E+03  0.41800000000E+01 0.  1.
         -5    1    1    2    0  502  0.72927007846E+02  0.96001956637E+01  0.96082785567E+02  0.12107801746E+03  0.41800000000E+01 0.  1.
        -11    1    3    3    0    0 -0.42147014673E+02 -0.21743788323E+01  0.15233296388E+03  0.15807096714E+03  0.00000000000E+00 0.  1.
         11    1    3    3    0    0 -0.22095503695E+02  0.64990259530E+02  0.68283048233E+02  0.96822103847E+02  0.00000000000E+00 0. -1.
</event>
<event>
 7    1  0.5831876E-006  0.1741199E+03  0.7561462E-02  0.1173618E+00
         -1   -1    0    0    0  501 -0.00000000000E+00  0.00000000000E+00  0.15137720774E+03  0.15137720774E+03  0.00000000000E+00 0.  1.
          1   -1    0    0  501    0  0.00000000000E+00 -0.00000000000E+00 -0.24760186166E+03  0.24760186166E+03  0.00000000000E+00 0. -1.
         23    2    1    2    0    0 -0.77299924472E+02 -0.13919853642E+03 -0.29820320470E+02  0.18588605655E+03  0.91174906860E+02 0.  0.
          5    1    1    2  502    0  0.46884282968E+02  0.13785695653E+03 -0.65594342069E+01  0.14581898035E+03  0.41800000000E+01 0. -1.
         -5    1    1    2    0  502  0.30415641503E+02  0.13415798944E+01 -0.59844899241E+02  0.67274032508E+02  0.41800000000E+01 0. -1.
        -11    1    3    3    0    0  0.10670295431E+02 -0.28560061031E+02  0.19486570995E+02  0.36183680574E+02  0.00000000000E+00 0.  1.
         11    1    3    3    0    0 -0.87970219903E+02 -0.11063847539E+03 -0.49306891466E+02  0.14970237598E+03  0.00000000000E+00 0. -1.
</event>
<event>
 7    1  0.5831876E-006  0.9579345E+02  0.7561462E-02  0.1289399E+00
         -1   -1    0    0    0  501 -0.00000000000E+00  0.00000000000E+00  0.53348069628E+02  0.53348069628E+02  0.00000000000E+00 0.  1.
          1   -1    0    0  501    0  0.00000000000E+00 -0.00000000000E+00 -0.53658693729E+03  0.53658693729E+03  0.00000000000E+00 0. -1.
         23    2    1    2    0    0  0.57879552881E+02  0.17983044043E+02 -0.27886408490E+02  0.11383953518E+03  0.92240747374E+02 0.  0.
          5    1    1    2  502    0 -0.10828976423E+02 -0.41884004724E+02 -0.45815506733E+02  0.63151164988E+02  0.41800000000E+01 0. -1.
         -5    1    1    2    0  502 -0.47050576458E+02  0.23900960681E+02 -0.40953695244E+03  0.41294430675E+03  0.41800000000E+01 0. -1.
        -11    1    3    3    0    0  0.20935379990E+02  0.44856433941E+02  0.14436630166E+02  0.51563612090E+02  0.00000000000E+00 0.  1.
         11    1    3    3    0    0  0.36944172892E+02 -0.26873389898E+02 -0.42323038657E+02  0.62275923087E+02  0.00000000000E+00 0. -1.
</event>
<event>
 7    1  0.5831876E-006  0.1144532E+03  0.7561462E-02  0.1252539E+00
          1   -1    0    0  501    0  0.00000000000E+00  0.00000000000E+00  0.51658545053E+03  0.51658545053E+03  0.00000000000E+00 0. -1.
         -1   -1    0    0    0  501 -0.00000000000E+00 -0.00000000000E+00 -0.36115732700E+02  0.36115732700E+02  0.00000000000E+00 0.  1.
         23    2    1    2    0    0  0.73220868290E+02 -0.23063615643E+02  0.15050868628E+03  0.19156135914E+03  0.90275488088E+02 0.  0.
          5    1    1    2  502    0 -0.42645570425E+02 -0.35277970739E+02  0.25627755786E+03  0.26221906673E+03  0.41800000000E+01 0.  1.
         -5    1    1    2    0  502 -0.30575297865E+02  0.58341586382E+02  0.73683473687E+02  0.98920757356E+02  0.41800000000E+01 0.  1.
        -11    1    3    3    0    0 -0.73986294605E+01 -0.25695953099E+02  0.81773129757E+01  0.27962299102E+02  0.00000000000E+00 0.  1.
         11    1    3    3    0    0  0.80619497751E+02  0.26323374564E+01  0.14233137331E+03  0.16359906004E+03  0.00000000000E+00 0. -1.
</event>
<event>
 7    1  0.5831876E-006  0.3180116E+03  0.7561462E-02  0.1076568E+00
         -1   -1    0    0    0  501 -0.00000000000E+00  0.00000000000E+00  0.29231020195E+03  0.29231020195E+03  0.00000000000E+00 0.  1.
          1   -1    0    0  501    0  0.00000000000E+00 -0.00000000000E+00 -0.38668262785E+03  0.38668262785E+03  0.00000000000E+00 0. -1.
         23    2    1    2    0    0  0.24639917524E+03  0.16628080581E+03  0.63246169495E+02  0.32003104375E+03  0.10028923705E+03 0.  0.
          5    1    1    2  502    0 -0.18313675789E+03 -0.18078498304E+03 -0.12226869429E+03  0.28493751629E+03  0.41800000000E+01 0.  1.
         -5    1    1    2    0  502 -0.63262417346E+02  0.14504177226E+02 -0.35349901100E+02  0.74024269758E+02  0.41800000000E+01 0.  1.
        -11    1    3    3    0    0  0.16096139845E+03  0.16154226944E+03  0.49673417031E+02  0.23339221274E+03  0.00000000000E+00 0.  1.
         11    1    3    3    0    0  0.85437776786E+02  0.47385363689E+01  0.13572752463E+02  0.86638831009E+02  0.00000000000E+00 0. -1.
</event>
<event>
 7    1  0.5831876E-006  0.1168554E+03  0.7561462E-02  0.1248377E+00
         -1   -1    0    0    0  501 -0.00000000000E+00  0.00000000000E+00  0.22929933657E+02  0.22929933657E+02  0.00000000000E+00 0.  1.
          1   -1    0    0  501    0  0.00000000000E+00 -0.00000000000E+00 -0.83356422236E+03  0.83356422236E+03  0.00000000000E+00 0. -1.
         23    2    1    2    0    0 -0.63087727611E+02  0.29314373535E+02 -0.21793992036E+03  0.24676182133E+03  0.92488884262E+02 0.  0.
          5    1    1    2  502    0 -0.14099048241E+02 -0.58517769812E+02 -0.26459992488E+03  0.27139216125E+03  0.41800000000E+01 0. -1.
         -5    1    1    2    0  502  0.77186775851E+02  0.29203396278E+02 -0.32809444347E+03  0.33834017343E+03  0.41800000000E+01 0. -1.
        -11    1    3    3    0    0 -0.40955752497E+02 -0.13015844113E+02 -0.28918502798E+02  0.51798317199E+02  0.00000000000E+00 0.  1.
         11    1    3    3    0    0 -0.22131975114E+02  0.42330217648E+02 -0.18902141756E+03  0.19496350413E+03  0.00000000000E+00 0. -1.
</event>
<event>
 7    1  0.5831876E-006  0.9537981E+02  0.7561462E-02  0.1290323E+00
          2   -1    0    0  501    0  0.00000000000E+00  0.00000000000E+00  0.67121062731E+03  0.67121062731E+03  0.00000000000E+00 0. -1.
         -2   -1    0    0    0  501 -0.00000000000E+00 -0.00000000000E+00 -0.18591471477E+02  0.18591471477E+02  0.00000000000E+00 0.  1.
         23    2    1    2    0    0 -0.58905567523E+01  0.19981520657E+02  0.23195971504E+03  0.25044403212E+03  0.92102898964E+02 0.  0.
          5    1    1    2  502    0 -0.45795452698E+02 -0.23961336107E+02  0.33616518342E+03  0.34014095911E+03  0.41800000000E+01 0.  1.
         -5    1    1    2    0  502  0.51686009451E+02  0.39798154501E+01  0.84494257369E+02  0.99217107558E+02  0.41800000000E+01 0.  1.
        -11    1    3    3    0    0  0.39222896420E+02  0.12515404206E+02  0.15977763999E+03  0.16499686418E+03  0.00000000000E+00 0.  1.
         11    1    3    3    0    0 -0.45113453173E+02  0.74661164511E+01  0.72182075048E+02  0.85447167947E+02  0.00000000000E+00 0. -1.
</event>
<event>
 7    1  0.5831876E-006  0.1509402E+03  0.7561462E-02  0.1199322E+00
          2   -1    0    0  501    0  0.00000000000E+00  0.00000000000E+00  0.32994807224E+03  0.32994807224E+03  0.00000000000E+00 0. -1.
         -2   -1    0    0    0  501 -0.00000000000E+00 -0.00000000000E+00 -0.77304967681E+02  0.77304967681E+02  0.00000000000E+00 0.  1.
         23    2    1    2    0    0 -0.56158349060E+02  0.99780118356E+02  0.78427997299E+02  0.16644466674E+03  0.91886038868E+02 0.  0.
          5    1    1    2  502    0  0.88706326564E+02 -0.67550698433E+02  0.15494817146E+03  0.19094061242E+03  0.41800000000E+01 0. -1.
         -5    1    1    2    0  502 -0.32547977503E+02 -0.32229419924E+02  0.19266935799E+02  0.49867760760E+02  0.41800000000E+01 0.  1.
        -11    1    3    3    0    0 -0.39872695956E+01 -0.16439372883E+02  0.13452124774E+00  0.16916542069E+02  0.00000000000E+00 0.  1.
         11    1    3    3    0    0 -0.52171079465E+02  0.11621949124E+03  0.78293476052E+02  0.14952812467E+03  0.00000000000E+00 0. -1.
</event>
<event>
 7    1  0.5831876E-006  0.1306782E+03  0.7561462E-02  0.1226453E+00
         -4   -1    0    0    0  501 -0.00000000000E+00  0.00000000000E+00  0.12138906472E+03  0.12138906472E+03  0.00000000000E+00 0.  1.
          4   -1    0    0  501    0  0.00000000000E+00 -0.00000000000E+00 -0.22544899445E+03  0.22544899445E+03  0.00000000000E+00 0. -1.
         23    2    1    2    0    0 -0.66467317658E+02 -0.74410398487E+02  0.38559861236E+02  0.13249521015E+03  0.78187633894E+02 0.  0.
          5    1    1    2  502    0  0.84667432024E+01  0.75872843013E+02 -0.13570799230E+03  0.15576426298E+03  0.41800000000E+01 0. -1.
         -5    1    1    2    0  502  0.58000574455E+02 -0.14624445261E+01 -0.69117986575E+01  0.58578586035E+02  0.41800000000E+01 0. -1.
        -11    1    3    3    0    0 -0.81513161503E+02 -0.43600415722E+02  0.29430744710E+02  0.97013197471E+02  0.00000000000E+00 0. -1.
         11    1    3    3    0    0  0.15045843846E+02 -0.30809982766E+02  0.91291165254E+01  0.35482012677E+02  0.00000000000E+00 0.  1.
</event>
<event>
 7    1  0.5831876E-006  0.1095121E+03  0.7561462E-02  0.1261476E+00
          3   -1    0    0  501    0  0.00000000000E+00  0.00000000000E+00  0.14204539566E+04  0.14204539566E+04  0.00000000000E+00 0. -1.
         -3   -1    0    0    0  501 -0.00000000000E+00 -0.00000000000E+00 -0.15682701676E+02  0.15682701676E+02  0.00000000000E+00 0.  1.
         23    2    1    2    0    0  0.25764942274E+02 -0.85811570020E+02  0.43778908395E+03  0.45698931097E+03  0.95668649604E+02 0.  0.
          5    1    1    2  502    0 -0.22610567610E+02  0.74690011369E+01  0.71060956386E+03  0.71102070883E+03  0.41800000000E+01 0.  1.
         -5    1    1    2    0  502 -0.31543746637E+01  0.78342568883E+02  0.25637260715E+03  0.26812663851E+03  0.41800000000E+01 0.  1.
        -11    1    3    3    0    0 -0.26208702831E+02 -0.23629944745E+02  0.52421592635E+02  0.63192513537E+02  0.00000000000E+00 0.  1.
         11    1    3    3    0    0  0.51973645105E+02 -0.62181625275E+02  0.38536749131E+03  0.39379679743E+03  0.00000000000E+00 0. -1.
</event>
<event>
 7    1  0.5831876E-006  0.7093895E+02  0.7561462E-02  0.1356929E+00
          2   -1    0    0  501    0  0.00000000000E+00  0.00000000000E+00  0.84973995275E+02  0.84973995275E+02  0.00000000000E+00 0. -1.
         -2   -1    0    0    0  501 -0.00000000000E+00 -0.00000000000E+00 -0.18664574932E+03  0.18664574932E+03  0.00000000000E+00 0.  1.
         23    2    1    2    0    0 -0.55035716086E+01 -0.44898340789E+01 -0.11320959437E+03  0.14579449229E+03  0.91592433172E+02 0.  0.
          5    1    1    2  502    0 -0.15468524011E+02 -0.19129946869E+02  0.61612002542E+02  0.66473614010E+02  0.41800000000E+01 0.  1.
         -5    1    1    2    0  502  0.20972095620E+02  0.23619780948E+02 -0.50074162214E+02  0.59351638293E+02  0.41800000000E+01 0.  1.
        -11    1    3    3    0    0 -0.45012939953E+02  0.18300258248E+01 -0.31985807193E+02  0.55250390221E+02  0.00000000000E+00 0. -1.
         11    1    3    3    0    0  0.39509368345E+02 -0.63198599037E+01 -0.81223787181E+02  0.90544102073E+02  0.00000000000E+00 0.  1.
</event>
<event>
 7    1  0.5831876E-006  0.9889951E+02  0.7561462E-02  0.1282627E+00
         -1   -1    0    0    0  501 -0.00000000000E+00  0.00000000000E+00  0.31606373853E+03  0.31606373853E+03  0.00000000000E+00 0.  1.
          1   -1    0    0  501    0  0.00000000000E+00 -0.00000000000E+00 -0.51255067800E+02  0.51255067800E+02  0.00000000000E+00 0. -1.
         23    2    1    2    0    0  0.57219726217E+02 -0.32476640746E+02  0.89116506717E+02  0.14183879613E+03  0.88587036616E+02 0.  0.
          5    1    1    2  502    0 -0.85436571462E+02  0.28104960612E+02  0.17477939777E+03  0.19660774868E+03  0.41800000000E+01 0. -1.
         -5    1    1    2    0  502  0.28216845245E+02  0.43716801350E+01  0.91276623446E+00  0.28872261515E+02  0.41800000000E+01 0. -1.
        -11    1    3    3    0    0  0.89610201238E+01 -0.29188421411E+02  0.88333774951E+02  0.93461861864E+02  0.00000000000E+00 0. -1.
         11    1    3    3    0    0  0.48258706093E+02 -0.32882193354E+01  0.78273176631E+00  0.48376934268E+02  0.00000000000E+00 0.  1.
</event>
<event>
 7    1  0.5831876E-006  0.1412918E+03  0.7561462E-02  0.1211601E+00
         -1   -1    0    0    0  501 -0.00000000000E+00  0.00000000000E+00  0.14728539550E+03  0.14728539550E+03  0.00000000000E+00 0.  1.
          1   -1    0    0  501    0  0.00000000000E+00 -0.00000000000E+00 -0.19753240206E+03  0.19753240206E+03  0.00000000000E+00 0. -1.
         23    2    1    2    0    0  0.83972847751E+02  0.75484707284E+02  0.42036777621E+02  0.15268895492E+03  0.93794701808E+02 0.  0.
          5    1    1    2  502    0  0.79944263169E+01  0.12930562060E+02  0.17652967728E+02  0.23668754866E+02  0.41800000000E+01 0. -1.
         -5    1    1    2    0  502 -0.91967274068E+02 -0.88415269344E+02 -0.10993675191E+03  0.16846008778E+03  0.41800000000E+01 0. -1.
        -11    1    3    3    0    0  0.68690437943E+02  0.70470375658E+01 -0.33955374378E+01  0.69134410230E+02  0.00000000000E+00 0.  1.
         11    1    3    3    0    0  0.15282409808E+02  0.68437669719E+02  0.45432315059E+02  0.83554544686E+02  0.00000000000E+00 0. -1.
</event>
<event>
 7    1  0.5831876E-006  0.8212588E+02  0.7561462E-02  0.1323125E+00
          2   -1    0    0  501    0  0.00000000000E+00  0.00000000000E+00  0.20998285857E+03  0.20998285857E+03  0.00000000000E+00 0. -1.
         -2   -1    0    0    0  501 -0.00000000000E+00 -0.00000000000E+00 -0.78363099554E+02  0.78363099554E+02  0.00000000000E+00 0.  1.
         23    2    1    2    0    0 -0.27956284790E+02 -0.61646117789E+02  0.45472462186E+02  0.12204532762E+03  0.90804842811E+02 0.  0.
          5    1    1    2  502    0  0.11805514004E+02  0.25878786468E+02 -0.31240364828E+02  0.42456030721E+02  0.41800000000E+01 0. -1.
         -5    1    1    2    0  502  0.16150770786E+02  0.35767331321E+02  0.11738766166E+03  0.12384459979E+03  0.41800000000E+01 0. -1.
        -11    1    3    3    0    0 -0.29810800515E+02  0.42506495321E+01 -0.14048072055E+02  0.33228002908E+02  0.00000000000E+00 0.  1.
         11    1    3    3    0    0  0.18545157245E+01 -0.65896767322E+02  0.59520534241E+02  0.88817324708E+02  0.00000000000E+00 0. -1.
</event>
<event>
 7    1  0.5831876E-006  0.1171365E+03  0.7561462E-02  0.1247897E+00
          2   -1    0    0  501    0  0.00000000000E+00  0.00000000000E+00  0.63530553289E+03  0.63530553289E+03  0.00000000000E+00 0. -1.
         -2   -1    0    0    0  501 -0.00000000000E+00 -0.00000000000E+00 -0.28075656990E+02  0.28075656990E+02  0.00000000000E+00 0.  1.
         23    2    1    2    0    0 -0.52821336431E+02 -0.47777128583E+02  0.19637712270E+03  0.22804422005E+03  0.91473736013E+02 0.  0.
          5    1    1    2  502    0  0.91385715660E+02  0.33676813728E+02  0.33604314935E+03  0.34989705262E+03  0.41800000000E+01 0.  1.
         -5    1    1    2    0  502 -0.38564379229E+02  0.14100314855E+02  0.74809603855E+02  0.85439917213E+02  0.41800000000E+01 0.  1.
        -11    1    3    3    0    0  0.11422920131E+02 -0.24769630541E+02  0.91525809735E+01  0.28771295416E+02  0.00000000000E+00 0.  1.
         11    1    3    3    0    0 -0.64244256562E+02 -0.23007498042E+02  0.18722454173E+03  0.19927292463E+03  0.00000000000E+00 0. -1.
</event>
<event>
 7    1  0.5831876E-006  0.1737516E+03  0.7561462E-02  0.1173991E+00
         -2   -1    0    0    0  501 -0.00000000000E+00  0.00000000000E+00  0.23252687792E+03  0.23252687792E+03  0.00000000000E+00 0.  1.
          2   -1    0    0  501    0  0.00000000000E+00 -0.00000000000E+00 -0.24998877763E+04  0.24998877763E+04  0.00000000000E+00 0. -1.
         23    2    1    2    0    0 -0.19312692682E+02 -0.52389113061E+02  0.60920956683E+02  0.12139533226E+03  0.88926174245E+02 0.  0.
          5    1    1    2  502    0  0.10340548073E+03  0.13341507716E+03 -0.24420805119E+04  0.24479107368E+04  0.41800000000E+01 0. -1.
         -5    1    1    2    0  502 -0.84092788051E+02 -0.81025964104E+02  0.11379865684E+03  0.16310858518E+03  0.41800000000E+01 0.  1.
        -11    1    3    3    0    0 -0.20956776960E+02 -0.18738280656E+02 -0.19492582931E+02  0.34209215890E+02  0.00000000000E+00 0.  1.
         11    1    3    3    0    0  0.16440842782E+01 -0.33650832404E+02  0.80413539614E+02  0.87186116371E+02  0.00000000000E+00 0. -1.
</event>
<event>
 7    1  0.5831876E-006  0.5313595E+02  0.7561462E-02  0.1429125E+00
         -2   -1    0    0    0  501 -0.00000000000E+00  0.00000000000E+00  0.55052573226E+02  0.55052573226E+02  0.00000000000E+00 0.  1.
          2   -1    0    0  501    0  0.00000000000E+00 -0.00000000000E+00 -0.22763033360E+03  0.22763033360E+03  0.00000000000E+00 0. -1.
         23    2    1    2    0    0 -0.23030580567E+02 -0.17426535722E+02 -0.59794413294E+02  0.11179652895E+03  0.89938869432E+02 0.  0.
          5    1    1    2  502    0  0.18150677022E+02 -0.11992949589E+02 -0.13286008182E+03  0.13469428962E+03  0.41800000000E+01 0.  1.
         -5    1    1    2    0  502  0.48799035449E+01  0.29419485310E+02  0.20076734740E+02  0.36192088256E+02  0.41800000000E+01 0.  1.
        -11    1    3    3    0    0 -0.71522642670E+01  0.15710079112E+02  0.18503754922E+02  0.25305146039E+02  0.00000000000E+00 0.  1.
         11    1    3    3    0    0 -0.15878316300E+02 -0.33136614834E+02 -0.78298168216E+02  0.86491382907E+02  0.00000000000E+00 0. -1.
</event>
<event>
 7    1  0.5831876E-006  0.1140214E+03  0.7561462E-02  0.1253299E+00
         -2   -1    0    0    0  501 -0.00000000000E+00  0.00000000000E+00  0.13224358683E+02  0.13224358683E+02  0.00000000000E+00 0.  1.
          2   -1    0    0  501    0  0.00000000000E+00 -0.00000000000E+00 -0.21644497114E+04  0.21644497114E+04  0.00000000000E+00 0. -1.
         23    2    1    2    0    0  0.55823362764E+02 -0.78144605892E+02 -0.44119438694E+03  0.46038668617E+03  0.89892082365E+02 0.  0.
          5    1    1    2  502    0 -0.24132736614E+02  0.61599719020E+01 -0.56567826236E+02  0.61949379298E+02  0.41800000000E+01 0.  1.
         -5    1    1    2    0  502 -0.31690626150E+02  0.71984633989E+02 -0.16534631395E+04  0.16553380046E+04  0.41800000000E+01 0.  1.
        -11    1    3    3    0    0 -0.18393003095E+02 -0.31169764145E+02 -0.68399442641E+02  0.77384368663E+02  0.00000000000E+00 0.  1.
         11    1    3    3    0    0  0.74216365859E+02 -0.46974841746E+02 -0.37279494430E+03  0.38300231751E+03  0.00000000000E+00 0. -1.
</event>
<event>
 7    1  0.5831876E-006  0.8218087E+02  0.7561462E-02  0.1322974E+00
          4   -1    0    0  501    0  0.00000000000E+00  0.00000000000E+00  0.16802620820E+03  0.16802620820E+03  0.00000000000E+00 0. -1.
         -4   -1    0    0    0  501 -0.00000000000E+00 -0.00000000000E+00 -0.80122329556E+02  0.80122329556E+02  0.00000000000E+00 0.  1.
         23    2    1    2    0    0  0.37750275238E+02 -0.25106642828E+02  0.36103133697E+02  0.10536562906E+03  0.87994617620E+02 0.  0.
          5    1    1    2  502    0  0.12190130215E+02  0.56997631682E+02 -0.74183603798E+01  0.58905294862E+02  0.41800000000E+01 0.  1.
         -5    1    1    2    0  502 -0.49940405453E+02 -0.31890988854E+02  0.59219105331E+02  0.83877613837E+02  0.41800000000E+01 0.  1.
        -11    1    3    3    0    0  0.18430673093E+02 -0.60786990602E+01  0.63750958483E+02  0.66639515308E+02  0.00000000000E+00 0. -1.
         11    1    3    3    0    0  0.19319602145E+02 -0.19027943768E+02 -0.27647824786E+02  0.38726113754E+02  0.00000000000E+00 0.  1.
</event>
<event>
 7    1  0.5831876E-006  0.1394234E+03  0.7561462E-02  0.1214107E+00
          1   -1    0    0  501    0  0.00000000000E+00  0.00000000000E+00  0.84317982468E+02  0.84317982468E+02  0.00000000000E+00 0. -1.
         -1   -1    0    0    0  501 -0.00000000000E+00 -0.00000000000E+00 -0.31653291531E+03  0.31653291531E+03  0.00000000000E+00 0.  1.
         23    2    1    2    0    0  0.37247361151E+02 -0.82603807451E+02 -0.19445527623E+03  0.23371345727E+03  0.92727400157E+02 0.  0.
          5    1    1    2  502    0 -0.73991030084E+02  0.87544116516E+02 -0.53598569044E+02  0.12660538643E+03  0.41800000000E+01 0. -1.
         -5    1    1    2    0  502  0.36743668933E+02 -0.49403090650E+01  0.15838912433E+02  0.40532054073E+02  0.41800000000E+01 0.  1.
        -11    1    3    3    0    0  0.54293903118E+02 -0.13892241882E+02 -0.62354435791E+02  0.83838523145E+02  0.00000000000E+00 0. -1.
         11    1    3    3    0    0 -0.17046541967E+02 -0.68711565569E+02 -0.13210084043E+03  0.14987493413E+03  0.00000000000E+00 0.  1.
</event>
<event>
 7    1  0.5831876E-006  0.9119189E+02  0.7561462E-02  0.1299991E+00
          1   -1    0    0  501    0  0.00000000000E+00  0.00000000000E+00  0.81324188305E+02  0.81324188305E+02  0.00000000000E+00 0. -1.
         -1   -1    0    0    0  501 -0.00000000000E+00 -0.00000000000E+00 -0.16398407576E+03  0.16398407576E+03  0.00000000000E+00 0.  1.
         23    2    1    2    0    0 -0.11343110925E+02 -0.32223967303E+02 -0.14956110642E+02  0.99025031293E+02  0.91734515548E+02 0.  0.
          5    1    1    2  502    0 -0.47017388397E+02  0.49177043368E+02 -0.28772007344E+02  0.73988628942E+02  0.41800000000E+01 0.  1.
         -5    1    1    2    0  502  0.58360499322E+02 -0.16953076065E+02 -0.38931769474E+02  0.72294603834E+02  0.41800000000E+01 0.  1.
        -11    1    3    3    0    0  0.15544759612E+02 -0.10913602588E+02 -0.47858225303E+02  0.51489377564E+02  0.00000000000E+00 0.  1.
         11    1    3    3    0    0 -0.26887870536E+02 -0.21310364714E+02  0.32902114661E+02  0.47535653728E+02  0.00000000000E+00 0. -1.
</event>
<event>
 7    1  0.5831876E-006  0.1214432E+03  0.7561462E-02  0.1240735E+00
          2   -1    0    0  501    0  0.00000000000E+00  0.00000000000E+00  0.11691977074E+03  0.11691977074E+03  0.00000000000E+00 0. -1.
         -2   -1    0    0    0  501 -0.00000000000E+00 -0.00000000000E+00 -0.26433139622E+03  0.26433139622E+03  0.00000000000E+00 0.  1.
         23    2    1    2    0    0 -0.36002236101E+02  0.96117825448E+02 -0.17027726950E+03  0.21783345685E+03  0.89007129174E+02 0.  0.
          5    1    1    2  502    0  0.34194524827E+02 -0.29713743516E+02 -0.48042504884E+02  0.66164391915E+02  0.41800000000E+01 0. -1.
         -5    1    1    2    0  502  0.18077112736E+01 -0.66404081931E+02  0.70908148907E+02  0.97253318188E+02  0.41800000000E+01 0. -1.
        -11    1    3    3    0    0 -0.62287394668E+02  0.71412005141E+02 -0.14702184854E+03  0.17491374434E+03  0.00000000000E+00 0. -1.
         11    1    3    3    0    0  0.26285158568E+02  0.24705820307E+02 -0.23255420964E+02  0.42919712513E+02  0.00000000000E+00 0.  1.
</event>
<event>
 7    1  0.5831876E-006  0.1050422E+03  0.7561462E-02  0.1270036E+00
         -3   -1    0    0    0  501 -0.00000000000E+00  0.00000000000E+00  0.17733494874E+03  0.17733494874E+03  0.00000000000E+00 0.  1.
          3   -1    0    0  501    0  0.00000000000E+00 -0.00000000000E+00 -0.37367085670E+03  0.37367085670E+03  0.00000000000E+00 0. -1.
         23    2    1    2    0    0 -0.49655588292E+02 -0.22151364892E+02  0.14854463256E+03  0.18329377226E+03  0.92599884825E+02 0.  0.
          5    1    1    2  502    0  0.13770049991E+02 -0.33446041885E+02 -0.24586633399E+03  0.24854773905E+03  0.41800000000E+01 0. -1.
         -5    1    1    2    0  502  0.35885538300E+02  0.55597406777E+02 -0.99014206533E+02  0.11916429413E+03  0.41800000000E+01 0.  1.
        -11    1    3    3    0    0  0.25217203720E+02 -0.20466592347E+02  0.46284709577E+02  0.56542577819E+02  0.00000000000E+00 0. -1.
         11    1    3    3    0    0 -0.74872792012E+02 -0.16847725449E+01  0.10225992299E+03  0.12675119444E+03  0.00000000000E+00 0.  1.
</event>
<event>
 7    1  0.5831876E-006  0.1043977E+03  0.7561462E-02  0.1271311E+00
         -1   -1    0    0    0  501 -0.00000000000E+00  0.00000000000E+00  0.42041915652E+02  0.42041915652E+02  0.00000000000E+00 0.  1.
          1   -1    0    0  501    0  0.00000000000E+00 -0.00000000000E+00 -0.29288172094E+03  0.29288172094E+03  0.00000000000E+00 0. -1.
         23    2    1    2    0    0  0.10653937107E+02 -0.11270496505E+02 -0.70475561092E+02  0.11487483527E+03  0.89380605274E+02 0.  0.
          5    1    1    2  502    0 -0.19505547765E+02 -0.51416506029E+02 -0.12180301262E+03  0.13370702962E+03  0.41800000000E+01 0.  1.
         -5    1    1    2    0  502  0.88516106582E+01  0.62687002533E+02 -0.58561231576E+02  0.86341771708E+02  0.41800000000E+01 0.  1.
        -11    1    3    3    0    0  0.16599157402E+02 -0.49138423633E+02 -0.34404117569E+02  0.62239537347E+02  0.00000000000E+00 0.  1.
         11    1    3    3    0    0 -0.59452202947E+01  0.37867927128E+02 -0.36071443523E+02  0.52635297920E+02  0.00000000000E+00 0. -1.
</event>
<event>
 7    1  0.5831876E-006  0.1542698E+03  0.7561462E-02  0.1195322E+00
          1   -1    0    0  501    0  0.00000000000E+00  0.00000000000E+00  0.18316140374E+03  0.18316140374E+03  0.00000000000E+00 0. -1.
         -1   -1    0    0    0  501 -0.00000000000E+00 -0.00000000000E+00 -0.18314177814E+03  0.18314177814E+03  0.00000000000E+00 0.  1.
         23    2    1    2    0    0 -0.13298573688E+03 -0.99908695152E+01 -0.61590598803E+02  0.17335753917E+03  0.92056563246E+02 0.  0.
          5    1    1    2  502    0  0.13633395845E+02 -0.40353360160E+02  0.45299678791E+02  0.62320112781E+02  0.41800000000E+01 0. -1.
         -5    1    1    2    0  502  0.11935234104E+03  0.50344229675E+02  0.16310545613E+02  0.13062552994E+03  0.41800000000E+01 0. -1.
        -11    1    3    3    0    0 -0.10346911151E+03  0.38418529774E+01  0.14950825620E+00  0.10354051972E+03  0.00000000000E+00 0. -1.
         11    1    3    3    0    0 -0.29516625377E+02 -0.13832722493E+02 -0.61740107059E+02  0.69817019450E+02  0.00000000000E+00 0.  1.
</event>
<event>
 7    1  0.5831876E-006  0.1339263E+03  0.7561462E-02  0.1221743E+00
         -1   -1    0    0    0  501 -0.00000000000E+00  0.00000000000E+00  0.71223471881E+03  0.71223471881E+03  0.00000000000E+00 0.  1.
          1   -1    0    0  501    0  0.00000000000E+00 -0.00000000000E+00 -0.29582069066E+02  0.29582069066E+02  0.00000000000E+00 0. -1.
         23    2    1    2    0    0 -0.79330938950E+02  0.46385006147E+02  0.38315192731E+03  0.40448250545E+03  0.91409688463E+02 0.  0.
          5    1    1    2  502    0  0.35726637594E+02 -0.81812985274E+02  0.12286053547E+03  0.15192741941E+03  0.41800000000E+01 0. -1.
         -5    1    1    2    0  502  0.43604301356E+02  0.35427979127E+02  0.17664018696E+03  0.18540686301E+03  0.41800000000E+01 0. -1.
        -11    1    3    3    0    0 -0.72200850062E+02 -0.29837632675E+01  0.15608247323E+03  0.17199884896E+03  0.00000000000E+00 0. -1.
         11    1    3    3    0    0 -0.71300888885E+01  0.49368769414E+02  0.22706945408E+03  0.23248365649E+03  0.00000000000E+00 0.  1.
</event>
<event>
 7    1  0.5831876E-006  0.1336987E+03  0.7561462E-02  0.1222069E+00
          2   -1    0    0  501    0  0.00000000000E+00  0.00000000000E+00  0.15365265312E+03  0.15365265312E+03  0.00000000000E+00 0. -1.
         -2   -1    0    0    0  501 -0.00000000000E+00 -0.00000000000E+00 -0.18729468072E+03  0.18729468072E+03  0.00000000000E+00 0.  1.
         23    2    1    2    0    0 -0.16236249106E+01 -0.10546035838E+03 -0.84586559599E+02  0.15962726939E+03  0.84861391221E+02 0.  0.
          5    1    1    2  502    0  0.44150766291E+02  0.70177943707E+02  0.82925290889E+02  0.11733844304E+03  0.41800000000E+01 0. -1.
         -5    1    1    2    0  502 -0.42527141380E+02  0.35282414670E+02 -0.31980758897E+02  0.63981621412E+02  0.41800000000E+01 0.  1.
        -11    1    3    3    0    0  0.23945770078E+02 -0.99990226876E+02 -0.45114038984E+02  0.11227965928E+03  0.00000000000E+00 0. -1.
         11    1    3    3    0    0 -0.25569394988E+02 -0.54701315006E+01 -0.39472520615E+02  0.47347610102E+02  0.00000000000E+00 0.  1.
</event>
<event>
 7    1  0.5831876E-006  0.1189365E+03  0.7561462E-02  0.1244862E+00
         -2   -1    0    0    0  501 -0.00000000000E+00  0.00000000000E+00  0.97197988144E+02  0.97197988144E+02  0.00000000000E+00 0.  1.
          2   -1    0    0  501    0  0.00000000000E+00 -0.00000000000E+00 -0.18753950468E+03  0.18753950468E+03  0.00000000000E+00 0. -1.
         23    2    1    2    0    0  0.44697162951E+02 -0.45010384341E+02  0.11137287291E+02  0.11161725056E+03  0.91162494373E+02 0.  0.
          5    1    1    2  502    0  0.36343400091E+02  0.71173879547E+01  0.66351312641E+00  0.37274825166E+02  0.41800000000E+01 0.  1.
         -5    1    1    2    0  502 -0.81040563042E+02  0.37892996386E+02 -0.10214231695E+03  0.13584541710E+03  0.41800000000E+01 0.  1.
        -11    1    3    3    0    0  0.63215362062E+02 -0.60048322722E+02  0.95174954778E+01  0.87707273259E+02  0.00000000000E+00 0. -1.
         11    1    3    3    0    0 -0.18518199112E+02  0.15037938381E+02  0.16197918137E+01  0.23909977302E+02  0.00000000000E+00 0.  1.
</event>
<event>
 7    1  0.5831876E-006  0.9214790E+02  0.7561462E-02  0.1297732E+00
          1   -1    0    0  501    0  0.00000000000E+00  0.00000000000E+00  0.45305400034E+03  0.45305400034E+03  0.00000000000E+00 0. -1.
         -1   -1    0    0    0  501 -0.00000000000E+00 -0.00000000000E+00 -0.33023606105E+02  0.33023606105E+02  0.00000000000E+00 0.  1.
         23    2    1    2    0    0 -0.10310556935E+02  0.42235259227E+02  0.10680311175E+03  0.14601457887E+03  0.89572472647E+02 0.  0.
          5    1    1    2  502    0 -0.56757793555E+02 -0.10054375464E+02  0.13007437061E+03  0.14233535009E+03  0.41800000000E+01 0.  1.
         -5    1    1    2    0  502  0.67068350490E+02 -0.32180883763E+02  0.18315291188E+03  0.19772767749E+03  0.41800000000E+01 0.  1.
        -11    1    3    3    0    0 -0.19590352768E+02  0.20462080791E+02 -0.74859686120E+01  0.29300484602E+02  0.00000000000E+00 0.  1.
         11    1    3    3    0    0  0.92797958332E+01  0.21773178436E+02  0.11428908037E+03  0.11671409427E+03  0.00000000000E+00 0. -1.
</event>
<event>
 7    1  0.5831876E-006  0.1184339E+03  0.7561462E-02  0.1245703E+00
         -2   -1    0    0    0  501 -0.00000000000E+00  0.00000000000E+00  0.23382115553E+02  0.23382115553E+02  0.00000000000E+00 0. -1.
          2   -1    0    0  501    0  0.00000000000E+00 -0.00000000000E+00 -0.64887827372E+03  0.64887827372E+03  0.00000000000E+00 0.  1.
         23    2    1    2    0    0  0.47292369625E+02  0.20555794131E+02 -0.19990889821E+03  0.22565380143E+03  0.91087658997E+02 0.  0.
          5    1    1    2  502    0 -0.86650472905E+02 -0.29764140701E+02 -0.33489121774E+03  0.34722299556E+03  0.41800000000E+01 0. -1.
         -5    1    1    2    0  502  0.39358103280E+02  0.92083465701E+01 -0.90696042222E+02  0.99383592283E+02  0.41800000000E+01 0. -1.
        -11    1    3    3    0    0 -0.18527062163E+02  0.32701732999E+02 -0.66077064489E+02  0.76018641299E+02  0.00000000000E+00 0.  1.
         11    1    3    3    0    0  0.65819431788E+02 -0.12145938867E+02 -0.13383183372E+03  0.14963516013E+03  0.00000000000E+00 0. -1.
</event>
<event>
 7    1  0.5831876E-006  0.1115942E+03  0.7561462E-02  0.1257646E+00
         -2   -1    0    0    0  501 -0.00000000000E+00  0.00000000000E+00  0.40257453011E+03  0.40257453011E+03  0.00000000000E+00 0.  1.
          2   -1    0    0  501    0  0.00000000000E+00 -0.00000000000E+00 -0.33502616397E+02  0.33502616397E+02  0.00000000000E+00 0. -1.
         23    2    1    2    0    0  0.42335492362E+02  0.92593347064E+01  0.15609219451E+03  0.18531080655E+03  0.89984957880E+02 0.  0.
          5    1    1    2  502    0  0.16592949265E+02  0.45954538711E+02  0.57931771877E+02  0.75899329287E+02  0.41800000000E+01 0. -1.
         -5    1    1    2    0  502 -0.58928441627E+02 -0.55213873418E+02  0.15504794732E+03  0.17486701066E+03  0.41800000000E+01 0. -1.
        -11    1    3    3    0    0 -0.38483169897E+01 -0.31474641556E+02  0.24666922569E+02  0.40173619127E+02  0.00000000000E+00 0. -1.
         11    1    3    3    0    0  0.46183809352E+02  0.40733976262E+02  0.13142527194E+03  0.14513718742E+03  0.00000000000E+00 0.  1.
</event>
<event>
 7    1  0.5831876E-006  0.1110860E+03  0.7561462E-02  0.1258572E+00
          2   -1    0    0  501    0  0.00000000000E+00  0.00000000000E+00  0.10712049526E+04  0.10712049526E+04  0.00000000000E+00 0. -1.
         -2   -1    0    0    0  501 -0.00000000000E+00 -0.00000000000E+00 -0.19954584220E+02  0.19954584220E+02  0.00000000000E+00 0.  1.
         23    2    1    2    0    0  0.39657222680E+02 -0.18646245736E+02  0.15351045812E+03  0.18368995863E+03  0.90863426958E+02 0.  0.
          5    1    1    2  502    0  0.39177349847E+02 -0.15987370376E+02  0.20327909290E+03  0.20767841188E+03  0.41800000000E+01 0.  1.
         -5    1    1    2    0  502 -0.78834572527E+02  0.34633616113E+02  0.69446081741E+03  0.69979116636E+03  0.41800000000E+01 0.  1.
        -11    1    3    3    0    0 -0.19492966054E+01 -0.44445334979E+02  0.39034320369E+02  0.59185012675E+02  0.00000000000E+00 0. -1.
         11    1    3    3    0    0  0.41606519286E+02  0.25799089243E+02  0.11447613775E+03  0.12450494596E+03  0.00000000000E+00 0.  1.
</event>
<event>
 7    1  0.5831876E-006  0.1911852E+03  0.7561462E-02  0.1157397E+00
          1   -1    0    0  501    0  0.00000000000E+00  0.00000000000E+00  0.50365578464E+02  0.50365578464E+02  0.00000000000E+00 0. -1.
         -1   -1    0    0    0  501 -0.00000000000E+00 -0.00000000000E+00 -0.92867040330E+03  0.92867040330E+03  0.00000000000E+00 0.  1.
         23    2    1    2    0    0  0.84139077145E+02  0.15826749388E+03 -0.54024811693E+03  0.57647081367E+03  0.91228215197E+02 0.  0.
          5    1    1    2  502    0 -0.52782826698E+02 -0.23360077233E+02 -0.19498189962E+03  0.20338911864E+03  0.41800000000E+01 0. -1.
         -5    1    1    2    0  502 -0.31356250448E+02 -0.13490741665E+03 -0.14307480829E+03  0.19917604946E+03  0.41800000000E+01 0. -1.
        -11    1    3    3    0    0  0.33671488993E+02  0.11377135252E+03 -0.22765369174E+03  0.25671753580E+03  0.00000000000E+00 0. -1.
         11    1    3    3    0    0  0.50467588153E+02  0.44496141364E+02 -0.31259442519E+03  0.31975327787E+03  0.00000000000E+00 0.  1.
</event>
<event>
 7    1  0.5831876E-006  0.1366900E+03  0.7561462E-02  0.1217854E+00
          2   -1    0    0  501    0  0.00000000000E+00  0.00000000000E+00  0.72407155541E+03  0.72407155541E+03  0.00000000000E+00 0. -1.
         -2   -1    0    0    0  501 -0.00000000000E+00 -0.00000000000E+00 -0.32316814630E+02  0.32316814630E+02  0.00000000000E+00 0.  1.
         23    2    1    2    0    0  0.16251204620E+02  0.92297809202E+02  0.19609224467E+03  0.23666635473E+03  0.93679281616E+02 0.  0.
          5    1    1    2  502    0 -0.63319147986E+02 -0.86585293446E+02  0.37328866193E+03  0.38841759109E+03  0.41800000000E+01 0.  1.
         -5    1    1    2    0  502  0.47067943366E+02 -0.57125157556E+01  0.12237383418E+03  0.13130442422E+03  0.41800000000E+01 0.  1.
        -11    1    3    3    0    0  0.34370947945E+02  0.12450837693E+02  0.18201158529E+02  0.40837086009E+02  0.00000000000E+00 0.  1.
         11    1    3    3    0    0 -0.18119743326E+02  0.79846971509E+02  0.17789108614E+03  0.19582926872E+03  0.00000000000E+00 0. -1.
</event>
<event>
 7    1  0.5831876E-006  0.1081743E+03  0.7561462E-02  0.1263989E+00
         -1   -1    0    0    0  501 -0.00000000000E+00  0.00000000000E+00  0.18290439597E+03  0.18290439597E+03  0.00000000000E+00 0.  1.
          1   -1    0    0  501    0  0.00000000000E+00 -0.00000000000E+00 -0.71880441284E+02  0.71880441284E+02  0.00000000000E+00 0. -1.
         23    2    1    2    0    0  0.35445477481E+02 -0.11665393946E+02  0.33061797496E+02  0.10274153127E+03  0.89834717704E+02 0.  0.
          5    1    1    2  502    0 -0.45023082370E+02  0.56913274841E+02  0.76578468602E+02  0.10558377268E+03  0.41800000000E+01 0.  1.
         -5    1    1    2    0  502  0.95776048888E+01 -0.45247880895E+02  0.13836885899E+01  0.46459533306E+02  0.41800000000E+01 0.  1.
        -11    1    3    3    0    0  0.44061755396E+02 -0.44887686810E+02  0.23046251789E+02  0.66988599308E+02  0.00000000000E+00 0.  1.
         11    1    3    3    0    0 -0.86162779153E+01  0.33222292865E+02  0.10015545707E+02  0.35752931965E+02  0.00000000000E+00 0. -1.
</event>
<event>
 7    1  0.5831876E-006  0.1022787E+03  0.7561462E-02  0.1275576E+00
          2   -1    0    0  501    0  0.00000000000E+00  0.00000000000E+00  0.44539504396E+03  0.44539504396E+03  0.00000000000E+00 0. -1.
         -2   -1    0    0    0  501 -0.00000000000E+00 -0.00000000000E+00 -0.37015613306E+02  0.37015613306E+02  0.00000000000E+00 0.  1.
         23    2    1    2    0    0  0.33382069307E+02  0.41499756765E+02  0.10293094278E+03  0.14807063942E+03  0.92160419446E+02 0.  0.
          5    1    1    2  502    0 -0.10069338215E+02 -0.79278541904E+02  0.12466980588E+03  0.14814355091E+03  0.41800000000E+01 0. -1.
         -5    1    1    2    0  502 -0.23312731092E+02  0.37778785140E+02  0.18077868199E+03  0.18619646693E+03  0.41800000000E+01 0. -1.
        -11    1    3    3    0    0  0.57991875101E+01  0.50574790123E+02  0.10724581583E+03  0.11871438407E+03  0.00000000000E+00 0. -1.
         11    1    3    3    0    0  0.27582881797E+02 -0.90750333582E+01 -0.43148730474E+01  0.29356255348E+02  0.00000000000E+00 0.  1.
</event>
<event>
 7    1  0.5831876E-006  0.1816749E+03  0.7561462E-02  0.1166192E+00
          2   -1    0    0  501    0  0.00000000000E+00  0.00000000000E+00  0.88802989276E+02  0.88802989276E+02  0.00000000000E+00 0. -1.
         -2   -1    0    0    0  501 -0.00000000000E+00 -0.00000000000E+00 -0.42518240405E+03  0.42518240405E+03  0.00000000000E+00 0.  1.
         23    2    1    2    0    0  0.15412883804E+03  0.36409187600E+02 -0.19782975358E+03  0.26918997981E+03  0.90803668289E+02 0.  0.
          5    1    1    2  502    0 -0.11912726441E+03  0.23858078842E+02 -0.48578717385E+02  0.13091171542E+03  0.41800000000E+01 0. -1.
         -5    1    1    2    0  502 -0.35001573629E+02 -0.60267266441E+02 -0.89970943806E+02  0.11388369809E+03  0.41800000000E+01 0. -1.
        -11    1    3    3    0    0  0.42627495358E+02  0.42636521940E+02 -0.29339279969E+02  0.67050501212E+02  0.00000000000E+00 0. -1.
         11    1    3    3    0    0  0.11150134268E+03 -0.62273343404E+01 -0.16849047361E+03  0.20213947860E+03  0.00000000000E+00 0.  1.
</event>
<event>
 7    1  0.5831876E-006  0.9765516E+02  0.7561462E-02  0.1285306E+00
          1   -1    0    0  501    0  0.00000000000E+00  0.00000000000E+00  0.51350765943E+03  0.51350765943E+03  0.00000000000E+00 0. -1.
         -1   -1    0    0    0  501 -0.00000000000E+00 -0.00000000000E+00 -0.36731356019E+02  0.36731356019E+02  0.00000000000E+00 0.  1.
         23    2    1    2    0    0  0.42046994779E+02 -0.15160603038E+01  0.61949144674E+02  0.11492248592E+03  0.87173579919E+02 0.  0.
          5    1    1    2  502    0 -0.46532346860E+02 -0.40585502544E+02  0.36311884244E+03  0.36835473182E+03  0.41800000000E+01 0.  1.
         -5    1    1    2    0  502  0.44853520811E+01  0.42101562848E+02  0.51708316297E+02  0.66961797704E+02  0.41800000000E+01 0.  1.
        -11    1    3    3    0    0  0.48945584711E+02 -0.32749966800E+02  0.58061415251E+02  0.82700414323E+02  0.00000000000E+00 0. -1.
         11    1    3    3    0    0 -0.68985899324E+01  0.31233906496E+02  0.38877294224E+01  0.32222071599E+02  0.00000000000E+00 0.  1.
</event>
<event>
 7    1  0.5831876E-006  0.1060831E+03  0.7561462E-02  0.1268000E+00
         -1   -1    0    0    0  501 -0.00000000000E+00  0.00000000000E+00  0.10908536313E+03  0.10908536313E+03  0.00000000000E+00 0.  1.
          1   -1    0    0  501    0  0.00000000000E+00 -0.00000000000E+00 -0.14575875521E+03  0.14575875521E+03  0.00000000000E+00 0. -1.
         23    2    1    2    0    0  0.56576923964E+02  0.79380400696E+01  0.18660503828E+02  0.10660966550E+03  0.88053651660E+02 0.  0.
          5    1    1    2  502    0 -0.78662319187E+02  0.13599219937E+02  0.52602846811E+01  0.80111436373E+02  0.41800000000E+01 0.  1.
         -5    1    1    2    0  502  0.22085395223E+02 -0.21537260007E+02 -0.60594180584E+02  0.68123016459E+02  0.41800000000E+01 0.  1.
        -11    1    3    3    0    0  0.16391724491E+02  0.44093202139E+02 -0.55726565645E+01  0.47370387458E+02  0.00000000000E+00 0. -1.
         11    1    3    3    0    0  0.40185199473E+02 -0.36155162070E+02  0.24233160393E+02  0.59239278047E+02  0.00000000000E+00 0.  1.
</event>
<event>
 7    1  0.5831876E-006  0.7324152E+02  0.7561462E-02  0.1349405E+00
         -2   -1    0    0    0  501 -0.00000000000E+00  0.00000000000E+00  0.11265036731E+03  0.11265036731E+03  0.00000000000E+00 0. -1.
          2   -1    0    0  501    0  0.00000000000E+00 -0.00000000000E+00 -0.17633821413E+03  0.17633821413E+03  0.00000000000E+00 0.  1.
         23    2    1    2    0    0 -0.21758006307E+02  0.54699783743E+02  0.39043463351E+02  0.11674498738E+03  0.92949033710E+02 0.  0.
          5    1    1    2  502    0  0.73277779308E+01  0.17979458159E+01 -0.11262192780E+03  0.11295175944E+03  0.41800000000E+01 0.  1.
         -5    1    1    2    0  502  0.14430228376E+02 -0.56497729559E+02  0.98906176347E+01  0.59291834628E+02  0.41800000000E+01 0.  1.
        -11    1    3    3    0    0  0.31040077361E+01 -0.97952088650E+01  0.46130979389E+02  0.47261487917E+02  0.00000000000E+00 0. -1.
         11    1    3    3    0    0 -0.24862014043E+02  0.64494992608E+02 -0.70875160381E+01  0.69483499462E+02  0.00000000000E+00 0.  1.
</event>
<event>
 7    1  0.5831876E-006  0.9187278E+02  0.7561462E-02  0.1298379E+00
          4   -1    0    0  501    0  0.00000000000E+00  0.00000000000E+00  0.33632231085E+02  0.33632231085E+02  0.00000000000E+00 0. -1.
         -4   -1    0    0    0  501 -0.00000000000E+00 -0.00000000000E+00 -0.46260183962E+03  0.46260183962E+03  0.00000000000E+00 0.  1.
         23    2    1    2    0    0 -0.24100082697E+02  0.59192033279E+02 -0.20873405505E+03  0.24101580244E+03  0.10214793438E+03 0.  0.
          5    1    1    2  502    0  0.18536966220E+01 -0.12717445080E+02  0.11525705908E+02  0.17761866378E+02  0.41800000000E+01 0. -1.
         -5    1    1    2    0  502  0.22246386075E+02 -0.46474588199E+02 -0.23176125939E+03  0.23745640189E+03  0.41800000000E+01 0.  1.
        -11    1    3    3    0    0  0.34874783527E+02 -0.14851167857E+00 -0.43019880586E+02  0.55380345858E+02  0.00000000000E+00 0.  1.
         11    1    3    3    0    0 -0.58974866224E+02  0.59340544957E+02 -0.16571417447E+03  0.18563545658E+03  0.00000000000E+00 0. -1.
</event>
<event>
 7    1  0.5831876E-006  0.1239041E+03  0.7561462E-02  0.1236792E+00
         -2   -1    0    0    0  501 -0.00000000000E+00  0.00000000000E+00  0.56933510654E+02  0.56933510654E+02  0.00000000000E+00 0.  1.
          2   -1    0    0  501    0  0.00000000000E+00 -0.00000000000E+00 -0.40216566497E+03  0.40216566497E+03  0.00000000000E+00 0. -1.
         23    2    1    2    0    0 -0.55008509527E+02 -0.41715921750E+02 -0.37219247142E+02  0.11956181330E+03  0.90241900431E+02 0.  0.
          5    1    1    2  502    0 -0.34614396737E+02  0.37183389504E+02 -0.14042401042E+03  0.14938920985E+03  0.41800000000E+01 0. -1.
         -5    1    1    2    0  502  0.89622906265E+02  0.45325322453E+01 -0.16758889675E+03  0.19014815248E+03  0.41800000000E+01 0. -1.
        -11    1    3    3    0    0  0.19599340285E+02 -0.22733309533E+02 -0.29674731883E+02  0.42208141564E+02  0.00000000000E+00 0.  1.
         11    1    3    3    0    0 -0.74607849813E+02 -0.18982612216E+02 -0.75445152592E+01  0.77353671734E+02  0.00000000000E+00 0. -1.
</event>
<event>
 7    1  0.5831876E-006  0.1109468E+03  0.7561462E-02  0.1258826E+00
         -1   -1    0    0    0  501 -0.00000000000E+00  0.00000000000E+00  0.14256973123E+02  0.14256973123E+02  0.00000000000E+00 0.  1.
          1   -1    0    0  501    0  0.00000000000E+00 -0.00000000000E+00 -0.90333377955E+03  0.90333377955E+03  0.00000000000E+00 0. -1.
         23    2    1    2    0    0  0.16560495923E+02  0.40818103587E+02 -0.35657444015E+03  0.36882301419E+03  0.83334967589E+02 0.  0.
          5    1    1    2  502    0 -0.68619393176E+02 -0.25786017104E+02 -0.37588814857E+03  0.38299205271E+03  0.41800000000E+01 0. -1.
         -5    1    1    2    0  502  0.52058897253E+02 -0.15032086483E+02 -0.15661421770E+03  0.16577568577E+03  0.41800000000E+01 0. -1.
        -11    1    3    3    0    0 -0.26682415640E+02 -0.89962014761E+01 -0.11599639547E+03  0.11936518214E+03  0.00000000000E+00 0. -1.
         11    1    3    3    0    0  0.43242911563E+02  0.49814305063E+02 -0.24057804468E+03  0.24945783205E+03  0.00000000000E+00 0.  1.
</event>
<event>
 7    1  0.5831876E-006  0.8024242E+02  0.7561462E-02  0.1328365E+00
          2   -1    0    0  501    0  0.00000000000E+00  0.00000000000E+00  0.24850255159E+03  0.24850255159E+03  0.00000000000E+00 0. -1.
         -2   -1    0    0    0  501 -0.00000000000E+00 -0.00000000000E+00 -0.61657817041E+02  0.61657817041E+02  0.00000000000E+00 0.  1.
         23    2    1    2    0    0  0.80669972934E+01  0.54591403719E+02  0.97764554528E+02  0.14698236980E+03  0.94871550562E+02 0.  0.
          5    1    1    2  502    0  0.29779553151E+02 -0.46285664133E+02 -0.10550899113E+02  0.56195892752E+02  0.41800000000E+01 0. -1.
         -5    1    1    2    0  502 -0.37846550444E+02 -0.83057395855E+01  0.99631079136E+02  0.10698210608E+03  0.41800000000E+01 0. -1.
        -11    1    3    3    0    0 -0.89181792523E+01  0.46777311023E+02  0.17722329246E+00  0.47620186432E+02  0.00000000000E+00 0.  1.
         11    1    3    3    0    0  0.16985176546E+02  0.78140926960E+01  0.97587331235E+02  0.99362183372E+02  0.00000000000E+00 0. -1.
</event>
<event>
 7    1  0.5831876E-006  0.1922542E+03  0.7561462E-02  0.1156444E+00
          2   -1    0    0  501    0  0.00000000000E+00  0.00000000000E+00  0.51500545886E+03  0.51500545886E+03  0.00000000000E+00 0. -1.
         -2   -1    0    0    0  501 -0.00000000000E+00 -0.00000000000E+00 -0.76944214361E+02  0.76944214361E+02  0.00000000000E+00 0.  1.
         23    2    1    2    0    0 -0.11993657215E+03  0.10982661816E+03  0.15579055043E+03  0.24299252644E+03  0.91257903253E+02 0.  0.
          5    1    1    2  502    0  0.79399271084E+02  0.14531920437E+01  0.16004679908E+03  0.17871431480E+03  0.41800000000E+01 0. -1.
         -5    1    1    2    0  502  0.40537301067E+02 -0.11127981021E+03  0.12222389499E+03  0.17024283199E+03  0.41800000000E+01 0. -1.
        -11    1    3    3    0    0 -0.62894458156E+02  0.11302619450E+03  0.10841898032E+03  0.16877591299E+03  0.00000000000E+00 0.  1.
         11    1    3    3    0    0 -0.57042113994E+02 -0.31995763421E+01  0.47371570107E+02  0.74216613451E+02  0.00000000000E+00 0. -1.
</event>
<event>
 7    1  0.5831876E-006  0.8520607E+02  0.7561462E-02  0.1314895E+00
         -2   -1    0    0    0  501 -0.00000000000E+00  0.00000000000E+00  0.26193254613E+02  0.26193254613E+02  0.00000000000E+00 0. -1.
          2   -1    0    0  501    0  0.00000000000E+00 -0.00000000000E+00 -0.55492572342E+03  0.55492572342E+03  0.00000000000E+00 0.  1.
         23    2    1    2    0    0 -0.74463238668E+01 -0.14269757782E+02 -0.14104742570E+03  0.17342378627E+03  0.99611041672E+02 0.  0.
          5    1    1    2  502    0 -0.42981810070E+02 -0.10997816229E+02 -0.30040090656E+03  0.30368826948E+03  0.41800000000E+01 0. -1.
         -5    1    1    2    0  502  0.50428133936E+02  0.25267574011E+02 -0.87284136543E+02  0.10400692227E+03  0.41800000000E+01 0. -1.
        -11    1    3    3    0    0 -0.27546447956E+02 -0.32185837278E+02 -0.14022567581E+03  0.14648540908E+03  0.00000000000E+00 0.  1.
         11    1    3    3    0    0  0.20100124089E+02  0.17916079496E+02 -0.82174988570E+00  0.26938377193E+02  0.00000000000E+00 0. -1.
</event>
<event>
 7    1  0.5831876E-006  0.1169197E+03  0.7561462E-02  0.1248267E+00
          3   -1    0    0  501    0  0.00000000000E+00  0.00000000000E+00  0.52716059659E+02  0.52716059659E+02  0.00000000000E+00 0. -1.
         -3   -1    0    0    0  501 -0.00000000000E+00 -0.00000000000E+00 -0.42338738006E+03  0.42338738006E+03  0.00000000000E+00 0.  1.
         23    2    1    2    0    0  0.93005759342E+01  0.38934848419E+02 -0.17319675604E+03  0.19971470672E+03  0.91029800840E+02 0.  0.
          5    1    1    2  502    0 -0.65584881998E+02  0.42074138971E+01  0.71030642185E+00  0.65856328577E+02  0.41800000000E+01 0. -1.
         -5    1    1    2    0  502  0.56284306064E+02 -0.43142262316E+02 -0.19818487078E+03  0.21053240443E+03  0.41800000000E+01 0.  1.
        -11    1    3    3    0    0  0.47236723738E+02  0.78130057999E+01 -0.10781746734E+03  0.11797015467E+03  0.00000000000E+00 0.  1.
         11    1    3    3    0    0 -0.37936147803E+02  0.31121842619E+02 -0.65379288705E+02  0.81744552050E+02  0.00000000000E+00 0. -1.
</event>
<event>
 7    1  0.5831876E-006  0.1341031E+03  0.7561462E-02  0.1221491E+00
          4   -1    0    0  501    0  0.00000000000E+00  0.00000000000E+00  0.54710707850E+02  0.54710707850E+02  0.00000000000E+00 0. -1.
         -4   -1    0    0    0  501 -0.00000000000E+00 -0.00000000000E+00 -0.39285111477E+03  0.39285111477E+03  0.00000000000E+00 0.  1.
         23    2    1    2    0    0  0.89904927018E+02 -0.24804768201E+02 -0.20077828224E+03  0.23969073284E+03  0.91877942753E+02 0.  0.
          5    1    1    2  502    0 -0.66226315216E+02  0.69939977563E+02 -0.11985126204E+03  0.15381587272E+03  0.41800000000E+01 0. -1.
         -5    1    1    2    0  502 -0.23678611802E+02 -0.45135209362E+02 -0.17510862653E+02  0.54055217064E+02  0.41800000000E+01 0. -1.
        -11    1    3    3    0    0  0.87894440626E+02 -0.46110181388E+02 -0.11801152950E+03  0.15420214854E+03  0.00000000000E+00 0.  1.
         11    1    3    3    0    0  0.20104863925E+01  0.21305413187E+02 -0.82766752740E+02  0.85488584300E+02  0.00000000000E+00 0. -1.
</event>
<event>
 7    1  0.5831876E-006  0.7318787E+02  0.7561462E-02  0.1349576E+00
          1   -1    0    0  501    0  0.00000000000E+00  0.00000000000E+00  0.95122160602E+03  0.95122160602E+03  0.00000000000E+00 0. -1.
         -1   -1    0    0    0  501 -0.00000000000E+00 -0.00000000000E+00 -0.19710793208E+02  0.19710793208E+02  0.00000000000E+00 0.  1.
         23    2    1    2    0    0 -0.26753190376E+01 -0.11449259815E+02  0.12908822467E+03  0.15873305727E+03  0.91619707701E+02 0.  0.
          5    1    1    2  502    0  0.35913428638E+02 -0.89748854356E+01  0.71949248100E+03  0.72045626206E+03  0.41800000000E+01 0. -1.
         -5    1    1    2    0  502 -0.33238109600E+02  0.20424145251E+02  0.82930107145E+02  0.91743079903E+02  0.41800000000E+01 0. -1.
        -11    1    3    3    0    0  0.10919878233E+02 -0.38281061306E+02  0.18079552490E+02  0.43721317610E+02  0.00000000000E+00 0.  1.
         11    1    3    3    0    0 -0.13595197271E+02  0.26831801491E+02  0.11100867218E+03  0.11501173966E+03  0.00000000000E+00 0. -1.
</event>
<event>
 7    1  0.5831876E-006  0.1493729E+03  0.7561462E-02  0.1201246E+00
          2   -1    0    0  501    0  0.00000000000E+00  0.00000000000E+00  0.96767776018E+03  0.96767776018E+03  0.00000000000E+00 0.  1.
         -2   -1    0    0    0  501 -0.00000000000E+00 -0.00000000000E+00 -0.28021392565E+02  0.28021392565E+02  0.00000000000E+00 0. -1.
         23    2    1    2    0    0 -0.63037254207E+02 -0.10479417256E+03  0.38038030338E+03  0.40970234433E+03  0.90616343595E+02 0.  0.
          5    1    1    2  502    0 -0.35270275887E+02  0.88564752932E+01  0.94980095884E+02  0.10178958950E+03  0.41800000000E+01 0.  1.
         -5    1    1    2    0  502  0.98307530094E+02  0.95937697265E+02  0.46429596835E+03  0.48420721892E+03  0.41800000000E+01 0.  1.
        -11    1    3    3    0    0 -0.15515341564E+02 -0.49146203231E+02  0.28427058073E+03  0.28890454857E+03  0.00000000000E+00 0.  1.
         11    1    3    3    0    0 -0.47521912643E+02 -0.55647969327E+02  0.96109722647E+02  0.12079779575E+03  0.00000000000E+00 0. -1.
</event>
<event>
 7    1  0.5831876E-006  0.1088338E+03  0.7561462E-02  0.1262745E+00
          2   -1    0    0  501    0  0.00000000000E+00  0.00000000000E+00  0.47731338128E+03  0.47731338128E+03  0.00000000000E+00 0.  1.
         -2   -1    0    0    0  501 -0.00000000000E+00 -0.00000000000E+00 -0.51523878723E+02  0.51523878723E+02  0.00000000000E+00 0. -1.
         23    2    1    2    0    0  0.28414762957E+02 -0.64227003912E+02  0.82215999315E+02  0.15651659074E+03  0.11316123828E+03 0.  0.
          5    1    1    2  502    0 -0.51945650482E+02  0.65407537845E+02  0.33739817820E+03  0.34760825604E+03  0.41800000000E+01 0.  1.
         -5    1    1    2    0  502  0.23530887525E+02 -0.11805339333E+01  0.61753250451E+01  0.24712413227E+02  0.41800000000E+01 0.  1.
        -11    1    3    3    0    0  0.30495074600E+02  0.12786701440E+02 -0.11670665042E+02  0.35066418852E+02  0.00000000000E+00 0. -1.
         11    1    3    3    0    0 -0.20803116427E+01 -0.77013705352E+02  0.93886664357E+02  0.12145017189E+03  0.00000000000E+00 0.  1.
</event>
<event>
 7    1  0.5831876E-006  0.3088562E+03  0.7561462E-02  0.1080895E+00
         -3   -1    0    0    0  501 -0.00000000000E+00  0.00000000000E+00  0.34325763018E+03  0.34325763018E+03  0.00000000000E+00 0.  1.
          3   -1    0    0  501    0  0.00000000000E+00 -0.00000000000E+00 -0.30563634985E+03  0.30563634985E+03  0.00000000000E+00 0. -1.
         23    2    1    2    0    0  0.57817589969E+01 -0.29649218283E+03  0.91288257991E+02  0.32259942272E+03  0.88293817873E+02 0.  0.
          5    1    1    2  502    0  0.67433318017E+01 -0.10826568513E+02 -0.71091408742E+01  0.15188791707E+02  0.41800000000E+01 0. -1.
         -5    1    1    2    0  502 -0.12525090799E+02  0.30731875135E+03 -0.46557836784E+02  0.31110576561E+03  0.41800000000E+01 0. -1.
        -11    1    3    3    0    0  0.81576267377E+01 -0.25229768252E+03  0.10896229231E+03  0.27494262788E+03  0.00000000000E+00 0.  1.
         11    1    3    3    0    0 -0.23758677408E+01 -0.44194500316E+02 -0.17674034321E+02  0.47656794844E+02  0.00000000000E+00 0. -1.
</event>
<event>
 7    1  0.5831876E-006  0.1228324E+03  0.7561462E-02  0.1238496E+00
         -1   -1    0    0    0  501 -0.00000000000E+00  0.00000000000E+00  0.77883641939E+02  0.77883641939E+02  0.00000000000E+00 0.  1.
          1   -1    0    0  501    0  0.00000000000E+00 -0.00000000000E+00 -0.25421329220E+03  0.25421329220E+03  0.00000000000E+00 0. -1.
         23    2    1    2    0    0  0.33358415510E+02 -0.51148604704E+02 -0.24492394852E+01  0.10936436614E+03  0.90695105481E+02 0.  0.
          5    1    1    2  502    0  0.36250360635E+01 -0.38793289697E+02 -0.71042483626E+02  0.81133020970E+02  0.41800000000E+01 0.  1.
         -5    1    1    2    0  502 -0.36983451573E+02  0.89941894401E+02 -0.10283792715E+03  0.14159954703E+03  0.41800000000E+01 0.  1.
        -11    1    3    3    0    0  0.46010884324E+02  0.96729482921E+01 -0.43022517610E+01  0.47213099614E+02  0.00000000000E+00 0. -1.
         11    1    3    3    0    0 -0.12652468815E+02 -0.60821552997E+02  0.18530122758E+01  0.62151266524E+02  0.00000000000E+00 0.  1.
</event>
<event>
 7    1  0.5831876E-006  0.1593072E+03  0.7561462E-02  0.1189481E+00
          1   -1    0    0  501    0  0.00000000000E+00  0.00000000000E+00  0.36351942287E+03  0.36351942287E+03  0.00000000000E+00 0. -1.
         -1   -1    0    0    0  501 -0.00000000000E+00 -0.00000000000E+00 -0.77962427395E+02  0.77962427395E+02  0.00000000000E+00 0.  1.
         23    2    1    2    0    0  0.62374444236E+02 -0.70399885876E+02  0.58340996670E+02  0.14278475249E+03  0.90205866912E+02 0.  0.
          5    1    1    2  502    0 -0.39457783572E+02 -0.54175246967E+02  0.77949921024E+02  0.10288603723E+03  0.41800000000E+01 0. -1.
         -5    1    1    2    0  502 -0.22916660664E+02  0.12457513284E+03  0.14926607778E+03  0.19581106055E+03  0.41800000000E+01 0.  1.
        -11    1    3    3    0    0 -0.10457763561E+02  0.11219694208E+02 -0.53011405807E+01  0.16228014305E+02  0.00000000000E+00 0.  1.
         11    1    3    3    0    0  0.72832207796E+02 -0.81619580084E+02  0.63642137251E+02  0.12655673818E+03  0.00000000000E+00 0. -1.
</event>
<event>
 7    1  0.5831876E-006  0.1477144E+03  0.7561462E-02  0.1203310E+00
          2   -1    0    0  501    0  0.00000000000E+00  0.00000000000E+00  0.29472567472E+03  0.29472567472E+03  0.00000000000E+00 0. -1.
         -2   -1    0    0    0  501 -0.00000000000E+00 -0.00000000000E+00 -0.87675706230E+02  0.87675706230E+02  0.00000000000E+00 0.  1.
         23    2    1    2    0    0  0.20272755187E+02 -0.10575191207E+03  0.42229572160E+02  0.14912100883E+03  0.94123785511E+02 0.  0.
          5    1    1    2  502    0 -0.70349113966E+02  0.77756716067E+02  0.85862510263E+02  0.13559110516E+03  0.41800000000E+01 0. -1.
         -5    1    1    2    0  502  0.50076358779E+02  0.27995196007E+02  0.78957886068E+02  0.97689266966E+02  0.41800000000E+01 0. -1.
        -11    1    3    3    0    0 -0.16477585708E+02  0.42250519680E+01 -0.12292756992E+02  0.20987466959E+02  0.00000000000E+00 0.  1.
         11    1    3    3    0    0  0.36750340895E+02 -0.10997696404E+03  0.54522329152E+02  0.12813354187E+03  0.00000000000E+00 0. -1.
</event>
<event>
 7    1  0.5831876E-006  0.1368617E+03  0.7561462E-02  0.1217615E+00
          1   -1    0    0  501    0  0.00000000000E+00  0.00000000000E+00  0.59797972845E+03  0.59797972845E+03  0.00000000000E+00 0. -1.
         -1   -1    0    0    0  501 -0.00000000000E+00 -0.00000000000E+00 -0.38155399748E+02  0.38155399748E+02  0.00000000000E+00 0.  1.
         23    2    1    2    0    0 -0.94963812850E+02 -0.58110850586E+01  0.16503007195E+03  0.21120907033E+03  0.91227475480E+02 0.  0.
          5    1    1    2  502    0  0.89616436812E+02 -0.46714405948E+02  0.21708557363E+03  0.23949313173E+03  0.41800000000E+01 0. -1.
         -5    1    1    2    0  502  0.53473760378E+01  0.52525491007E+02  0.17770868313E+03  0.18543292614E+03  0.41800000000E+01 0. -1.
        -11    1    3    3    0    0 -0.21035187630E+02  0.30657061776E+02  0.15135314904E+02  0.40142400434E+02  0.00000000000E+00 0.  1.
         11    1    3    3    0    0 -0.73928625220E+02 -0.36468146835E+02  0.14989475704E+03  0.17106666990E+03  0.00000000000E+00 0. -1.
</event>
<event>
 7    1  0.5831876E-006  0.1328481E+03  0.7561462E-02  0.1223290E+00
          2   -1    0    0  501    0  0.00000000000E+00  0.00000000000E+00  0.66329021888E+03  0.66329021888E+03  0.00000000000E+00 0.  1.
         -2   -1    0    0    0  501 -0.00000000000E+00 -0.00000000000E+00 -0.30120692854E+02  0.30120692854E+02  0.00000000000E+00 0. -1.
         23    2    1    2    0    0  0.59968229801E+02 -0.62821978905E+02  0.23402437092E+03  0.26620180214E+03  0.92483531830E+02 0.  0.
          5    1    1    2  502    0  0.23833637751E+02 -0.19551998536E+02  0.50952950596E+02  0.59699233744E+02  0.41800000000E+01 0. -1.
         -5    1    1    2    0  502 -0.83801867552E+02  0.82373977441E+02  0.34819220452E+03  0.36750987586E+03  0.41800000000E+01 0. -1.
        -11    1    3    3    0    0  0.79209542477E+02 -0.53798953302E+02  0.22203409242E+03  0.24180077997E+03  0.00000000000E+00 0.  1.
         11    1    3    3    0    0 -0.19241312676E+02 -0.90230256025E+01  0.11990278495E+02  0.24401022169E+02  0.00000000000E+00 0. -1.
</event>
<event>
 7    1  0.5831876E-006  0.1608622E+03  0.7561462E-02  0.1187727E+00
          2   -1    0    0  501    0  0.00000000000E+00  0.00000000000E+00  0.12056087509E+04  0.12056087509E+04  0.00000000000E+00 0. -1.
         -2   -1    0    0    0  501 -0.00000000000E+00 -0.00000000000E+00 -0.29662622103E+02  0.29662622103E+02  0.00000000000E+00 0.  1.
         23    2    1    2    0    0  0.31570661613E+02 -0.13763236043E+03  0.35642150101E+03  0.39436048508E+03  0.92436640447E+02 0.  0.
          5    1    1    2  502    0  0.36093034656E+02  0.26259993370E+02  0.37468106960E+03  0.37735350895E+03  0.41800000000E+01 0. -1.
         -5    1    1    2    0  502 -0.67663696269E+02  0.11137236706E+03  0.44484355816E+03  0.46355737894E+03  0.41800000000E+01 0. -1.
        -11    1    3    3    0    0 -0.69136609381E+01 -0.54101732783E+02  0.48462383656E+02  0.72961625717E+02  0.00000000000E+00 0.  1.
         11    1    3    3    0    0  0.38484322551E+02 -0.83530627649E+02  0.30795911736E+03  0.32139885936E+03  0.00000000000E+00 0. -1.
</event>
<event>
 7    1  0.5831876E-006  0.2878015E+03  0.7561462E-02  0.1091503E+00
          1   -1    0    0  501    0  0.00000000000E+00  0.00000000000E+00  0.12987314981E+03  0.12987314981E+03  0.00000000000E+00 0. -1.
         -1   -1    0    0    0  501 -0.00000000000E+00 -0.00000000000E+00 -0.70913886262E+03  0.70913886262E+03  0.00000000000E+00 0.  1.
         23    2    1    2    0    0  0.44410295181E+01  0.27772192957E+03 -0.35790802643E+03  0.46245380294E+03  0.92823335190E+02 0.  0.
          5    1    1    2  502    0 -0.47706195192E+02 -0.71008882994E+02 -0.10464171373E+03  0.13522390016E+03  0.41800000000E+01 0. -1.
         -5    1    1    2    0  502  0.43265165674E+02 -0.20671304658E+03 -0.11671597265E+03  0.24133430933E+03  0.41800000000E+01 0. -1.
        -11    1    3    3    0    0 -0.50848922175E+01  0.23008249967E+03 -0.22885365102E+03  0.32455786289E+03  0.00000000000E+00 0. -1.
         11    1    3    3    0    0  0.95259217356E+01  0.47639429908E+02 -0.12905437541E+03  0.13789594004E+03  0.00000000000E+00 0.  1.
</event>
<event>
 7    1  0.5831876E-006  0.1189210E+03  0.7561462E-02  0.1244888E+00
          1   -1    0    0  501    0  0.00000000000E+00  0.00000000000E+00  0.28824026744E+03  0.28824026744E+03  0.00000000000E+00 0. -1.
         -1   -1    0    0    0  501 -0.00000000000E+00 -0.00000000000E+00 -0.64150324911E+02  0.64150324911E+02  0.00000000000E+00 0.  1.
         23    2    1    2    0    0  0.75632521534E+02  0.74429112140E+01  0.61964889737E+02  0.13396961651E+03  0.91282722056E+02 0.  0.
          5    1    1    2  502    0 -0.38417289748E+02  0.49129775727E+02  0.12806791226E+03  0.14250784388E+03  0.41800000000E+01 0.  1.
         -5    1    1    2    0  502 -0.37215231787E+02 -0.56572686941E+02  0.34057140534E+02  0.75913131973E+02  0.41800000000E+01 0.  1.
        -11    1    3    3    0    0 -0.15770041914E+02  0.23703330590E+01 -0.88453993619E+01  0.18236057431E+02  0.00000000000E+00 0.  1.
         11    1    3    3    0    0  0.91402563448E+02  0.50725781550E+01  0.70810289099E+02  0.11573355908E+03  0.00000000000E+00 0. -1.
</event>
<event>
 7    1  0.5831876E-006  0.1511815E+03  0.7561462E-02  0.1199029E+00
         -2   -1    0    0    0  501 -0.00000000000E+00  0.00000000000E+00  0.82226818707E+02  0.82226818707E+02  0.00000000000E+00 0.  1.
          2   -1    0    0  501    0  0.00000000000E+00 -0.00000000000E+00 -0.37613503417E+03  0.37613503417E+03  0.00000000000E+00 0. -1.
         23    2    1    2    0    0  0.57364741575E+02 -0.10501757452E+03 -0.47062390020E+02  0.15686459107E+03  0.89845572192E+02 0.  0.
          5    1    1    2  502    0 -0.88914104359E+02  0.10376894425E+03 -0.22353369111E+03  0.26202766114E+03  0.41800000000E+01 0. -1.
         -5    1    1    2    0  502  0.31549362785E+02  0.12486302713E+01 -0.23312134334E+02  0.39469600668E+02  0.41800000000E+01 0. -1.
        -11    1    3    3    0    0  0.47216488561E+02 -0.25552377643E+02 -0.54384788786E+02  0.76420063115E+02  0.00000000000E+00 0. -1.
         11    1    3    3    0    0  0.10148253014E+02 -0.79465196874E+02  0.73223987666E+01  0.80444527950E+02  0.00000000000E+00 0.  1.
</event>
<event>
 7    1  0.5831876E-006  0.1889948E+03  0.7561462E-02  0.1159371E+00
          1   -1    0    0  501    0  0.00000000000E+00  0.00000000000E+00  0.13581812726E+04  0.13581812726E+04  0.00000000000E+00 0. -1.
         -1   -1    0    0    0  501 -0.00000000000E+00 -0.00000000000E+00 -0.27402880808E+02  0.27402880808E+02  0.00000000000E+00 0.  1.
         23    2    1    2    0    0  0.13356406300E+03 -0.85821181386E+02  0.56291188159E+03  0.59156161995E+03  0.88717132893E+02 0.  0.
          5    1    1    2  502    0 -0.15512280174E+03  0.66712388673E+02  0.70155649829E+03  0.72160419837E+03  0.41800000000E+01 0.  1.
         -5    1    1    2    0  502  0.21558738738E+02  0.19108792714E+02  0.66310011892E+02  0.72418335055E+02  0.41800000000E+01 0.  1.
        -11    1    3    3    0    0  0.37686154267E+02 -0.74415435106E+02  0.30384607883E+03  0.31508783351E+03  0.00000000000E+00 0. -1.
         11    1    3    3    0    0  0.95877908738E+02 -0.11405746280E+02  0.25906580276E+03  0.27647378644E+03  0.00000000000E+00 0.  1.
</event>
<event>
 7    1  0.5831876E-006  0.8175521E+02  0.7561462E-02  0.1324143E+00
         -1   -1    0    0    0  501 -0.00000000000E+00  0.00000000000E+00  0.81990385399E+02  0.81990385399E+02  0.00000000000E+00 0.  1.
          1   -1    0    0  501    0  0.00000000000E+00 -0.00000000000E+00 -0.17830179949E+03  0.17830179949E+03  0.00000000000E+00 0. -1.
         23    2    1    2    0    0  0.22189311224E+02 -0.36301839300E+01  0.99375610591E+01  0.94636282581E+02  0.91387784156E+02 0.  0.
          5    1    1    2  502    0 -0.15113344297E+02  0.41612133717E+02  0.78183100382E+01  0.45150650274E+02  0.41800000000E+01 0.  1.
         -5    1    1    2    0  502 -0.70759669276E+01 -0.37981949787E+02 -0.11406728518E+03  0.12050525203E+03  0.41800000000E+01 0.  1.
        -11    1    3    3    0    0  0.69120234381E+00  0.35514581088E+02 -0.20101008619E+02  0.40814382000E+02  0.00000000000E+00 0. -1.
         11    1    3    3    0    0  0.21498108880E+02 -0.39144765018E+02  0.30038569678E+02  0.53821900580E+02  0.00000000000E+00 0.  1.
</event>
<event>
 7    1  0.5831876E-006  0.1087678E+03  0.7561462E-02  0.1262869E+00
         -1   -1    0    0    0  501 -0.00000000000E+00  0.00000000000E+00  0.43391801732E+02  0.43391801732E+02  0.00000000000E+00 0.  1.
          1   -1    0    0  501    0  0.00000000000E+00 -0.00000000000E+00 -0.31808479437E+03  0.31808479437E+03  0.00000000000E+00 0. -1.
         23    2    1    2    0    0 -0.40435538394E+02  0.18316353245E+02 -0.12205433397E+03  0.15919764097E+03  0.92065774807E+02 0.  0.
          5    1    1    2  502    0 -0.41418831219E+02  0.11653940027E+02 -0.33988238618E+02  0.54990968913E+02  0.41800000000E+01 0. -1.
         -5    1    1    2    0  502  0.81854369613E+02 -0.29970293271E+02 -0.11865042005E+03  0.14728798621E+03  0.41800000000E+01 0. -1.
        -11    1    3    3    0    0 -0.24312840830E+02 -0.28535743152E+02 -0.96333532474E+02  0.10337094536E+03  0.00000000000E+00 0. -1.
         11    1    3    3    0    0 -0.16122697564E+02  0.46852096397E+02 -0.25720801491E+02  0.55826695611E+02  0.00000000000E+00 0.  1.
</event>
<event>
 7    1  0.5831876E-006  0.1560994E+03  0.7561462E-02  0.1193172E+00
          1   -1    0    0  501    0  0.00000000000E+00  0.00000000000E+00  0.33250592634E+03  0.33250592634E+03  0.00000000000E+00 0. -1.
         -1   -1    0    0    0  501 -0.00000000000E+00 -0.00000000000E+00 -0.10934439719E+03  0.10934439719E+03  0.00000000000E+00 0.  1.
         23    2    1    2    0    0  0.58764294408E+02  0.12045615910E+03  0.90505096485E+01  0.15997348309E+03  0.86871600683E+02 0.  0.
          5    1    1    2  502    0 -0.93468497430E+02 -0.10046560536E+03  0.13212873811E+03  0.19053916581E+03  0.41800000000E+01 0. -1.
         -5    1    1    2    0  502  0.34704203022E+02 -0.19990553742E+02  0.81982281388E+02  0.91337674636E+02  0.41800000000E+01 0. -1.
        -11    1    3    3    0    0  0.27876676011E+02  0.42856426843E+02 -0.38376630087E+02  0.63926114570E+02  0.00000000000E+00 0.  1.
         11    1    3    3    0    0  0.30887618398E+02  0.77599732255E+02  0.47427139735E+02  0.96047368521E+02  0.00000000000E+00 0. -1.
</event>
<event>
 7    1  0.5831876E-006  0.1336368E+03  0.7561462E-02  0.1222157E+00
         -1   -1    0    0    0  501 -0.00000000000E+00  0.00000000000E+00  0.23628255302E+03  0.23628255302E+03  0.00000000000E+00 0.  1.
          1   -1    0    0  501    0  0.00000000000E+00 -0.00000000000E+00 -0.92036240481E+02  0.92036240481E+02  0.00000000000E+00 0. -1.
         23    2    1    2    0    0 -0.76010468044E+02  0.43994359854E+02  0.11802496547E+03  0.17324914103E+03  0.91500149968E+02 0.  0.
          5    1    1    2  502    0 -0.25184360862E+02  0.12884263339E+02  0.26386689812E+02  0.38909973954E+02  0.41800000000E+01 0.  1.
         -5    1    1    2    0  502  0.10119482891E+03 -0.56878623194E+02 -0.16534274069E+00  0.11615967851E+03  0.41800000000E+01 0.  1.
        -11    1    3    3    0    0 -0.36983760522E+02 -0.24021977793E+02  0.65143237723E+02  0.78666990412E+02  0.00000000000E+00 0.  1.
         11    1    3    3    0    0 -0.39026707523E+02  0.68016337648E+02  0.52881727744E+02  0.94582150622E+02  0.00000000000E+00 0. -1.
</event>
<event>
 7    1  0.5831876E-006  0.1260224E+03  0.7561462E-02  0.1233480E+00
         -2   -1    0    0    0  501 -0.00000000000E+00  0.00000000000E+00  0.32068323056E+02  0.32068323056E+02  0.00000000000E+00 0.  1.
          2   -1    0    0  501    0  0.00000000000E+00 -0.00000000000E+00 -0.81442227486E+03  0.81442227486E+03  0.00000000000E+00 0. -1.
         23    2    1    2    0    0  0.60060986260E+02 -0.64237464799E+02 -0.13666468042E+03  0.18294369040E+03  0.84008243827E+02 0.  0.
          5    1    1    2  502    0 -0.29956287041E+02  0.87346570793E+02 -0.25943686569E+03  0.27541198638E+03  0.41800000000E+01 0.  1.
         -5    1    1    2    0  502 -0.30104699218E+02 -0.23109105994E+02 -0.38625240570E+03  0.38813492113E+03  0.41800000000E+01 0.  1.
        -11    1    3    3    0    0  0.35497993365E+02  0.14950933577E+02 -0.38665395188E+02  0.54577016525E+02  0.00000000000E+00 0.  1.
         11    1    3    3    0    0  0.24562992895E+02 -0.79188398376E+02 -0.97999285228E+02  0.12836667388E+03  0.00000000000E+00 0. -1.
</event>
<event>
 7    1  0.5831876E-006  0.1158292E+03  0.7561462E-02  0.1250140E+00
          1   -1    0    0  501    0  0.00000000000E+00  0.00000000000E+00  0.78538410404E+03  0.78538410404E+03  0.00000000000E+00 0. -1.
         -1   -1    0    0    0  501 -0.00000000000E+00 -0.00000000000E+00 -0.22447219571E+02  0.22447219571E+02  0.00000000000E+00 0.  1.
         23    2    1    2    0    0 -0.59217098895E+01 -0.32567756880E+02  0.18513850680E+03  0.21572193552E+03  0.10565964853E+03 0.  0.
          5    1    1    2  502    0  0.22076618831E+02 -0.44781387084E+02  0.23861731244E+03  0.24382051580E+03  0.41800000000E+01 0.  1.
         -5    1    1    2    0  502 -0.16154908941E+02  0.77349143964E+02  0.33918106522E+03  0.34828887229E+03  0.41800000000E+01 0.  1.
        -11    1    3    3    0    0 -0.11621402438E+02  0.33837890794E+02  0.10803184140E+03  0.11380219068E+03  0.00000000000E+00 0. -1.
         11    1    3    3    0    0  0.56996925487E+01 -0.66405647674E+02  0.77106665408E+02  0.10191974484E+03  0.00000000000E+00 0.  1.
</event>
<event>
 7    1  0.5831876E-006  0.2876744E+03  0.7561462E-02  0.1091570E+00
          1   -1    0    0  501    0  0.00000000000E+00  0.00000000000E+00  0.15807604574E+04  0.15807604574E+04  0.00000000000E+00 0. -1.
         -1   -1    0    0    0  501 -0.00000000000E+00 -0.00000000000E+00 -0.73297711572E+02  0.73297711572E+02  0.00000000000E+00 0.  1.
         23    2    1    2    0    0  0.27418027426E+03 -0.41556218273E+02  0.34257510039E+03  0.45010004532E+03  0.91272171680E+02 0.  0.
          5    1    1    2  502    0 -0.24622334282E+03  0.62769412624E+02  0.11096715590E+04  0.11383999187E+04  0.41800000000E+01 0. -1.
         -5    1    1    2    0  502 -0.27956931442E+02 -0.21213194351E+02  0.55216086438E+02  0.65558204916E+02  0.41800000000E+01 0. -1.
        -11    1    3    3    0    0  0.18976358992E+03  0.42886891821E+01  0.18190689981E+03  0.26290441821E+03  0.00000000000E+00 0.  1.
         11    1    3    3    0    0  0.84416684340E+02 -0.45844907455E+02  0.16066820057E+03  0.18719562711E+03  0.00000000000E+00 0. -1.
</event>
<event>
 7    1  0.5831876E-006  0.8136915E+02  0.7561462E-02  0.1325210E+00
         -2   -1    0    0    0  501 -0.00000000000E+00  0.00000000000E+00  0.89947996506E+02  0.89947996506E+02  0.00000000000E+00 0.  1.
          2   -1    0    0  501    0  0.00000000000E+00 -0.00000000000E+00 -0.16423656133E+03  0.16423656133E+03  0.00000000000E+00 0. -1.
         23    2    1    2    0    0  0.46800114834E+02 -0.15066001288E+02  0.89117039519E+01  0.96099401175E+02  0.82088009451E+02 0.  0.
          5    1    1    2  502    0  0.85417582353E+01 -0.32603051020E+01 -0.97416703805E+02  0.97934048234E+02  0.41800000000E+01 0.  1.
         -5    1    1    2    0  502 -0.55341873070E+02  0.18326306390E+02  0.14216435025E+02  0.60151108432E+02  0.41800000000E+01 0.  1.
        -11    1    3    3    0    0  0.52712523647E+02  0.21696739761E+02 -0.27826715242E+01  0.57071025278E+02  0.00000000000E+00 0.  1.
         11    1    3    3    0    0 -0.59124088125E+01 -0.36762741049E+02  0.11694375476E+02  0.39028375897E+02  0.00000000000E+00 0. -1.
</event>
<event>
 7    1  0.5831876E-006  0.1110619E+03  0.7561462E-02  0.1258616E+00
          2   -1    0    0  501    0  0.00000000000E+00  0.00000000000E+00  0.16560444733E+03  0.16560444733E+03  0.00000000000E+00 0.  1.
         -2   -1    0    0    0  501 -0.00000000000E+00 -0.00000000000E+00 -0.10347491099E+03  0.10347491099E+03  0.00000000000E+00 0. -1.
         23    2    1    2    0    0 -0.40996445795E+02  0.53437080919E+02  0.70665900874E+00  0.11430031014E+03  0.92346257887E+02 0.  0.
          5    1    1    2  502    0 -0.24486572935E-01 -0.87000285665E+02  0.26021114003E+02  0.90904461273E+02  0.41800000000E+01 0. -1.
         -5    1    1    2    0  502  0.41020932368E+02  0.33563204746E+02  0.35401763336E+02  0.63874586907E+02  0.41800000000E+01 0. -1.
        -11    1    3    3    0    0 -0.31752752853E+02  0.45187220314E+01 -0.39090752849E+02  0.50564247457E+02  0.00000000000E+00 0. -1.
         11    1    3    3    0    0 -0.92436929416E+01  0.48918358888E+02  0.39797411858E+02  0.63736062681E+02  0.00000000000E+00 0.  1.
</event>
<event>
 7    1  0.5831876E-006  0.1063461E+03  0.7561462E-02  0.1267490E+00
         -2   -1    0    0    0  501 -0.00000000000E+00  0.00000000000E+00  0.19496516510E+03  0.19496516510E+03  0.00000000000E+00 0.  1.
          2   -1    0    0  501    0  0.00000000000E+00 -0.00000000000E+00 -0.79905466338E+02  0.79905466338E+02  0.00000000000E+00 0. -1.
         23    2    1    2    0    0 -0.20196147669E+02  0.12401694956E+02  0.11122329532E+03  0.14749522405E+03  0.93928341186E+02 0.  0.
          5    1    1    2  502    0  0.63271041655E+02  0.26120442214E+02  0.91846414028E+01  0.69190550303E+02  0.41800000000E+01 0.  1.
         -5    1    1    2    0  502 -0.43074893986E+02 -0.38522137170E+02 -0.53482379644E+01  0.58184857080E+02  0.41800000000E+01 0.  1.
        -11    1    3    3    0    0 -0.23157450750E+02  0.46500808535E+02  0.97779366055E+02  0.11072216194E+03  0.00000000000E+00 0.  1.
         11    1    3    3    0    0  0.29613030816E+01 -0.34099113579E+02  0.13443929269E+02  0.36773062110E+02  0.00000000000E+00 0. -1.
</event>
<event>
 7    1  0.5831876E-006  0.8851780E+02  0.7561462E-02  0.1306481E+00
         -4   -1    0    0    0  501 -0.00000000000E+00  0.00000000000E+00  0.23853222477E+03  0.23853222477E+03  0.00000000000E+00 0.  1.
          4   -1    0    0  501    0  0.00000000000E+00 -0.00000000000E+00 -0.52787738097E+02  0.52787738097E+02  0.00000000000E+00 0. -1.
         23    2    1    2    0    0 -0.22134263204E+02  0.40870124651E+01  0.13347788287E+03  0.15389634946E+03  0.73219614051E+02 0.  0.
          5    1    1    2  502    0  0.60472287226E+02  0.16776049693E+02  0.66299304794E+02  0.91386014148E+02  0.41800000000E+01 0.  1.
         -5    1    1    2    0  502 -0.38338024022E+02 -0.20863062158E+02 -0.14032700993E+02  0.46037599261E+02  0.41800000000E+01 0.  1.
        -11    1    3    3    0    0 -0.34640825539E+02 -0.22227108319E+02  0.46153773230E+02  0.61840131966E+02  0.00000000000E+00 0.  1.
         11    1    3    3    0    0  0.12506562335E+02  0.26314120784E+02  0.87324109640E+02  0.92056217490E+02  0.00000000000E+00 0. -1.
</event>
<event>
 7    1  0.5831876E-006  0.1064180E+03  0.7561462E-02  0.1267351E+00
          1   -1    0    0  501    0  0.00000000000E+00  0.00000000000E+00  0.18873387050E+04  0.18873387050E+04  0.00000000000E+00 0. -1.
         -1   -1    0    0    0  501 -0.00000000000E+00 -0.00000000000E+00 -0.97237689533E+01  0.97237689533E+01  0.00000000000E+00 0.  1.
         23    2    1    2    0    0  0.35971947363E+02 -0.19760325186E+02  0.35292722817E+03  0.36670198274E+03  0.90709780698E+02 0.  0.
          5    1    1    2  502    0  0.71537965450E+01  0.65043279235E+02  0.60583401461E+03  0.60937191487E+03  0.41800000000E+01 0. -1.
         -5    1    1    2    0  502 -0.43125743908E+02 -0.45282954049E+02  0.91885369331E+03  0.92098857638E+03  0.41800000000E+01 0. -1.
        -11    1    3    3    0    0 -0.23073401569E+02 -0.77501170579E+01  0.32202868931E+02  0.40366705858E+02  0.00000000000E+00 0.  1.
         11    1    3    3    0    0  0.59045348932E+02 -0.12010208128E+02  0.32072435924E+03  0.32633527689E+03  0.00000000000E+00 0. -1.
</event>
<event>
 7    1  0.5831876E-006  0.9147299E+02  0.7561462E-02  0.1299323E+00
          1   -1    0    0  501    0  0.00000000000E+00  0.00000000000E+00  0.58003279639E+03  0.58003279639E+03  0.00000000000E+00 0. -1.
         -1   -1    0    0    0  501 -0.00000000000E+00 -0.00000000000E+00 -0.22175583481E+02  0.22175583481E+02  0.00000000000E+00 0.  1.
         23    2    1    2    0    0 -0.22150005852E+02  0.22000967625E+02  0.21395841429E+03  0.23493659581E+03  0.91882183641E+02 0.  0.
          5    1    1    2  502    0  0.25825202036E+02  0.41414325071E+02  0.24360050131E+03  0.24847688830E+03  0.41800000000E+01 0. -1.
         -5    1    1    2    0  502 -0.36751961842E+01 -0.63415292697E+02  0.10029829731E+03  0.11879489576E+03  0.41800000000E+01 0. -1.
        -11    1    3    3    0    0  0.16836097111E+02  0.26143942840E+02  0.18119327929E+03  0.18384222685E+03  0.00000000000E+00 0. -1.
         11    1    3    3    0    0 -0.38986102963E+02 -0.41429752147E+01  0.32765134992E+02  0.51094368955E+02  0.00000000000E+00 0.  1.
</event>
<event>
 7    1  0.5831876E-006  0.1244332E+03  0.7561462E-02  0.1235958E+00
          2   -1    0    0  501    0  0.00000000000E+00  0.00000000000E+00  0.67669981483E+03  0.67669981483E+03  0.00000000000E+00 0. -1.
         -2   -1    0    0    0  501 -0.00000000000E+00 -0.00000000000E+00 -0.49694969130E+02  0.49694969130E+02  0.00000000000E+00 0.  1.
         23    2    1    2    0    0 -0.88607672829E+02 -0.50806235619E+01  0.63869459555E+02  0.14274575015E+03  0.91760061589E+02 0.  0.
          5    1    1    2  502    0  0.63782031734E+00  0.50986583812E+02  0.14120842428E+03  0.15019097853E+03  0.41800000000E+01 0. -1.
         -5    1    1    2    0  502  0.87969852511E+02 -0.45905960250E+02  0.42192696187E+03  0.43345805528E+03  0.41800000000E+01 0. -1.
        -11    1    3    3    0    0 -0.74053218940E+02  0.12992702148E+02  0.41944206220E+00  0.75185540339E+02  0.00000000000E+00 0.  1.
         11    1    3    3    0    0 -0.14554453889E+02 -0.18073325710E+02  0.63450017492E+02  0.67560209813E+02  0.00000000000E+00 0. -1.
</event>
<event>
 7    1  0.5831876E-006  0.4689116E+02  0.7561462E-02  0.1462869E+00
         -2   -1    0    0    0  501 -0.00000000000E+00  0.00000000000E+00  0.11934679231E+03  0.11934679231E+03  0.00000000000E+00 0.  1.
          2   -1    0    0  501    0  0.00000000000E+00 -0.00000000000E+00 -0.11768435283E+04  0.11768435283E+04  0.00000000000E+00 0. -1.
         23    2    1    2    0    0 -0.74895487516E+01  0.21417768031E+02  0.10061693912E+03  0.13203757780E+03  0.82433848545E+02 0.  0.
          5    1    1    2  502    0 -0.69642423980E+01  0.29750149215E+01 -0.10927217965E+04  0.10927560333E+04  0.41800000000E+01 0. -1.
         -5    1    1    2    0  502  0.14453791150E+02 -0.24392782952E+02 -0.65391878591E+02  0.71396709479E+02  0.41800000000E+01 0.  1.
        -11    1    3    3    0    0  0.43875597846E+01 -0.16325282230E+02 -0.62949709029E+01  0.18038630198E+02  0.00000000000E+00 0. -1.
         11    1    3    3    0    0 -0.11877108536E+02  0.37743050261E+02  0.10691191002E+03  0.11399894760E+03  0.00000000000E+00 0.  1.
</event>
<event>
 7    1  0.5831876E-006  0.1822226E+03  0.7561462E-02  0.1165669E+00
          2   -1    0    0  501    0  0.00000000000E+00  0.00000000000E+00  0.12414629576E+04  0.12414629576E+04  0.00000000000E+00 0. -1.
         -2   -1    0    0    0  501 -0.00000000000E+00 -0.00000000000E+00 -0.29688527668E+02  0.29688527668E+02  0.00000000000E+00 0.  1.
         23    2    1    2    0    0  0.82611594922E+02 -0.13468542950E+03  0.52341296602E+03  0.55389718186E+03  0.88747476238E+02 0.  0.
          5    1    1    2  502    0 -0.60286617808E+02  0.67850108423E+01  0.34137985129E+03  0.34675378574E+03  0.41800000000E+01 0.  1.
         -5    1    1    2    0  502 -0.22324977114E+02  0.12790041866E+03  0.34698161263E+03  0.37050051767E+03  0.41800000000E+01 0.  1.
        -11    1    3    3    0    0  0.92241729868E+02 -0.93141711142E+02  0.31538296608E+03  0.34154111082E+03  0.00000000000E+00 0.  1.
         11    1    3    3    0    0 -0.96301349463E+01 -0.41543718356E+02  0.20802999994E+03  0.21235607104E+03  0.00000000000E+00 0. -1.
</event>
<event>
 7    1  0.5831876E-006  0.1065414E+03  0.7561462E-02  0.1267112E+00
          3   -1    0    0  501    0  0.00000000000E+00  0.00000000000E+00  0.96398865608E+02  0.96398865608E+02  0.00000000000E+00 0. -1.
         -3   -1    0    0    0  501 -0.00000000000E+00 -0.00000000000E+00 -0.25072731305E+03  0.25072731305E+03  0.00000000000E+00 0.  1.
         23    2    1    2    0    0 -0.46202470546E+02 -0.79690401682E+02 -0.13987705333E+03  0.19111099359E+03  0.92046691521E+02 0.  0.
          5    1    1    2  502    0  0.21647210566E+02 -0.35096323741E+01  0.45364962447E+02  0.50560572213E+02  0.41800000000E+01 0.  1.
         -5    1    1    2    0  502  0.24555259981E+02  0.83200034056E+02 -0.59816356565E+02  0.10545461286E+03  0.41800000000E+01 0.  1.
        -11    1    3    3    0    0 -0.53952221274E+02 -0.51183057639E+02 -0.35073653454E+02  0.82223529091E+02  0.00000000000E+00 0. -1.
         11    1    3    3    0    0  0.77497507272E+01 -0.28507344044E+02 -0.10480339987E+03  0.10888746450E+03  0.00000000000E+00 0.  1.
</event>
<event>
 7    1  0.5831876E-006  0.1205524E+03  0.7561462E-02  0.1242189E+00
          1   -1    0    0  501    0  0.00000000000E+00  0.00000000000E+00  0.43025158601E+03  0.43025158601E+03  0.00000000000E+00 0. -1.
         -1   -1    0    0    0  501 -0.00000000000E+00 -0.00000000000E+00 -0.60299014926E+02  0.60299014926E+02  0.00000000000E+00 0.  1.
         23    2    1    2    0    0 -0.10151146044E+03 -0.23001039330E+02  0.75085948928E+02  0.15376195517E+03  0.84683024985E+02 0.  0.
          5    1    1    2  502    0  0.92541232584E+02  0.14240222017E+02  0.85064308694E+02  0.12657042571E+03  0.41800000000E+01 0.  1.
         -5    1    1    2    0  502  0.89702278589E+01  0.87608173130E+01  0.20980231346E+03  0.21021822005E+03  0.41800000000E+01 0.  1.
        -11    1    3    3    0    0 -0.64464426482E+02  0.28696290962E+02  0.40748846940E+02  0.81483789330E+02  0.00000000000E+00 0.  1.
         11    1    3    3    0    0 -0.37047033960E+02 -0.51697330293E+02  0.34337101988E+02  0.72278165842E+02  0.00000000000E+00 0. -1.
</event>
<event>
 7    1  0.5831876E-006  0.9108403E+02  0.7561462E-02  0.1300248E+00
         -2   -1    0    0    0  501 -0.00000000000E+00  0.00000000000E+00  0.88968663523E+02  0.88968663523E+02  0.00000000000E+00 0.  1.
          2   -1    0    0  501    0  0.00000000000E+00 -0.00000000000E+00 -0.14021691873E+03  0.14021691873E+03  0.00000000000E+00 0. -1.
         23    2    1    2    0    0  0.40832359705E+02 -0.51708019592E+01  0.42745190309E+01  0.94706623015E+02  0.85188345083E+02 0.  0.
          5    1    1    2  502    0 -0.23028520442E+02 -0.44178085846E+02 -0.63957162693E+02  0.81178858594E+02  0.41800000000E+01 0. -1.
         -5    1    1    2    0  502 -0.17803839263E+02  0.49348887805E+02  0.84343884549E+01  0.53300100645E+02  0.41800000000E+01 0.  1.
        -11    1    3    3    0    0  0.30544079701E+02 -0.35902016572E+02 -0.22907655254E+02  0.52408551477E+02  0.00000000000E+00 0.  1.
         11    1    3    3    0    0  0.10288280004E+02  0.30731214613E+02  0.27182174284E+02  0.42298071538E+02  0.00000000000E+00 0. -1.
</event>
<event>
 7    1  0.5831876E-006  0.1023793E+03  0.7561462E-02  0.1275371E+00
         -1   -1    0    0    0  501 -0.00000000000E+00  0.00000000000E+00  0.36392477706E+03  0.36392477706E+03  0.00000000000E+00 0.  1.
          1   -1    0    0  501    0  0.00000000000E+00 -0.00000000000E+00 -0.38911585922E+02  0.38911585922E+02  0.00000000000E+00 0. -1.
         23    2    1    2    0    0  0.25349515863E+02  0.66471285024E+01  0.21242704828E+03  0.23251261330E+03  0.90829963283E+02 0.  0.
          5    1    1    2  502    0  0.48179744825E+02  0.60747305706E+01  0.66742975478E+02  0.82645552442E+02  0.41800000000E+01 0.  1.
         -5    1    1    2    0  502 -0.73529260688E+02 -0.12721859073E+02  0.45843167375E+02  0.87678197236E+02  0.41800000000E+01 0.  1.
        -11    1    3    3    0    0 -0.22072718640E+02  0.22264485835E+02  0.30058093855E+02  0.43432720889E+02  0.00000000000E+00 0. -1.
         11    1    3    3    0    0  0.47422234503E+02 -0.15617357332E+02  0.18236895443E+03  0.18907989241E+03  0.00000000000E+00 0.  1.
</event>
<event>
 7    1  0.5831876E-006  0.6300576E+02  0.7561462E-02  0.1385634E+00
         -2   -1    0    0    0  501 -0.00000000000E+00  0.00000000000E+00  0.42785378743E+03  0.42785378743E+03  0.00000000000E+00 0. -1.
          2   -1    0    0  501    0  0.00000000000E+00 -0.00000000000E+00 -0.34225746585E+02  0.34225746585E+02  0.00000000000E+00 0.  1.
         23    2    1    2    0    0  0.16399854017E+02 -0.22465027418E+02  0.25988167885E+03  0.27685472779E+03  0.91304001158E+02 0.  0.
          5    1    1    2  502    0 -0.33584496809E+02  0.60669102605E+01  0.15145169956E+03  0.15530555536E+03  0.41800000000E+01 0.  1.
         -5    1    1    2    0  502  0.17184642793E+02  0.16398117158E+02 -0.17705337565E+02  0.29919250869E+02  0.41800000000E+01 0.  1.
        -11    1    3    3    0    0  0.28825381159E+01  0.21408492113E+02  0.11906471167E+02  0.24665697156E+02  0.00000000000E+00 0.  1.
         11    1    3    3    0    0  0.13517315901E+02 -0.43873519531E+02  0.24797520769E+03  0.25218903063E+03  0.00000000000E+00 0. -1.
</event>
<event>
 7    1  0.5831876E-006  0.1301185E+03  0.7561462E-02  0.1227280E+00
          1   -1    0    0  501    0  0.00000000000E+00  0.00000000000E+00  0.87914961305E+03  0.87914961305E+03  0.00000000000E+00 0. -1.
         -1   -1    0    0    0  501 -0.00000000000E+00 -0.00000000000E+00 -0.19480055360E+02  0.19480055360E+02  0.00000000000E+00 0.  1.
         23    2    1    2    0    0 -0.58628267000E+02 -0.44932305301E+02  0.33350076550E+03  0.35277538119E+03  0.88156243297E+02 0.  0.
          5    1    1    2  502    0  0.27849305128E+02  0.87861309928E+02  0.33009560506E+03  0.34274739162E+03  0.41800000000E+01 0. -1.
         -5    1    1    2    0  502  0.30778961872E+02 -0.42929004627E+02  0.19607318712E+03  0.20310689560E+03  0.41800000000E+01 0. -1.
        -11    1    3    3    0    0  0.21598723796E+01  0.23416025660E+02  0.65181867593E+02  0.69293947566E+02  0.00000000000E+00 0. -1.
         11    1    3    3    0    0 -0.60788139379E+02 -0.68348330960E+02  0.26831889791E+03  0.28348143362E+03  0.00000000000E+00 0.  1.
</event>
<event>
 7    1  0.5831876E-006  0.5116724E+02  0.7561462E-02  0.1439146E+00
         -2   -1    0    0    0  501 -0.00000000000E+00  0.00000000000E+00  0.17069886889E+02  0.17069886889E+02  0.00000000000E+00 0.  1.
          2   -1    0    0  501    0  0.00000000000E+00 -0.00000000000E+00 -0.14881788476E+04  0.14881788476E+04  0.00000000000E+00 0. -1.
         23    2    1    2    0    0  0.26325962678E+02 -0.22967387673E+02 -0.15158255240E+03  0.18030657215E+03  0.91173639599E+02 0.  0.
          5    1    1    2  502    0 -0.19114475132E+02 -0.22254102813E+01 -0.12552386522E+04  0.12553931106E+04  0.41800000000E+01 0. -1.
         -5    1    1    2    0  502 -0.72114875457E+01  0.25192797955E+02 -0.64287756067E+02  0.69549051766E+02  0.41800000000E+01 0.  1.
        -11    1    3    3    0    0  0.38499899624E+02 -0.13922266077E+02 -0.15845311814E+03  0.16365653794E+03  0.00000000000E+00 0. -1.
         11    1    3    3    0    0 -0.12173936946E+02 -0.90451215966E+01  0.68705657325E+01  0.16650034203E+02  0.00000000000E+00 0.  1.
</event>
<event>
 7    1  0.5831876E-006  0.6361967E+02  0.7561462E-02  0.1383240E+00
          2   -1    0    0  501    0  0.00000000000E+00  0.00000000000E+00  0.28206492104E+03  0.28206492104E+03  0.00000000000E+00 0. -1.
         -2   -1    0    0    0  501 -0.00000000000E+00 -0.00000000000E+00 -0.75701356507E+02  0.75701356507E+02  0.00000000000E+00 0.  1.
         23    2    1    2    0    0  0.18806408647E+02  0.46913511309E+02 -0.12890625173E+02  0.10517753062E+03  0.91332284431E+02 0.  0.
          5    1    1    2  502    0 -0.15965885622E+02 -0.38189262992E+02  0.23235912296E+03  0.23605415424E+03  0.41800000000E+01 0. -1.
         -5    1    1    2    0  502 -0.28405230254E+01 -0.87242483170E+01 -0.13104933256E+02  0.16534592689E+02  0.41800000000E+01 0.  1.
        -11    1    3    3    0    0  0.36580038786E+02  0.44519174582E+02 -0.41780651747E+02  0.71173583607E+02  0.00000000000E+00 0.  1.
         11    1    3    3    0    0 -0.17773630139E+02  0.23943367273E+01  0.28890026574E+02  0.34003947008E+02  0.00000000000E+00 0. -1.
</event>
<event>
 7    1  0.5831876E-006  0.1933485E+03  0.7561462E-02  0.1155475E+00
         -2   -1    0    0    0  501 -0.00000000000E+00  0.00000000000E+00  0.45676134864E+02  0.45676134864E+02  0.00000000000E+00 0.  1.
          2   -1    0    0  501    0  0.00000000000E+00 -0.00000000000E+00 -0.99866011812E+03  0.99866011812E+03  0.00000000000E+00 0. -1.
         23    2    1    2    0    0 -0.12478391295E+03  0.13232247248E+03 -0.40962132462E+03  0.45784001104E+03  0.93528522233E+02 0.  0.
          5    1    1    2  502    0  0.10672557676E+03 -0.11286729844E+03 -0.26773959868E+03  0.30956637558E+03  0.41800000000E+01 0. -1.
         -5    1    1    2    0  502  0.18058336191E+02 -0.19455174037E+02 -0.27562305996E+03  0.27692986637E+03  0.41800000000E+01 0. -1.
        -11    1    3    3    0    0 -0.67319391059E+02  0.13061533717E+03 -0.28839777988E+03  0.32367506261E+03  0.00000000000E+00 0.  1.
         11    1    3    3    0    0 -0.57464521889E+02  0.17071353043E+01 -0.12122354474E+03  0.13416494843E+03  0.00000000000E+00 0. -1.
</event>
<event>
 7    1  0.5831876E-006  0.1530123E+03  0.7561462E-02  0.1196820E+00
          1   -1    0    0  501    0  0.00000000000E+00  0.00000000000E+00  0.66608479386E+03  0.66608479386E+03  0.00000000000E+00 0. -1.
         -1   -1    0    0    0  501 -0.00000000000E+00 -0.00000000000E+00 -0.37749758542E+02  0.37749758542E+02  0.00000000000E+00 0.  1.
         23    2    1    2    0    0 -0.11526165180E+03  0.38399809494E+01  0.27120065676E+03  0.30824391888E+03  0.90357752681E+02 0.  0.
          5    1    1    2  502    0  0.92953025229E+02 -0.52328032914E+02  0.16819187724E+03  0.19920960794E+03  0.41800000000E+01 0.  1.
         -5    1    1    2    0  502  0.22308626570E+02  0.48488051965E+02  0.18894250132E+03  0.19638102558E+03  0.41800000000E+01 0.  1.
        -11    1    3    3    0    0 -0.92017383933E+02 -0.36650199937E+02  0.16904631253E+03  0.19592624092E+03  0.00000000000E+00 0. -1.
         11    1    3    3    0    0 -0.23244267866E+02  0.40490180886E+02  0.10215434424E+03  0.11231767796E+03  0.00000000000E+00 0.  1.
</event>
<event>
 7    1  0.5831876E-006  0.1504751E+03  0.7561462E-02  0.1199890E+00
         -3   -1    0    0    0  501 -0.00000000000E+00  0.00000000000E+00  0.27276285084E+03  0.27276285084E+03  0.00000000000E+00 0.  1.
          3   -1    0    0  501    0  0.00000000000E+00 -0.00000000000E+00 -0.12132703933E+03  0.12132703933E+03  0.00000000000E+00 0. -1.
         23    2    1    2    0    0 -0.12154196139E+03 -0.75964457246E+02  0.10367542995E+03  0.19794740810E+03  0.88834308993E+02 0.  0.
          5    1    1    2  502    0  0.11168089577E+03  0.84896426454E+02 -0.61252893671E+01  0.14048137696E+03  0.41800000000E+01 0.  1.
         -5    1    1    2    0  502  0.98610656246E+01 -0.89319692076E+01  0.53885670933E+02  0.55661105101E+02  0.41800000000E+01 0.  1.
        -11    1    3    3    0    0 -0.49777266103E+02 -0.13655009647E+02  0.87428946365E+02  0.10152859780E+03  0.00000000000E+00 0.  1.
         11    1    3    3    0    0 -0.71764695289E+02 -0.62309447600E+02  0.16246483582E+02  0.96418810296E+02  0.00000000000E+00 0. -1.
</event>
<event>
 6    1  0.2100929E-005  0.5961559E+02  0.7561462E-02  0.1399452E+00
          2   -1    0    0  501    0  0.00000000000E+00  0.00000000000E+00  0.80407495122E+03  0.80407495122E+03  0.00000000000E+00 0. -1.
         -2   -1    0    0    0  501 -0.00000000000E+00 -0.00000000000E+00 -0.40789020521E+02  0.40789020521E+02  0.00000000000E+00 0.  1.
          5    1    1    2  502    0 -0.10025372526E+02  0.50839415938E+02  0.71520463188E+03  0.71709155076E+03  0.41800000000E+01 0. -1.
         -5    1    1    2    0  502  0.18402041487E+02 -0.32205793250E+02  0.77195969232E+02  0.85746943476E+02  0.41800000000E+01 0.  1.
        -11    1    1    2    0    0  0.57065379102E+01 -0.13955751192E+02 -0.18026685601E+02  0.23500828922E+02  0.00000000000E+00 0. -1.
         11    1    1    2    0    0 -0.14083206872E+02 -0.46778714961E+01 -0.11087984819E+02  0.18524648576E+02  0.00000000000E+00 0.  1.
</event>
<event>
 7    1  0.5831876E-006  0.9051997E+02  0.7561462E-02  0.1301597E+00
          4   -1    0    0  501    0  0.00000000000E+00  0.00000000000E+00  0.50958224739E+02  0.50958224739E+02  0.00000000000E+00 0. -1.
         -4   -1    0    0    0  501 -0.00000000000E+00 -0.00000000000E+00 -0.24416119576E+03  0.24416119576E+03  0.00000000000E+00 0.  1.
         23    2    1    2    0    0  0.12713775958E+02 -0.21583533349E+02 -0.10430357453E+03  0.13962712918E+03  0.89381264997E+02 0.  0.
          5    1    1    2  502    0 -0.16643499205E+02  0.53569546644E+02 -0.10508112049E+03  0.11918983462E+03  0.41800000000E+01 0. -1.
         -5    1    1    2    0  502  0.39297232470E+01 -0.31986013295E+02  0.16181723994E+02  0.36302456703E+02  0.41800000000E+01 0. -1.
        -11    1    3    3    0    0  0.40765101182E+02 -0.41280716775E+02 -0.58193381303E+02  0.82172749007E+02  0.00000000000E+00 0. -1.
         11    1    3    3    0    0 -0.28051325224E+02  0.19697183426E+02 -0.46110193226E+02  0.57454380173E+02  0.00000000000E+00 0.  1.
</event>
<event>
 7    1  0.5831876E-006  0.9148746E+02  0.7561462E-02  0.1299289E+00
          2   -1    0    0  501    0  0.00000000000E+00  0.00000000000E+00  0.30249190663E+03  0.30249190663E+03  0.00000000000E+00 0. -1.
         -2   -1    0    0    0  501 -0.00000000000E+00 -0.00000000000E+00 -0.46873967920E+02  0.46873967920E+02  0.00000000000E+00 0.  1.
         23    2    1    2    0    0 -0.26541473780E+02  0.14868350499E+00  0.47118714167E+02  0.10477856237E+03  0.89743534416E+02 0.  0.
          5    1    1    2  502    0 -0.19718359874E+02 -0.28688110232E+02  0.17939528617E+03  0.18278939380E+03  0.41800000000E+01 0. -1.
         -5    1    1    2    0  502  0.46259833654E+02  0.28539426727E+02  0.29103938366E+02  0.61797918379E+02  0.41800000000E+01 0. -1.
        -11    1    3    3    0    0 -0.13206595456E+01  0.43351909440E+02  0.25199048991E+02  0.50160983481E+02  0.00000000000E+00 0.  1.
         11    1    3    3    0    0 -0.25220814235E+02 -0.43203225935E+02  0.21919665176E+02  0.54617578885E+02  0.00000000000E+00 0. -1.
</event>
<event>
 7    1  0.5831876E-006  0.7632848E+02  0.7561462E-02  0.1339806E+00
          1   -1    0    0  501    0  0.00000000000E+00  0.00000000000E+00  0.77310389389E+02  0.77310389389E+02  0.00000000000E+00 0. -1.
         -1   -1    0    0    0  501 -0.00000000000E+00 -0.00000000000E+00 -0.18001445339E+03  0.18001445339E+03  0.00000000000E+00 0.  1.
         23    2    1    2    0    0 -0.16567275396E+02  0.27240268259E+02 -0.47722807321E+02  0.11700988893E+03  0.10196735233E+03 0.  0.
          5    1    1    2  502    0 -0.10461527630E+02 -0.19030997555E+02  0.37494449158E+02  0.43530776997E+02  0.41800000000E+01 0. -1.
         -5    1    1    2    0  502  0.27028803026E+02 -0.82092707046E+01 -0.92475705834E+02  0.96784176848E+02  0.41800000000E+01 0. -1.
        -11    1    3    3    0    0  0.18788148718E+02 -0.29592715182E+02 -0.33697422303E+02  0.48623446956E+02  0.00000000000E+00 0.  1.
         11    1    3    3    0    0 -0.35355424114E+02  0.56832983441E+02 -0.14025385018E+02  0.68386441975E+02  0.00000000000E+00 0. -1.
</event>
<event>
 7    1  0.5831876E-006  0.1356606E+03  0.7561462E-02  0.1219290E+00
          1   -1    0    0  501    0  0.00000000000E+00  0.00000000000E+00  0.51393625285E+03  0.51393625285E+03  0.00000000000E+00 0. -1.
         -1   -1    0    0    0  501 -0.00000000000E+00 -0.00000000000E+00 -0.56710166623E+02  0.56710166623E+02  0.00000000000E+00 0.  1.
         23    2    1    2    0    0 -0.43619714200E+02 -0.96872854979E+02  0.76701494261E+02  0.16004570720E+03  0.91893850019E+02 0.  0.
          5    1    1    2  502    0  0.51203407080E+02  0.14263679181E+02  0.63698809863E+02  0.83067756791E+02  0.41800000000E+01 0.  1.
         -5    1    1    2    0  502 -0.75836928803E+01  0.82609175798E+02  0.31682578211E+03  0.32753295549E+03  0.41800000000E+01 0. -1.
        -11    1    3    3    0    0 -0.34984753898E+02 -0.11210269277E+03  0.48939294051E+02  0.12722421638E+03  0.00000000000E+00 0.  1.
         11    1    3    3    0    0 -0.86349603024E+01  0.15229837794E+02  0.27762200210E+02  0.32821490812E+02  0.00000000000E+00 0. -1.
</event>
<event>
 7    1  0.5831876E-006  0.9190834E+02  0.7561462E-02  0.1298295E+00
         -2   -1    0    0    0  501 -0.00000000000E+00  0.00000000000E+00  0.44349641502E+02  0.44349641502E+02  0.00000000000E+00 0.  1.
          2   -1    0    0  501    0  0.00000000000E+00 -0.00000000000E+00 -0.63203716491E+03  0.63203716491E+03  0.00000000000E+00 0. -1.
         23    2    1    2    0    0 -0.89529055763E+01  0.36032492660E+02 -0.31945949059E+02  0.10553232364E+03  0.93477444478E+02 0.  0.
          5    1    1    2  502    0 -0.28620157501E+02 -0.65083186576E+02 -0.20790476127E+03  0.21976532199E+03  0.41800000000E+01 0. -1.
         -5    1    1    2    0  502  0.37573063077E+02  0.29050693916E+02 -0.34783681308E+03  0.35108916078E+03  0.41800000000E+01 0. -1.
        -11    1    3    3    0    0 -0.21032852671E+02 -0.54377916610E+01 -0.53147170768E+02  0.57415783808E+02  0.00000000000E+00 0. -1.
         11    1    3    3    0    0  0.12079947095E+02  0.41470284321E+02  0.21201221709E+02  0.48116539832E+02  0.00000000000E+00 0.  1.
</event>
<event>
 7    1  0.5831876E-006  0.2118362E+03  0.7561462E-02  0.1140120E+00
         -2   -1    0    0    0  501 -0.00000000000E+00  0.00000000000E+00  0.36330131100E+02  0.36330131100E+02  0.00000000000E+00 0.  1.
          2   -1    0    0  501    0  0.00000000000E+00 -0.00000000000E+00 -0.16660348168E+04  0.16660348168E+04  0.00000000000E+00 0. -1.
         23    2    1    2    0    0 -0.84932682727E+02 -0.18873020114E+03 -0.52372838995E+03  0.57025947235E+03  0.89843140772E+02 0.  0.
          5    1    1    2  502    0  0.58299425960E+02  0.11502951860E+03 -0.93643695967E+03  0.94528422448E+03  0.41800000000E+01 0.  1.
         -5    1    1    2    0  502  0.26633256767E+02  0.73700682539E+02 -0.16953933603E+03  0.18682125103E+03  0.41800000000E+01 0.  1.
        -11    1    3    3    0    0  0.38876553055E+01 -0.57937332387E+02 -0.22382388541E+03  0.23123360489E+03  0.00000000000E+00 0. -1.
         11    1    3    3    0    0 -0.88820338033E+02 -0.13079286875E+03 -0.29990450454E+03  0.33902586746E+03  0.00000000000E+00 0.  1.
</event>
<event>
 7    1  0.5831876E-006  0.2632182E+03  0.7561462E-02  0.1105225E+00
         -1   -1    0    0    0  501 -0.00000000000E+00  0.00000000000E+00  0.18304626901E+03  0.18304626901E+03  0.00000000000E+00 0.  1.
          1   -1    0    0  501    0  0.00000000000E+00 -0.00000000000E+00 -0.40492869183E+03  0.40492869183E+03  0.00000000000E+00 0. -1.
         23    2    1    2    0    0  0.23451928791E+03  0.82528044625E+02 -0.10256826640E+03  0.28516322418E+03  0.94803167669E+02 0.  0.
          5    1    1    2  502    0 -0.59040259788E+02  0.32442984129E+02 -0.18302215313E+02  0.69933847173E+02  0.41800000000E+01 0.  1.
         -5    1    1    2    0  502 -0.17547902812E+03 -0.11497102875E+03 -0.10101194111E+03  0.23287788948E+03  0.41800000000E+01 0.  1.
        -11    1    3    3    0    0  0.72564893232E+02  0.33284287608E+02  0.12042886823E+02  0.80737467475E+02  0.00000000000E+00 0.  1.
         11    1    3    3    0    0  0.16195439468E+03  0.49243757017E+02 -0.11461115322E+03  0.20442575670E+03  0.00000000000E+00 0. -1.
</event>
<event>
 7    1  0.5831876E-006  0.7239721E+02  0.7561462E-02  0.1352126E+00
         -2   -1    0    0    0  501 -0.00000000000E+00  0.00000000000E+00  0.45283602230E+02  0.45283602230E+02  0.00000000000E+00 0. -1.
          2   -1    0    0  501    0  0.00000000000E+00 -0.00000000000E+00 -0.26491798903E+03  0.26491798903E+03  0.00000000000E+00 0.  1.
         23    2    1    2    0    0  0.90903283389E+01 -0.16821245157E+02 -0.88069352637E+02  0.12765644273E+03  0.90412212337E+02 0.  0.
          5    1    1    2  502    0 -0.42876103104E+01  0.36787229901E+02  0.10674699261E+02  0.38769904440E+02  0.41800000000E+01 0. -1.
         -5    1    1    2    0  502 -0.48027180285E+01 -0.19965984744E+02 -0.14223973343E+03  0.14377524409E+03  0.41800000000E+01 0. -1.
        -11    1    3    3    0    0 -0.17330340696E+02  0.28936201391E+02 -0.57363114617E+02  0.66544506747E+02  0.00000000000E+00 0.  1.
         11    1    3    3    0    0  0.26420669035E+02 -0.45757446547E+02 -0.30706238019E+02  0.61111935987E+02  0.00000000000E+00 0. -1.
</event>
<event>
 7    1  0.5831876E-006  0.1463816E+03  0.7561462E-02  0.1204991E+00
          1   -1    0    0  501    0  0.00000000000E+00  0.00000000000E+00  0.23480904622E+04  0.23480904622E+04  0.00000000000E+00 0. -1.
         -1   -1    0    0    0  501 -0.00000000000E+00 -0.00000000000E+00 -0.19909372103E+02  0.19909372103E+02  0.00000000000E+00 0.  1.
         23    2    1    2    0    0  0.12122237865E+03  0.55385103050E+02  0.40438706457E+03  0.43554186851E+03  0.91681222207E+02 0.  0.
          5    1    1    2  502    0 -0.13128395943E+03 -0.39678256589E+02  0.11112601279E+04  0.11196992392E+04  0.41800000000E+01 0.  1.
         -5    1    1    2    0  502  0.10061580782E+02 -0.15706846461E+02  0.81253389763E+03  0.81275872658E+03  0.41800000000E+01 0.  1.
        -11    1    3    3    0    0  0.41865324820E+02  0.34828186424E+02  0.57888830781E+02  0.79478454445E+02  0.00000000000E+00 0.  1.
         11    1    3    3    0    0  0.79357053828E+02  0.20556916626E+02  0.34649823379E+03  0.35606341406E+03  0.00000000000E+00 0. -1.
</event>
<event>
 7    1  0.5831876E-006  0.1241384E+03  0.7561462E-02  0.1236422E+00
          2   -1    0    0  501    0  0.00000000000E+00  0.00000000000E+00  0.17572681305E+04  0.17572681305E+04  0.00000000000E+00 0. -1.
         -2   -1    0    0    0  501 -0.00000000000E+00 -0.00000000000E+00 -0.20380460236E+02  0.20380460236E+02  0.00000000000E+00 0.  1.
         23    2    1    2    0    0  0.21287146392E+02  0.30766445870E+02  0.13229764419E+03  0.16437842126E+03  0.90099289261E+02 0.  0.
          5    1    1    2  502    0  0.13704588422E+02 -0.88670144519E+02  0.11680977877E+04  0.11715460402E+04  0.41800000000E+01 0. -1.
         -5    1    1    2    0  502 -0.34991734814E+02  0.57903698649E+02  0.43649223834E+03  0.44172412924E+03  0.41800000000E+01 0.  1.
        -11    1    3    3    0    0 -0.17239413730E+01  0.56284526554E+02  0.50428045930E+02  0.75590394361E+02  0.00000000000E+00 0.  1.
         11    1    3    3    0    0  0.23011087765E+02 -0.25518080684E+02  0.81869598255E+02  0.88788026898E+02  0.00000000000E+00 0. -1.
</event>
<event>
 7    1  0.5831876E-006  0.1627483E+03  0.7561462E-02  0.1185628E+00
         -1   -1    0    0    0  501 -0.00000000000E+00  0.00000000000E+00  0.52215711219E+02  0.52215711219E+02  0.00000000000E+00 0.  1.
          1   -1    0    0  501    0  0.00000000000E+00 -0.00000000000E+00 -0.56004245651E+03  0.56004245651E+03  0.00000000000E+00 0. -1.
         23    2    1    2    0    0  0.10998038280E+03 -0.71540806465E+02 -0.26854266850E+03  0.31206232629E+03  0.89743852670E+02 0.  0.
          5    1    1    2  502    0 -0.30379454763E+01  0.71833400448E+02 -0.73785145990E+02  0.10310667632E+03  0.41800000000E+01 0.  1.
         -5    1    1    2    0  502 -0.10694243733E+03 -0.29259398319E+00 -0.16549893081E+03  0.19708916513E+03  0.41800000000E+01 0.  1.
        -11    1    3    3    0    0  0.39834458608E+02  0.77568129929E+01 -0.13877037398E+03  0.14458274079E+03  0.00000000000E+00 0. -1.
         11    1    3    3    0    0  0.70145924195E+02 -0.79297619458E+02 -0.12977229452E+03  0.16747958549E+03  0.00000000000E+00 0.  1.
</event>
<event>
 7    1  0.5831876E-006  0.1049409E+03  0.7561462E-02  0.1270236E+00
          2   -1    0    0  501    0  0.00000000000E+00  0.00000000000E+00  0.90335261923E+03  0.90335261923E+03  0.00000000000E+00 0. -1.
         -2   -1    0    0    0  501 -0.00000000000E+00 -0.00000000000E+00 -0.28074462149E+02  0.28074462149E+02  0.00000000000E+00 0.  1.
         23    2    1    2    0    0 -0.31833141388E+02 -0.19660326182E+02  0.76246487419E+02  0.12179763824E+03  0.87299831160E+02 0.  0.
          5    1    1    2  502    0 -0.40108496925E+02 -0.36968840203E+00  0.49075096097E+03  0.49240512415E+03  0.41800000000E+01 0.  1.
         -5    1    1    2    0  502  0.71941638313E+02  0.20030014584E+02  0.30828070869E+03  0.31722431899E+03  0.41800000000E+01 0.  1.
        -11    1    3    3    0    0  0.95294762631E+01  0.29215561143E+02  0.28669999458E+02  0.42027714662E+02  0.00000000000E+00 0.  1.
         11    1    3    3    0    0 -0.41362617651E+02 -0.48875887325E+02  0.47576487961E+02  0.79769923577E+02  0.00000000000E+00 0. -1.
</event>
<event>
 7    1  0.5831876E-006  0.1103109E+03  0.7561462E-02  0.1259995E+00
          1   -1    0    0  501    0  0.00000000000E+00  0.00000000000E+00  0.53499374006E+03  0.53499374006E+03  0.00000000000E+00 0. -1.
         -1   -1    0    0    0  501 -0.00000000000E+00 -0.00000000000E+00 -0.26560623463E+02  0.26560623463E+02  0.00000000000E+00 0.  1.
         23    2    1    2    0    0  0.59205891825E+02 -0.17856352867E+02  0.15389832966E+03  0.18054680021E+03  0.71332070136E+02 0.  0.
          5    1    1    2  502    0  0.36476693898E+02  0.22789988576E+02  0.12433412427E+03  0.13162970651E+03  0.41800000000E+01 0. -1.
         -5    1    1    2    0  502 -0.95682585724E+02 -0.49336357090E+01  0.23020066267E+03  0.24937785680E+03  0.41800000000E+01 0. -1.
        -11    1    3    3    0    0  0.29493155990E+02 -0.36119218933E+02  0.13041521103E+03  0.13850116062E+03  0.00000000000E+00 0. -1.
         11    1    3    3    0    0  0.29712735835E+02  0.18262866066E+02  0.23483118634E+02  0.42045639590E+02  0.00000000000E+00 0.  1.
</event>
<event>
 7    1  0.5831876E-006  0.2490153E+03  0.7561462E-02  0.1113929E+00
          2   -1    0    0  501    0  0.00000000000E+00  0.00000000000E+00  0.17895795064E+03  0.17895795064E+03  0.00000000000E+00 0. -1.
         -2   -1    0    0    0  501 -0.00000000000E+00 -0.00000000000E+00 -0.50388516156E+03  0.50388516156E+03  0.00000000000E+00 0.  1.
         23    2    1    2    0    0 -0.60250404116E+02 -0.27565163783E+02 -0.26360295242E+03  0.28760466845E+03  0.94021164324E+02 0.  0.
          5    1    1    2  502    0  0.22224334280E+03  0.40737503365E+01 -0.64431119510E+02  0.23146822767E+03  0.41800000000E+01 0. -1.
         -5    1    1    2    0  502 -0.16199293868E+03  0.23491413446E+02  0.31068610039E+01  0.16377021608E+03  0.41800000000E+01 0.  1.
        -11    1    3    3    0    0  0.19371125530E+02 -0.25885020327E+02 -0.10902121251E+03  0.11371411328E+03  0.00000000000E+00 0. -1.
         11    1    3    3    0    0 -0.79621529646E+02 -0.16801434560E+01 -0.15458173991E+03  0.17389055518E+03  0.00000000000E+00 0.  1.
</event>
<event>
 7    1  0.5831876E-006  0.1032124E+03  0.7561462E-02  0.1273682E+00
         -1   -1    0    0    0  501 -0.00000000000E+00  0.00000000000E+00  0.81364111820E+02  0.81364111820E+02  0.00000000000E+00 0.  1.
          1   -1    0    0  501    0  0.00000000000E+00 -0.00000000000E+00 -0.24493605204E+03  0.24493605204E+03  0.00000000000E+00 0. -1.
         23    2    1    2    0    0  0.15875785841E+02  0.67519012545E+02 -0.80608662502E+01  0.11501233024E+03  0.91389282261E+02 0.  0.
          5    1    1    2  502    0 -0.37154567409E+02 -0.16774673683E+02 -0.15038277754E+03  0.15586630084E+03  0.41800000000E+01 0. -1.
         -5    1    1    2    0  502  0.21278781568E+02 -0.50744338862E+02 -0.51282964335E+01  0.55421532782E+02  0.41800000000E+01 0. -1.
        -11    1    3    3    0    0 -0.33472980414E+02  0.44826725474E+02  0.11805117071E+02  0.57177237810E+02  0.00000000000E+00 0. -1.
         11    1    3    3    0    0  0.49348766255E+02  0.22692287071E+02 -0.19865983321E+02  0.57835092433E+02  0.00000000000E+00 0.  1.
</event>
<event>
 7    1  0.5831876E-006  0.1102623E+03  0.7561462E-02  0.1260085E+00
          1   -1    0    0  501    0  0.00000000000E+00  0.00000000000E+00  0.21531002076E+02  0.21531002076E+02  0.00000000000E+00 0. -1.
         -1   -1    0    0    0  501 -0.00000000000E+00 -0.00000000000E+00 -0.65335752505E+03  0.65335752505E+03  0.00000000000E+00 0.  1.
         23    2    1    2    0    0  0.13939512898E+02  0.37858125573E+02 -0.34125119265E+03  0.35596999472E+03  0.92923156230E+02 0.  0.
          5    1    1    2  502    0 -0.55735767079E+02 -0.52452013582E+02 -0.23811301594E+03  0.25014589787E+03  0.41800000000E+01 0. -1.
         -5    1    1    2    0  502  0.41796254181E+02  0.14593888009E+02 -0.52462314384E+02  0.68772634538E+02  0.41800000000E+01 0. -1.
        -11    1    3    3    0    0  0.48750016745E+02  0.42005252305E+02 -0.25184810129E+03  0.25993936116E+03  0.00000000000E+00 0. -1.
         11    1    3    3    0    0 -0.34810503847E+02 -0.41471267319E+01 -0.89403091359E+02  0.96030633564E+02  0.00000000000E+00 0.  1.
</event>
<event>
 7    1  0.5831876E-006  0.1494672E+03  0.7561462E-02  0.1201129E+00
          2   -1    0    0  501    0  0.00000000000E+00  0.00000000000E+00  0.65945027717E+03  0.65945027717E+03  0.00000000000E+00 0. -1.
         -2   -1    0    0    0  501 -0.00000000000E+00 -0.00000000000E+00 -0.41880005954E+02  0.41880005954E+02  0.00000000000E+00 0.  1.
         23    2    1    2    0    0  0.68941817790E+01 -0.12268935232E+03  0.22641525376E+03  0.27266920430E+03  0.89355586975E+02 0.  0.
          5    1    1    2  502    0 -0.64789317796E+02  0.59231457898E+02  0.16999855200E+03  0.19137137034E+03  0.41800000000E+01 0. -1.
         -5    1    1    2    0  502  0.57895136017E+02  0.63457894418E+02  0.22115646546E+03  0.23728970849E+03  0.41800000000E+01 0. -1.
        -11    1    3    3    0    0  0.15260186193E+02 -0.91206357917E+02  0.78776202705E+02  0.12147906453E+03  0.00000000000E+00 0.  1.
         11    1    3    3    0    0 -0.83660044139E+01 -0.31482994399E+02  0.14763905105E+03  0.15119013976E+03  0.00000000000E+00 0. -1.
</event>
<event>
 7    1  0.5831876E-006  0.1265260E+03  0.7561462E-02  0.1232703E+00
          2   -1    0    0  501    0  0.00000000000E+00  0.00000000000E+00  0.45058686776E+03  0.45058686776E+03  0.00000000000E+00 0. -1.
         -2   -1    0    0    0  501 -0.00000000000E+00 -0.00000000000E+00 -0.10189866013E+03  0.10189866013E+03  0.00000000000E+00 0.  1.
         23    2    1    2    0    0  0.65055307625E+02  0.44667942918E+01 -0.45742524762E+02  0.13358848903E+03  0.10724439625E+03 0.  0.
          5    1    1    2  502    0 -0.74365218551E+02 -0.45210957214E+02  0.17509714914E+03  0.19557786281E+03  0.41800000000E+01 0.  1.
         -5    1    1    2    0  502  0.93099109260E+01  0.40744162922E+02  0.21933358325E+03  0.22331917606E+03  0.41800000000E+01 0.  1.
        -11    1    3    3    0    0 -0.27938869778E+02 -0.10265489957E+02 -0.20395753617E+02  0.36082509532E+02  0.00000000000E+00 0.  1.
         11    1    3    3    0    0  0.92994177402E+02  0.14732284248E+02 -0.25346771145E+02  0.97505979495E+02  0.00000000000E+00 0. -1.
</event>
<event>
 7    1  0.5831876E-006  0.7013110E+02  0.7561462E-02  0.1359648E+00
          2   -1    0    0  501    0  0.00000000000E+00  0.00000000000E+00  0.51742256984E+02  0.51742256984E+02  0.00000000000E+00 0.  1.
         -2   -1    0    0    0  501 -0.00000000000E+00 -0.00000000000E+00 -0.23682414637E+03  0.23682414637E+03  0.00000000000E+00 0. -1.
         23    2    1    2    0    0 -0.42007789009E+01  0.38307127911E+01 -0.92407455368E+02  0.13278288222E+03  0.95183166055E+02 0.  0.
          5    1    1    2  502    0  0.48585711173E+01 -0.25285534504E+02  0.24978251212E+02  0.36115777744E+02  0.41800000000E+01 0. -1.
         -5    1    1    2    0  502 -0.65779221633E+00  0.21454821713E+02 -0.11765268523E+03  0.11966774339E+03  0.41800000000E+01 0. -1.
        -11    1    3    3    0    0 -0.47229278930E+02  0.11483188247E+02 -0.65122014724E+02  0.81260969735E+02  0.00000000000E+00 0.  1.
         11    1    3    3    0    0  0.43028500029E+02 -0.76524754558E+01 -0.27285440644E+02  0.51521912489E+02  0.00000000000E+00 0. -1.
</event>
<event>
 7    1  0.5831876E-006  0.7839194E+02  0.7561462E-02  0.1333678E+00
          4   -1    0    0  501    0  0.00000000000E+00  0.00000000000E+00  0.14758932687E+03  0.14758932687E+03  0.00000000000E+00 0. -1.
         -4   -1    0    0    0  501 -0.00000000000E+00 -0.00000000000E+00 -0.18468294144E+03  0.18468294144E+03  0.00000000000E+00 0.  1.
         23    2    1    2    0    0  0.26691881638E+01 -0.47721764305E+02 -0.93434051212E+02  0.13753713302E+03  0.88893473768E+02 0.  0.
          5    1    1    2  502    0  0.12321549390E+02  0.15618134334E+02  0.12002711082E+03  0.12173629874E+03  0.41800000000E+01 0. -1.
         -5    1    1    2    0  502 -0.14990737554E+02  0.32103629971E+02 -0.63686674179E+02  0.72998836551E+02  0.41800000000E+01 0.  1.
        -11    1    3    3    0    0  0.21936339839E+02 -0.68805633997E+02 -0.63524947956E+02  0.96181273063E+02  0.00000000000E+00 0.  1.
         11    1    3    3    0    0 -0.19267151675E+02  0.21083869692E+02 -0.29909103257E+02  0.41355859953E+02  0.00000000000E+00 0. -1.
</event>
<event>
 7    1  0.5831876E-006  0.1048440E+03  0.7561462E-02  0.1270427E+00
          1   -1    0    0  501    0  0.00000000000E+00  0.00000000000E+00  0.59722477496E+03  0.59722477496E+03  0.00000000000E+00 0. -1.
         -1   -1    0    0    0  501 -0.00000000000E+00 -0.00000000000E+00 -0.20733281882E+02  0.20733281882E+02  0.00000000000E+00 0.  1.
         23    2    1    2    0    0 -0.14576751594E+02  0.18406132898E+02  0.21994926144E+03  0.23938009162E+03  0.91508924392E+02 0.  0.
          5    1    1    2  502    0  0.60430483976E+02 -0.38516574752E+02  0.26021369684E+03  0.26993334427E+03  0.41800000000E+01 0. -1.
         -5    1    1    2    0  502 -0.45853732382E+02  0.20110441854E+02  0.96328534794E+02  0.10864462095E+03  0.41800000000E+01 0. -1.
        -11    1    3    3    0    0 -0.11768306266E+02 -0.33588395478E+02  0.48231546170E+02  0.59941266162E+02  0.00000000000E+00 0.  1.
         11    1    3    3    0    0 -0.28084453276E+01  0.51994528376E+02  0.17171771527E+03  0.17943882546E+03  0.00000000000E+00 0. -1.
</event>
<event>
 7    1  0.5831876E-006  0.1192720E+03  0.7561462E-02  0.1244303E+00
          2   -1    0    0  501    0  0.00000000000E+00  0.00000000000E+00  0.20293424389E+03  0.20293424389E+03  0.00000000000E+00 0.  1.
         -2   -1    0    0    0  501 -0.00000000000E+00 -0.00000000000E+00 -0.84994544533E+02  0.84994544533E+02  0.00000000000E+00 0. -1.
         23    2    1    2    0    0  0.56978361181E+02 -0.19082327653E+02  0.11948742402E+02  0.11331914923E+03  0.95329891772E+02 0.  0.
          5    1    1    2  502    0 -0.70337911447E+01  0.63644012142E+02  0.23590166135E+02  0.68366679294E+02  0.41800000000E+01 0. -1.
         -5    1    1    2    0  502 -0.49944570036E+02 -0.44561684489E+02  0.82400790819E+02  0.10624295990E+03  0.41800000000E+01 0. -1.
        -11    1    3    3    0    0 -0.70719498335E+00  0.30946024864E+02  0.19507897431E+02  0.36588449568E+02  0.00000000000E+00 0. -1.
         11    1    3    3    0    0  0.57685556164E+02 -0.50028352517E+02 -0.75591550299E+01  0.76730699660E+02  0.00000000000E+00 0.  1.
</event>
<event>
 7    1  0.5831876E-006  0.1606917E+03  0.7561462E-02  0.1187918E+00
         -1   -1    0    0    0  501 -0.00000000000E+00  0.00000000000E+00  0.10084891377E+03  0.10084891377E+03  0.00000000000E+00 0.  1.
          1   -1    0    0  501    0  0.00000000000E+00 -0.00000000000E+00 -0.36332844945E+03  0.36332844945E+03  0.00000000000E+00 0. -1.
         23    2    1    2    0    0  0.11048566540E+02  0.15391035904E+03 -0.99106772514E+02  0.20698441987E+03  0.95968371190E+02 0.  0.
          5    1    1    2  502    0  0.21652519123E+02 -0.22390555192E+02  0.13605478723E+02  0.34245437616E+02  0.41800000000E+01 0. -1.
         -5    1    1    2    0  502 -0.32701085663E+02 -0.13151980385E+03 -0.17697824189E+03  0.22294750573E+03  0.41800000000E+01 0. -1.
        -11    1    3    3    0    0  0.14007364673E+01  0.47630790238E+02  0.15765181278E+02  0.50191584774E+02  0.00000000000E+00 0.  1.
         11    1    3    3    0    0  0.96478300728E+01  0.10627956880E+03 -0.11487195379E+03  0.15679283510E+03  0.00000000000E+00 0. -1.
</event>
<event>
 7    1  0.5831876E-006  0.1012537E+03  0.7561462E-02  0.1277681E+00
         -1   -1    0    0    0  501 -0.00000000000E+00  0.00000000000E+00  0.16634574430E+02  0.16634574430E+02  0.00000000000E+00 0.  1.
          1   -1    0    0  501    0  0.00000000000E+00 -0.00000000000E+00 -0.92610650993E+03  0.92610650993E+03  0.00000000000E+00 0. -1.
         23    2    1    2    0    0 -0.67630273951E+01 -0.46477002612E+02 -0.26522156900E+03  0.28478040351E+03  0.92474576222E+02 0.  0.
          5    1    1    2  502    0  0.10196395245E+02  0.74285139890E+02 -0.21429126593E+03  0.22706930118E+03  0.41800000000E+01 0. -1.
         -5    1    1    2    0  502 -0.34333678496E+01 -0.27808137278E+02 -0.42995910057E+03  0.43089137968E+03  0.41800000000E+01 0. -1.
        -11    1    3    3    0    0  0.12800332273E+02  0.23315102942E+02 -0.38808271613E+02  0.47048108114E+02  0.00000000000E+00 0. -1.
         11    1    3    3    0    0 -0.19563359668E+02 -0.69792105555E+02 -0.22641329739E+03  0.23773229540E+03  0.00000000000E+00 0.  1.
</event>
<event>
 7    1  0.5831876E-006  0.8210387E+02  0.7561462E-02  0.1323185E+00
         -1   -1    0    0    0  501 -0.00000000000E+00  0.00000000000E+00  0.16938673493E+03  0.16938673493E+03  0.00000000000E+00 0.  1.
          1   -1    0    0  501    0  0.00000000000E+00 -0.00000000000E+00 -0.71697472889E+02  0.71697472889E+02  0.00000000000E+00 0. -1.
         23    2    1    2    0    0  0.76831380382E+01 -0.11311522163E+02  0.58023276971E+02  0.10914761361E+03  0.91430409283E+02 0.  0.
          5    1    1    2  502    0  0.26812918324E+02 -0.38559589483E+02  0.51701432244E+02  0.69973459442E+02  0.41800000000E+01 0. -1.
         -5    1    1    2    0  502 -0.34496056362E+02  0.49871111646E+02 -0.12035447179E+02  0.61963134767E+02  0.41800000000E+01 0. -1.
        -11    1    3    3    0    0  0.87034537108E+01  0.21630355486E+02 -0.15892619462E+02  0.28216976066E+02  0.00000000000E+00 0. -1.
         11    1    3    3    0    0 -0.10203156725E+01 -0.32941877649E+02  0.73915896433E+02  0.80930637540E+02  0.00000000000E+00 0.  1.
</event>
<event>
 7    1  0.5831876E-006  0.7435724E+02  0.7561462E-02  0.1345873E+00
         -2   -1    0    0    0  501 -0.00000000000E+00  0.00000000000E+00  0.38547131601E+02  0.38547131601E+02  0.00000000000E+00 0.  1.
          2   -1    0    0  501    0  0.00000000000E+00 -0.00000000000E+00 -0.98405701224E+03  0.98405701224E+03  0.00000000000E+00 0. -1.
         23    2    1    2    0    0  0.25783000858E+02 -0.16228854096E+01 -0.22224843919E+02  0.90527408008E+02  0.83868176463E+02 0.  0.
          5    1    1    2  502    0 -0.35101135827E+02 -0.17475927196E+02 -0.89765774253E+03  0.89852345149E+03  0.41800000000E+01 0. -1.
         -5    1    1    2    0  502  0.93181349696E+01  0.19098812606E+02 -0.25627294198E+02  0.33553284342E+02  0.41800000000E+01 0. -1.
        -11    1    3    3    0    0  0.22465250433E+01  0.39862887607E+02 -0.12614883449E+02  0.41871612909E+02  0.00000000000E+00 0. -1.
         11    1    3    3    0    0  0.23536475814E+02 -0.41485773017E+02 -0.96099604702E+01  0.48655795100E+02  0.00000000000E+00 0.  1.
</event>
<event>
 7    1  0.5831876E-006  0.7509450E+02  0.7561462E-02  0.1343579E+00
          2   -1    0    0  501    0  0.00000000000E+00  0.00000000000E+00  0.24667101928E+03  0.24667101928E+03  0.00000000000E+00 0. -1.
         -2   -1    0    0    0  501 -0.00000000000E+00 -0.00000000000E+00 -0.60727755656E+02  0.60727755656E+02  0.00000000000E+00 0.  1.
         23    2    1    2    0    0 -0.16462452273E+02 -0.32775075081E+02  0.24359701421E+02  0.99791703230E+02  0.89553174700E+02 0.  0.
          5    1    1    2  502    0  0.38070432659E+02 -0.33935939307E+00 -0.28767024456E+01  0.38408603523E+02  0.41800000000E+01 0. -1.
         -5    1    1    2    0  502 -0.21607980386E+02  0.33114434475E+02  0.16446026465E+03  0.16919846818E+03  0.41800000000E+01 0. -1.
        -11    1    3    3    0    0 -0.20673840371E+02 -0.50152635804E+02  0.46418706929E+02  0.71396014642E+02  0.00000000000E+00 0. -1.
         11    1    3    3    0    0  0.42113880987E+01  0.17377560723E+02 -0.22059005508E+02  0.28395688588E+02  0.00000000000E+00 0.  1.
</event>
<event>
 7    1  0.5831876E-006  0.1321964E+03  0.7561462E-02  0.1224233E+00
         -2   -1    0    0    0  501 -0.00000000000E+00  0.00000000000E+00  0.13518681501E+03  0.13518681501E+03  0.00000000000E+00 0.  1.
          2   -1    0    0  501    0  0.00000000000E+00 -0.00000000000E+00 -0.19547684103E+03  0.19547684103E+03  0.00000000000E+00 0. -1.
         23    2    1    2    0    0  0.10807442119E+03 -0.18646942943E+02  0.22526545162E+02  0.14483131742E+03  0.91874241609E+02 0.  0.
          5    1    1    2  502    0 -0.12656365326E+03  0.33086327034E+02 -0.92331655264E+02  0.16017387529E+03  0.41800000000E+01 0. -1.
         -5    1    1    2    0  502  0.18489232065E+02 -0.14439384091E+02  0.95150840826E+01  0.25658463329E+02  0.41800000000E+01 0. -1.
        -11    1    3    3    0    0  0.27990868138E+02 -0.54538249113E+01 -0.35149245997E+02  0.45262593821E+02  0.00000000000E+00 0.  1.
         11    1    3    3    0    0  0.80083553057E+02 -0.13193118031E+02  0.57675791158E+02  0.99568723600E+02  0.00000000000E+00 0. -1.
</event>
<event>
 7    1  0.5831876E-006  0.1414788E+03  0.7561462E-02  0.1211353E+00
          1   -1    0    0  501    0  0.00000000000E+00  0.00000000000E+00  0.33264227674E+03  0.33264227674E+03  0.00000000000E+00 0. -1.
         -1   -1    0    0    0  501 -0.00000000000E+00 -0.00000000000E+00 -0.80590112081E+02  0.80590112081E+02  0.00000000000E+00 0.  1.
         23    2    1    2    0    0  0.70160413348E+02  0.63882912073E+02  0.20535802553E+02  0.13349921499E+03  0.91634115706E+02 0.  0.
          5    1    1    2  502    0  0.17300982615E+02  0.24817125067E+02  0.30154171350E+02  0.42918063165E+02  0.41800000000E+01 0. -1.
         -5    1    1    2    0  502 -0.87461395963E+02 -0.88700037140E+02  0.20136219076E+03  0.23681511067E+03  0.41800000000E+01 0. -1.
        -11    1    3    3    0    0  0.44834165577E+02  0.84145917156E+02  0.44427597574E+00  0.95345871217E+02  0.00000000000E+00 0.  1.
         11    1    3    3    0    0  0.25326247771E+02 -0.20263005082E+02  0.20091526577E+02  0.38153343776E+02  0.00000000000E+00 0. -1.
</event>
<event>
 7    1  0.5831876E-006  0.1313692E+03  0.7561462E-02  0.1225438E+00
          1   -1    0    0  501    0  0.00000000000E+00  0.00000000000E+00  0.10165173641E+03  0.10165173641E+03  0.00000000000E+00 0. -1.
         -1   -1    0    0    0  501 -0.00000000000E+00 -0.00000000000E+00 -0.20294229692E+03  0.20294229692E+03  0.00000000000E+00 0.  1.
         23    2    1    2    0    0  0.64079573134E+01  0.40438824276E+02 -0.87820622886E+02  0.13428059330E+03  0.92964807896E+02 0.  0.
          5    1    1    2  502    0 -0.59218795990E+02 -0.76677787502E+02  0.18317728562E+02  0.98688198253E+02  0.41800000000E+01 0. -1.
         -5    1    1    2    0  502  0.52810838677E+02  0.36238963225E+02 -0.31787666184E+02  0.71625241771E+02  0.41800000000E+01 0.  1.
        -11    1    3    3    0    0  0.29743775371E+02 -0.20634404559E+02 -0.31645499364E+02  0.48082309167E+02  0.00000000000E+00 0.  1.
         11    1    3    3    0    0 -0.23335818058E+02  0.61073228835E+02 -0.56175123523E+02  0.86198284133E+02  0.00000000000E+00 0. -1.
</event>
<event>
 7    1  0.5831876E-006  0.1024801E+03  0.7561462E-02  0.1275165E+00
          1   -1    0    0  501    0  0.00000000000E+00  0.00000000000E+00  0.28662412227E+03  0.28662412227E+03  0.00000000000E+00 0. -1.
         -1   -1    0    0    0  501 -0.00000000000E+00 -0.00000000000E+00 -0.49640936679E+02  0.49640936679E+02  0.00000000000E+00 0.  1.
         23    2    1    2    0    0  0.14109116037E+02  0.38102293686E+02  0.72583597695E+02  0.12571730917E+03  0.94263520157E+02 0.  0.
          5    1    1    2  502    0 -0.40000922376E+01 -0.83376533978E+02  0.90443856155E+02  0.12314710988E+03  0.41800000000E+01 0.  1.
         -5    1    1    2    0  502 -0.10109023799E+02  0.45274240292E+02  0.73955731738E+02  0.87400639890E+02  0.41800000000E+01 0.  1.
        -11    1    3    3    0    0  0.15817374218E+02  0.55303174844E+02  0.70603465417E+01  0.57952385355E+02  0.00000000000E+00 0.  1.
         11    1    3    3    0    0 -0.17082581812E+01 -0.17200881158E+02  0.65523251154E+02  0.67764923820E+02  0.00000000000E+00 0. -1.
</event>
<event>
 7    1  0.5831876E-006  0.2664118E+03  0.7561462E-02  0.1103351E+00
         -2   -1    0    0    0  501 -0.00000000000E+00  0.00000000000E+00  0.22844592220E+03  0.22844592220E+03  0.00000000000E+00 0.  1.
          2   -1    0    0  501    0  0.00000000000E+00 -0.00000000000E+00 -0.36668243614E+03  0.36668243614E+03  0.00000000000E+00 0. -1.
         23    2    1    2    0    0  0.25255664703E+03  0.70151318598E+02 -0.86179949435E+01  0.27791052028E+03  0.91945200966E+02 0.  0.
          5    1    1    2  502    0  0.95812842177E+00 -0.88284792998E+01 -0.40319512189E+02  0.41496933862E+02  0.41800000000E+01 0. -1.
         -5    1    1    2    0  502 -0.25351477546E+03 -0.61322839299E+02 -0.89299006807E+02  0.27572090420E+03  0.41800000000E+01 0.  1.
        -11    1    3    3    0    0  0.20403439953E+03  0.58308085204E+02 -0.43981167715E+02  0.21671227954E+03  0.00000000000E+00 0. -1.
         11    1    3    3    0    0  0.48522247505E+02  0.11843233394E+02  0.35363172772E+02  0.61198240732E+02  0.00000000000E+00 0.  1.
</event>
<event>
 7    1  0.5831876E-006  0.1227453E+03  0.7561462E-02  0.1238636E+00
         -2   -1    0    0    0  501 -0.00000000000E+00  0.00000000000E+00  0.14938985221E+02  0.14938985221E+02  0.00000000000E+00 0.  1.
          2   -1    0    0  501    0  0.00000000000E+00 -0.00000000000E+00 -0.13821060323E+04  0.13821060323E+04  0.00000000000E+00 0. -1.
         23    2    1    2    0    0  0.72864059038E+01  0.86221614843E+02 -0.44549840740E+03  0.46291043169E+03  0.91268714204E+02 0.  0.
          5    1    1    2  502    0  0.28939382000E+02  0.42659385440E+00 -0.54945641072E+03  0.55023403157E+03  0.41800000000E+01 0.  1.
         -5    1    1    2    0  502 -0.36225787903E+02 -0.86648208697E+02 -0.37221222898E+03  0.38390055429E+03  0.41800000000E+01 0.  1.
        -11    1    3    3    0    0 -0.23539876917E+02 -0.65874245071E+01 -0.14069894436E+03  0.14280655766E+03  0.00000000000E+00 0. -1.
         11    1    3    3    0    0  0.30826282821E+02  0.92809039350E+02 -0.30479946303E+03  0.32010387402E+03  0.00000000000E+00 0.  1.
</event>
<event>
 7    1  0.5831876E-006  0.1145696E+03  0.7561462E-02  0.1252334E+00
          1   -1    0    0  501    0  0.00000000000E+00  0.00000000000E+00  0.65778132490E+02  0.65778132490E+02  0.00000000000E+00 0. -1.
         -1   -1    0    0    0  501 -0.00000000000E+00 -0.00000000000E+00 -0.25860029916E+03  0.25860029916E+03  0.00000000000E+00 0.  1.
         23    2    1    2    0    0  0.61384113351E+02 -0.38889086103E+02 -0.93879693176E+02  0.14912262458E+03  0.90242949763E+02 0.  0.
          5    1    1    2  502    0  0.14465360211E+02 -0.14156766275E+02 -0.77427245491E+02  0.80138077227E+02  0.41800000000E+01 0. -1.
         -5    1    1    2    0  502 -0.75849473561E+02  0.53045852377E+02 -0.21515228003E+02  0.95117729840E+02  0.41800000000E+01 0. -1.
        -11    1    3    3    0    0 -0.23846926911E+02 -0.76505137875E+01 -0.18643965818E+02  0.31221847251E+02  0.00000000000E+00 0. -1.
         11    1    3    3    0    0  0.85231040262E+02 -0.31238572315E+02 -0.75235727358E+02  0.11790077733E+03  0.00000000000E+00 0.  1.
</event>
<event>
 7    1  0.5831876E-006  0.8040260E+02  0.7561462E-02  0.1327913E+00
          4   -1    0    0  501    0  0.00000000000E+00  0.00000000000E+00  0.18317466138E+03  0.18317466138E+03  0.00000000000E+00 0. -1.
         -4   -1    0    0    0  501 -0.00000000000E+00 -0.00000000000E+00 -0.77822363914E+02  0.77822363914E+02  0.00000000000E+00 0.  1.
         23    2    1    2    0    0 -0.24410880478E+02 -0.15559719932E+02  0.26809898946E+01  0.96598679478E+02  0.92120145462E+02 0.  0.
          5    1    1    2  502    0  0.34085979518E+02  0.49565528939E+02  0.50769691883E+01  0.60513169433E+02  0.41800000000E+01 0. -1.
         -5    1    1    2    0  502 -0.96750990401E+01 -0.34005809007E+02  0.97594338386E+02  0.10388517639E+03  0.41800000000E+01 0. -1.
        -11    1    3    3    0    0  0.22483664658E+01 -0.32980644844E+02 -0.34406965651E+02  0.47713911718E+02  0.00000000000E+00 0.  1.
         11    1    3    3    0    0 -0.26659246944E+02  0.17420924912E+02  0.37087955546E+02  0.48884767760E+02  0.00000000000E+00 0. -1.
</event>
<event>
 7    1  0.5831876E-006  0.8925328E+02  0.7561462E-02  0.1304670E+00
         -1   -1    0    0    0  501 -0.00000000000E+00  0.00000000000E+00  0.11950921048E+03  0.11950921048E+03  0.00000000000E+00 0.  1.
          1   -1    0    0  501    0  0.00000000000E+00 -0.00000000000E+00 -0.11978672028E+03  0.11978672028E+03  0.00000000000E+00 0. -1.
         23    2    1    2    0    0 -0.29068208956E+02 -0.79817501911E+01  0.41011503819E+02  0.10416222763E+03  0.90879904883E+02 0.  0.
          5    1    1    2  502    0 -0.11505237254E+02  0.52399608549E+02 -0.50897827925E+02  0.74068554379E+02  0.41800000000E+01 0. -1.
         -5    1    1    2    0  502  0.40573446210E+02 -0.44417858358E+02  0.96088143060E+01  0.61065148742E+02  0.41800000000E+01 0. -1.
        -11    1    3    3    0    0  0.13485270120E+02 -0.16172500273E+02  0.54784186448E+02  0.58691646425E+02  0.00000000000E+00 0.  1.
         11    1    3    3    0    0 -0.42553479077E+02  0.81907500818E+01 -0.13772682629E+02  0.45470581206E+02  0.00000000000E+00 0. -1.
</event>
<event>
 7    1  0.5831876E-006  0.1623044E+03  0.7561462E-02  0.1186119E+00
         -2   -1    0    0    0  501 -0.00000000000E+00  0.00000000000E+00  0.32921457768E+03  0.32921457768E+03  0.00000000000E+00 0.  1.
          2   -1    0    0  501    0  0.00000000000E+00 -0.00000000000E+00 -0.10727262277E+03  0.10727262277E+03  0.00000000000E+00 0. -1.
         23    2    1    2    0    0  0.12685197307E+03 -0.19197560290E+02  0.20182538394E+03  0.25617879164E+03  0.91837455811E+02 0.  0.
          5    1    1    2  502    0 -0.84218831218E+02  0.70538726353E+02  0.26662833183E+02  0.11312339511E+03  0.41800000000E+01 0.  1.
         -5    1    1    2    0  502 -0.42633141852E+02 -0.51341166063E+02 -0.65462622105E+01  0.67185013699E+02  0.41800000000E+01 0.  1.
        -11    1    3    3    0    0  0.86150113299E+02 -0.47362179731E+02  0.17277550320E+03  0.19878730492E+03  0.00000000000E+00 0.  1.
         11    1    3    3    0    0  0.40701859771E+02  0.28164619440E+02  0.29049880740E+02  0.57391486721E+02  0.00000000000E+00 0. -1.
</event>
<event>
 7    1  0.5831876E-006  0.6910140E+02  0.7561462E-02  0.1363176E+00
          1   -1    0    0  501    0  0.00000000000E+00  0.00000000000E+00  0.51248007991E+02  0.51248007991E+02  0.00000000000E+00 0. -1.
         -1   -1    0    0    0  501 -0.00000000000E+00 -0.00000000000E+00 -0.32951042711E+03  0.32951042711E+03  0.00000000000E+00 0.  1.
         23    2    1    2    0    0  0.95947827675E+01  0.26157484262E+02 -0.22164974545E+03  0.24065690868E+03  0.89503431209E+02 0.  0.
          5    1    1    2  502    0 -0.15488248209E+02  0.46395601584E+01  0.37373404738E+02  0.40934766797E+02  0.41800000000E+01 0. -1.
         -5    1    1    2    0  502  0.58934654411E+01 -0.30797044420E+02 -0.93986078403E+02  0.99166759620E+02  0.41800000000E+01 0. -1.
        -11    1    3    3    0    0  0.43749948122E+02 -0.44906644388E+01 -0.74449491247E+02  0.86469363214E+02  0.00000000000E+00 0. -1.
         11    1    3    3    0    0 -0.34155165355E+02  0.30648148701E+02 -0.14720025421E+03  0.15418754547E+03  0.00000000000E+00 0.  1.
</event>
<event>
 7    1  0.5831876E-006  0.2416623E+03  0.7561462E-02  0.1118690E+00
          1   -1    0    0  501    0  0.00000000000E+00  0.00000000000E+00  0.40708356444E+03  0.40708356444E+03  0.00000000000E+00 0. -1.
         -1   -1    0    0    0  501 -0.00000000000E+00 -0.00000000000E+00 -0.21836804921E+03  0.21836804921E+03  0.00000000000E+00 0.  1.
         23    2    1    2    0    0  0.74795897763E+02 -0.21892808954E+03 -0.67185889876E+02  0.25849526369E+03  0.93711914070E+02 0.  0.
          5    1    1    2  502    0 -0.81964268558E+01  0.87033030013E+02  0.18144276014E+03  0.20144695910E+03  0.41800000000E+01 0.  1.
         -5    1    1    2    0  502 -0.66599470907E+02  0.13189505953E+03  0.74458644967E+02  0.16550939086E+03  0.41800000000E+01 0.  1.
        -11    1    3    3    0    0 -0.14881279657E+02 -0.88291639217E+02 -0.38507152743E+02  0.97466234421E+02  0.00000000000E+00 0.  1.
         11    1    3    3    0    0  0.89677177420E+02 -0.13063645032E+03 -0.28678737133E+02  0.16102902927E+03  0.00000000000E+00 0. -1.
</event>
<event>
 7    1  0.5831876E-006  0.6816968E+02  0.7561462E-02  0.1366430E+00
          2   -1    0    0  501    0  0.00000000000E+00  0.00000000000E+00  0.17054605200E+03  0.17054605200E+03  0.00000000000E+00 0. -1.
         -2   -1    0    0    0  501 -0.00000000000E+00 -0.00000000000E+00 -0.20666180262E+03  0.20666180262E+03  0.00000000000E+00 0.  1.
         23    2    1    2    0    0  0.13388959923E+01  0.28915482346E+02 -0.16667061143E+03  0.19409583213E+03  0.95164077128E+02 0.  0.
          5    1    1    2  502    0  0.96494068047E+01 -0.22606834573E+02  0.15407056965E+03  0.15607495909E+03  0.41800000000E+01 0. -1.
         -5    1    1    2    0  502 -0.10988302797E+02 -0.63086477733E+01 -0.23515708840E+02  0.27037063401E+02  0.41800000000E+01 0. -1.
        -11    1    3    3    0    0 -0.41477620135E+02  0.35685135462E+02 -0.10887111291E+03  0.12184720387E+03  0.00000000000E+00 0.  1.
         11    1    3    3    0    0  0.42816516128E+02 -0.67696531158E+01 -0.57799498513E+02  0.72248628257E+02  0.00000000000E+00 0. -1.
</event>
<event>
 7    1  0.5831876E-006  0.2075918E+03  0.7561462E-02  0.1143487E+00
         -1   -1    0    0    0  501 -0.00000000000E+00  0.00000000000E+00  0.35836085228E+02  0.35836085228E+02  0.00000000000E+00 0.  1.
          1   -1    0    0  501    0  0.00000000000E+00 -0.00000000000E+00 -0.13050811981E+04  0.13050811981E+04  0.00000000000E+00 0. -1.
         23    2    1    2    0    0 -0.25792490181E+02  0.86604244728E+02 -0.26220554409E+03  0.29227968079E+03  0.92250293742E+02 0.  0.
          5    1    1    2  502    0  0.86533238006E+02  0.74674295729E+02 -0.50619095350E+03  0.51895183353E+03  0.41800000000E+01 0. -1.
         -5    1    1    2    0  502 -0.60740747825E+02 -0.16127854046E+03 -0.50084861531E+03  0.52968576903E+03  0.41800000000E+01 0.  1.
        -11    1    3    3    0    0 -0.59863161925E+02  0.63412207462E+02 -0.19187840593E+03  0.21076534077E+03  0.00000000000E+00 0.  1.
         11    1    3    3    0    0  0.34070671744E+02  0.23192037266E+02 -0.70327138165E+02  0.81514340015E+02  0.00000000000E+00 0. -1.
</event>
<event>
 7    1  0.5831876E-006  0.8990870E+02  0.7561462E-02  0.1303073E+00
          1   -1    0    0  501    0  0.00000000000E+00  0.00000000000E+00  0.71462476222E+03  0.71462476222E+03  0.00000000000E+00 0. -1.
         -1   -1    0    0    0  501 -0.00000000000E+00 -0.00000000000E+00 -0.39987806469E+02  0.39987806469E+02  0.00000000000E+00 0.  1.
         23    2    1    2    0    0 -0.31705122613E+02 -0.58404505699E+02  0.68444231437E+02  0.13209070590E+03  0.91362140314E+02 0.  0.
          5    1    1    2  502    0  0.31898879954E+02  0.50886395800E+02  0.10335541327E+03  0.11961094294E+03  0.41800000000E+01 0. -1.
         -5    1    1    2    0  502 -0.19375734095E+00  0.75181098988E+01  0.50283731104E+03  0.50291091984E+03  0.41800000000E+01 0. -1.
        -11    1    3    3    0    0 -0.41298684313E+02  0.95443180066E+01  0.14483828580E+02  0.44793488617E+02  0.00000000000E+00 0.  1.
         11    1    3    3    0    0  0.95935616995E+01 -0.67948823706E+02  0.53960402858E+02  0.87297217284E+02  0.00000000000E+00 0. -1.
</event>
<event>
 7    1  0.5831876E-006  0.1965802E+03  0.7561462E-02  0.1152657E+00
          1   -1    0    0  501    0  0.00000000000E+00  0.00000000000E+00  0.54270919051E+03  0.54270919051E+03  0.00000000000E+00 0. -1.
         -1   -1    0    0    0  501 -0.00000000000E+00 -0.00000000000E+00 -0.12651549770E+03  0.12651549770E+03  0.00000000000E+00 0.  1.
         23    2    1    2    0    0  0.17421553945E+03 -0.28619534338E+02 -0.20275506159E+01  0.19834638879E+03  0.90371715990E+02 0.  0.
          5    1    1    2  502    0 -0.14630169491E+03  0.71488595642E+02  0.34428013664E+03  0.38086886211E+03  0.41800000000E+01 0.  1.
         -5    1    1    2    0  502 -0.27913844544E+02 -0.42869061304E+02  0.73941106781E+02  0.90009437318E+02  0.41800000000E+01 0.  1.
        -11    1    3    3    0    0  0.11050627863E+03 -0.32302955736E+02 -0.42561262670E+02  0.12274599646E+03  0.00000000000E+00 0.  1.
         11    1    3    3    0    0  0.63709260816E+02  0.36834213971E+01  0.40533712054E+02  0.75600392326E+02  0.00000000000E+00 0. -1.
</event>
<event>
 7    1  0.5831876E-006  0.1267600E+03  0.7561462E-02  0.1232344E+00
          2   -1    0    0  501    0  0.00000000000E+00  0.00000000000E+00  0.97761542624E+02  0.97761542624E+02  0.00000000000E+00 0. -1.
         -2   -1    0    0    0  501 -0.00000000000E+00 -0.00000000000E+00 -0.41120994541E+03  0.41120994541E+03  0.00000000000E+00 0.  1.
         23    2    1    2    0    0 -0.24709566695E+02 -0.77801031533E+02 -0.34385705196E+03  0.36692893975E+03  0.98669202148E+02 0.  0.
          5    1    1    2  502    0 -0.41094623983E+02  0.30664338871E+02  0.32699809824E+02  0.60957524238E+02  0.41800000000E+01 0. -1.
         -5    1    1    2    0  502  0.65804190678E+02  0.47136692663E+02 -0.22911606451E+01  0.81085024037E+02  0.41800000000E+01 0.  1.
        -11    1    3    3    0    0  0.33953668464E+02 -0.26053080216E+02 -0.69340816226E+02  0.81484743270E+02  0.00000000000E+00 0. -1.
         11    1    3    3    0    0 -0.58663235159E+02 -0.51747951317E+02 -0.27451623573E+03  0.28544419648E+03  0.00000000000E+00 0.  1.
</event>
<event>
 7    1  0.5831876E-006  0.1524977E+03  0.7561462E-02  0.1197437E+00
          1   -1    0    0  501    0  0.00000000000E+00  0.00000000000E+00  0.93576600265E+02  0.93576600265E+02  0.00000000000E+00 0. -1.
         -1   -1    0    0    0  501 -0.00000000000E+00 -0.00000000000E+00 -0.36553827465E+03  0.36553827465E+03  0.00000000000E+00 0.  1.
         23    2    1    2    0    0 -0.11686786067E+03  0.91235747754E+02 -0.10373166274E+03  0.20234638313E+03  0.90563471573E+02 0.  0.
          5    1    1    2  502    0  0.29496431084E+02 -0.49459851006E+02 -0.14644347393E+03  0.15741499219E+03  0.41800000000E+01 0. -1.
         -5    1    1    2    0  502  0.87371429586E+02 -0.41775896748E+02 -0.21786537708E+02  0.99353499598E+02  0.41800000000E+01 0. -1.
        -11    1    3    3    0    0 -0.88388383321E+02  0.54504484268E+02 -0.11456347509E+03  0.15462223299E+03  0.00000000000E+00 0.  1.
         11    1    3    3    0    0 -0.28479477350E+02  0.36731263486E+02  0.10831812346E+02  0.47724150135E+02  0.00000000000E+00 0. -1.
</event>
<event>
 7    1  0.5831876E-006  0.8067464E+02  0.7561462E-02  0.1327148E+00
          2   -1    0    0  501    0  0.00000000000E+00  0.00000000000E+00  0.33854215989E+03  0.33854215989E+03  0.00000000000E+00 0. -1.
         -2   -1    0    0    0  501 -0.00000000000E+00 -0.00000000000E+00 -0.49512772271E+02  0.49512772271E+02  0.00000000000E+00 0.  1.
         23    2    1    2    0    0  0.21664119752E+02 -0.37516030011E+01  0.38450715571E+02  0.10712765623E+03  0.97542137519E+02 0.  0.
          5    1    1    2  502    0  0.39688763742E+02  0.34238441790E+02  0.68597190332E+02  0.86432145554E+02  0.41800000000E+01 0.  1.
         -5    1    1    2    0  502 -0.61352883494E+02 -0.30486838789E+02  0.18198148171E+03  0.19449513037E+03  0.41800000000E+01 0.  1.
        -11    1    3    3    0    0  0.19875754594E+02 -0.17368525108E+02 -0.28463495280E+02  0.38818576077E+02  0.00000000000E+00 0.  1.
         11    1    3    3    0    0  0.17883651583E+01  0.13616922107E+02  0.66914210851E+02  0.68309080154E+02  0.00000000000E+00 0. -1.
</event>
<event>
 7    1  0.5831876E-006  0.1798683E+03  0.7561462E-02  0.1167931E+00
          2   -1    0    0  501    0  0.00000000000E+00  0.00000000000E+00  0.35685847082E+03  0.35685847082E+03  0.00000000000E+00 0.  1.
         -2   -1    0    0    0  501 -0.00000000000E+00 -0.00000000000E+00 -0.94025294032E+02  0.94025294032E+02  0.00000000000E+00 0. -1.
         23    2    1    2    0    0  0.14645476697E+03  0.65429492609E+01  0.11990490803E+03  0.21095222751E+03  0.92907730401E+02 0.  0.
          5    1    1    2  502    0 -0.16911368737E+03 -0.92376297409E+01  0.12815406969E+03  0.21242813147E+03  0.41800000000E+01 0.  1.
         -5    1    1    2    0  502  0.22658920405E+02  0.26946804800E+01  0.14774199064E+02  0.27503405876E+02  0.41800000000E+01 0.  1.
        -11    1    3    3    0    0 -0.58450759906E+01 -0.12340690505E+02 -0.34173698599E+01  0.14076078013E+02  0.00000000000E+00 0. -1.
         11    1    3    3    0    0  0.15229984296E+03  0.18883639765E+02  0.12332227789E+03  0.19687614950E+03  0.00000000000E+00 0.  1.
</event>
<event>
 7    1  0.5831876E-006  0.1234630E+03  0.7561462E-02  0.1237491E+00
          2   -1    0    0  501    0  0.00000000000E+00  0.00000000000E+00  0.60678398328E+02  0.60678398328E+02  0.00000000000E+00 0.  1.
         -2   -1    0    0    0  501 -0.00000000000E+00 -0.00000000000E+00 -0.30601612719E+03  0.30601612719E+03  0.00000000000E+00 0. -1.
         23    2    1    2    0    0  0.59831464622E+02  0.12464638572E+02 -0.18540953288E+03  0.21512589646E+03  0.90373032881E+02 0.  0.
          5    1    1    2  502    0  0.23241285613E+02 -0.43435881182E+02 -0.12774192982E+02  0.51063544113E+02  0.41800000000E+01 0. -1.
         -5    1    1    2    0  502 -0.83072750235E+02  0.30971242611E+02 -0.47154003002E+02  0.10050508494E+03  0.41800000000E+01 0. -1.
        -11    1    3    3    0    0  0.51810003998E+02 -0.33743857701E+02 -0.96592370065E+02  0.11468657464E+03  0.00000000000E+00 0.  1.
         11    1    3    3    0    0  0.80214606236E+01  0.46208496273E+02 -0.88817162810E+02  0.10043932182E+03  0.00000000000E+00 0. -1.
</event>
<event>
 7    1  0.5831876E-006  0.1129320E+03  0.7561462E-02  0.1255235E+00
          2   -1    0    0  501    0  0.00000000000E+00  0.00000000000E+00  0.57528753388E+03  0.57528753388E+03  0.00000000000E+00 0. -1.
         -2   -1    0    0    0  501 -0.00000000000E+00 -0.00000000000E+00 -0.26659234993E+02  0.26659234993E+02  0.00000000000E+00 0.  1.
         23    2    1    2    0    0 -0.25568742533E+02  0.41523420784E+02  0.17414124630E+03  0.20412388974E+03  0.94675411962E+02 0.  0.
          5    1    1    2  502    0  0.66336937208E+02 -0.58562234233E+02  0.22245255305E+03  0.23944255110E+03  0.41800000000E+01 0.  1.
         -5    1    1    2    0  502 -0.40768194675E+02  0.17038813449E+02  0.15203449954E+03  0.15838032804E+03  0.41800000000E+01 0.  1.
        -11    1    3    3    0    0 -0.40669457990E+02 -0.77129750749E+01  0.12954708215E+03  0.13599978416E+03  0.00000000000E+00 0. -1.
         11    1    3    3    0    0  0.15100715457E+02  0.49236395859E+02  0.44594164148E+02  0.68124105576E+02  0.00000000000E+00 0.  1.
</event>
<event>
 7    1  0.5831876E-006  0.8219996E+02  0.7561462E-02  0.1322922E+00
          1   -1    0    0  501    0  0.00000000000E+00  0.00000000000E+00  0.35384062581E+03  0.35384062581E+03  0.00000000000E+00 0. -1.
         -1   -1    0    0    0  501 -0.00000000000E+00 -0.00000000000E+00 -0.62196858101E+02  0.62196858101E+02  0.00000000000E+00 0.  1.
         23    2    1    2    0    0  0.23946220832E+02 -0.58271789761E+02  0.21551447838E+02  0.11179139701E+03  0.89798822752E+02 0.  0.
          5    1    1    2  502    0 -0.42950248475E+02  0.56805422932E+02  0.59902323690E+02  0.93152244750E+02  0.41800000000E+01 0.  1.
         -5    1    1    2    0  502  0.19004027643E+02  0.14663668294E+01  0.21018999618E+03  0.21109384215E+03  0.41800000000E+01 0.  1.
        -11    1    3    3    0    0  0.20827709017E+02 -0.66941944406E+01  0.48724373951E+02  0.53410395234E+02  0.00000000000E+00 0. -1.
         11    1    3    3    0    0  0.31185118159E+01 -0.51577595321E+02 -0.27172926113E+02  0.58381001778E+02  0.00000000000E+00 0.  1.
</event>
<event>
 7    1  0.5831876E-006  0.8530901E+02  0.7561462E-02  0.1314626E+00
          1   -1    0    0  501    0  0.00000000000E+00  0.00000000000E+00  0.83891113903E+03  0.83891113903E+03  0.00000000000E+00 0.  1.
         -1   -1    0    0    0  501 -0.00000000000E+00 -0.00000000000E+00 -0.21201552063E+02  0.21201552063E+02  0.00000000000E+00 0. -1.
         23    2    1    2    0    0 -0.16514724786E+01  0.15330731268E+02  0.12391011330E+03  0.15495793256E+03  0.91763206158E+02 0.  0.
          5    1    1    2  502    0 -0.55593714143E+02 -0.25459032799E+02  0.24330683610E+03  0.25090737792E+03  0.41800000000E+01 0. -1.
         -5    1    1    2    0  502  0.57245186621E+02  0.10128301531E+02  0.45049263758E+03  0.45424738061E+03  0.41800000000E+01 0. -1.
        -11    1    3    3    0    0 -0.25074054821E+02  0.56623658601E+01 -0.26909024800E+01  0.25845919764E+02  0.00000000000E+00 0. -1.
         11    1    3    3    0    0  0.23422582342E+02  0.96683654074E+01  0.12660101578E+03  0.12911201280E+03  0.00000000000E+00 0.  1.
</event>
<event>
 7    1  0.5831876E-006  0.1794370E+03  0.7561462E-02  0.1168349E+00
          1   -1    0    0  501    0  0.00000000000E+00  0.00000000000E+00  0.18084441871E+03  0.18084441871E+03  0.00000000000E+00 0. -1.
         -1   -1    0    0    0  501 -0.00000000000E+00 -0.00000000000E+00 -0.22081695448E+03  0.22081695448E+03  0.00000000000E+00 0.  1.
         23    2    1    2    0    0 -0.13064833039E+03 -0.10208372345E+03 -0.46155468347E+02  0.19387373243E+03  0.89255946829E+02 0.  0.
          5    1    1    2  502    0  0.16468607118E+02  0.32997489711E+02  0.54377630950E+02  0.65836528579E+02  0.41800000000E+01 0.  1.
         -5    1    1    2    0  502  0.11417972327E+03  0.69086233735E+02 -0.48194698371E+02  0.14195111218E+03  0.41800000000E+01 0.  1.
        -11    1    3    3    0    0 -0.57928485164E+02 -0.99908158064E+02 -0.30690002452E+02  0.11949571411E+03  0.00000000000E+00 0.  1.
         11    1    3    3    0    0 -0.72719845223E+02 -0.21755653823E+01 -0.15465465895E+02  0.74378018321E+02  0.00000000000E+00 0. -1.
</event>
<event>
 7    1  0.5831876E-006  0.1050107E+03  0.7561462E-02  0.1270098E+00
          4   -1    0    0  501    0  0.00000000000E+00  0.00000000000E+00  0.54283928190E+02  0.54283928190E+02  0.00000000000E+00 0. -1.
         -4   -1    0    0    0  501 -0.00000000000E+00 -0.00000000000E+00 -0.32192786967E+03  0.32192786967E+03  0.00000000000E+00 0.  1.
         23    2    1    2    0    0  0.16398598230E+02  0.62599605577E+02 -0.17231424810E+03  0.20614683973E+03  0.92826153595E+02 0.  0.
          5    1    1    2  502    0 -0.49731686955E+01 -0.92984868411E+02 -0.31600999686E+02  0.98422628198E+02  0.41800000000E+01 0.  1.
         -5    1    1    2    0  502 -0.11425429535E+02  0.30385262834E+02 -0.63728693689E+02  0.71642329923E+02  0.41800000000E+01 0.  1.
        -11    1    3    3    0    0  0.29730596719E+02  0.12526020478E+02 -0.14303658686E+03  0.14662971988E+03  0.00000000000E+00 0.  1.
         11    1    3    3    0    0 -0.13331998489E+02  0.50073585099E+02 -0.29277661240E+02  0.59517119857E+02  0.00000000000E+00 0. -1.
</event>
<event>
 7    1  0.5831876E-006  0.2002831E+03  0.7561462E-02  0.1149500E+00
         -2   -1    0    0    0  501 -0.00000000000E+00  0.00000000000E+00  0.11989826803E+03  0.11989826803E+03  0.00000000000E+00 0.  1.
          2   -1    0    0  501    0  0.00000000000E+00 -0.00000000000E+00 -0.50869385907E+03  0.50869385907E+03  0.00000000000E+00 0. -1.
         23    2    1    2    0    0  0.17949135739E+03  0.62092327227E+02 -0.43633175454E+02  0.21524326190E+03  0.91395860498E+02 0.  0.
          5    1    1    2  502    0 -0.10576865289E+03 -0.56016207398E+02 -0.96249993500E+02  0.15364360408E+03  0.41800000000E+01 0. -1.
         -5    1    1    2    0  502 -0.73722704494E+02 -0.60761198292E+01 -0.24891242208E+03  0.25970526112E+03  0.41800000000E+01 0. -1.
        -11    1    3    3    0    0  0.12527281720E+03  0.13285631299E+01 -0.57103392750E+01  0.12540993495E+03  0.00000000000E+00 0.  1.
         11    1    3    3    0    0  0.54218540185E+02  0.60763764097E+02 -0.37922836179E+02  0.89833326950E+02  0.00000000000E+00 0. -1.
</event>
<event>
 7    1  0.5831876E-006  0.1522799E+03  0.7561462E-02  0.1197699E+00
         -2   -1    0    0    0  501 -0.00000000000E+00  0.00000000000E+00  0.34981663261E+02  0.34981663261E+02  0.00000000000E+00 0.  1.
          2   -1    0    0  501    0  0.00000000000E+00 -0.00000000000E+00 -0.81345384303E+03  0.81345384303E+03  0.00000000000E+00 0. -1.
         23    2    1    2    0    0 -0.29015228368E+02 -0.73034980033E+01 -0.12492554701E+03  0.15693647477E+03  0.90152316989E+02 0.  0.
          5    1    1    2  502    0 -0.87627538746E+02  0.26723817109E+02 -0.41754321284E+03  0.42749567827E+03  0.41800000000E+01 0. -1.
         -5    1    1    2    0  502  0.11664276711E+03 -0.19420319106E+02 -0.23600341991E+03  0.26400335324E+03  0.41800000000E+01 0.  1.
        -11    1    3    3    0    0  0.16815944397E+01  0.38966995522E+02 -0.59223235953E+02  0.70912947877E+02  0.00000000000E+00 0.  1.
         11    1    3    3    0    0 -0.30696822807E+02 -0.46270493526E+02 -0.65702311058E+02  0.86023526898E+02  0.00000000000E+00 0. -1.
</event>
<event>
 7    1  0.5831876E-006  0.1161407E+03  0.7561462E-02  0.1249603E+00
          2   -1    0    0  501    0  0.00000000000E+00  0.00000000000E+00  0.14770549225E+04  0.14770549225E+04  0.00000000000E+00 0. -1.
         -2   -1    0    0    0  501 -0.00000000000E+00 -0.00000000000E+00 -0.96025729629E+01  0.96025729629E+01  0.00000000000E+00 0.  1.
         23    2    1    2    0    0 -0.14371683912E+02  0.42961451104E+02  0.53810621327E+03  0.54783691558E+03  0.92275444928E+02 0.  0.
          5    1    1    2  502    0  0.61772506899E+02  0.74259635673E+01  0.37336166929E+03  0.37853321655E+03  0.41800000000E+01 0.  1.
         -5    1    1    2    0  502 -0.47400822988E+02 -0.50387414671E+02  0.55598446702E+03  0.56028736336E+03  0.41800000000E+01 0.  1.
        -11    1    3    3    0    0  0.13547719913E+02 -0.24284194281E+02  0.10334145392E+03  0.10701737665E+03  0.00000000000E+00 0.  1.
         11    1    3    3    0    0 -0.27919403824E+02  0.67245645385E+02  0.43476475935E+03  0.44081953893E+03  0.00000000000E+00 0. -1.
</event>
<event>
 7    1  0.5831876E-006  0.1369564E+03  0.7561462E-02  0.1217484E+00
          2   -1    0    0  501    0  0.00000000000E+00  0.00000000000E+00  0.82086873646E+03  0.82086873646E+03  0.00000000000E+00 0. -1.
         -2   -1    0    0    0  501 -0.00000000000E+00 -0.00000000000E+00 -0.50906173238E+02  0.50906173238E+02  0.00000000000E+00 0.  1.
         23    2    1    2    0    0 -0.12320866187E+02  0.67291998099E+01  0.13062989894E+03  0.16057616148E+03  0.92322517649E+02 0.  0.
          5    1    1    2  502    0  0.90509074929E+02 -0.45488855318E+02  0.61099602924E+03  0.61935026338E+03  0.41800000000E+01 0. -1.
         -5    1    1    2    0  502 -0.78188208742E+02  0.38759655508E+02  0.28336635043E+02  0.91848484838E+02  0.41800000000E+01 0.  1.
        -11    1    3    3    0    0 -0.37559377394E+02  0.32075931438E+02  0.10659414687E+03  0.11748142132E+03  0.00000000000E+00 0.  1.
         11    1    3    3    0    0  0.25238511207E+02 -0.25346731628E+02  0.24035752071E+02  0.43094740164E+02  0.00000000000E+00 0. -1.
</event>
<event>
 7    1  0.5831876E-006  0.1300986E+03  0.7561462E-02  0.1227310E+00
          1   -1    0    0  501    0  0.00000000000E+00  0.00000000000E+00  0.14884834399E+03  0.14884834399E+03  0.00000000000E+00 0. -1.
         -1   -1    0    0    0  501 -0.00000000000E+00 -0.00000000000E+00 -0.13208400329E+03  0.13208400329E+03  0.00000000000E+00 0.  1.
         23    2    1    2    0    0 -0.11195994525E+02  0.85807450817E+02 -0.13774807058E+02  0.12578866851E+03  0.90248406672E+02 0.  0.
          5    1    1    2  502    0 -0.19449814071E+02 -0.10226346304E+03 -0.62161608306E+01  0.10436581910E+03  0.41800000000E+01 0.  1.
         -5    1    1    2    0  502  0.30645808596E+02  0.16456012226E+02  0.36755308594E+02  0.50777859671E+02  0.41800000000E+01 0.  1.
        -11    1    3    3    0    0  0.33474434560E+02  0.61763839926E+02  0.77560175958E+01  0.70678607091E+02  0.00000000000E+00 0. -1.
         11    1    3    3    0    0 -0.44670429084E+02  0.24043610891E+02 -0.21530824653E+02  0.55110061418E+02  0.00000000000E+00 0.  1.
</event>
<event>
 7    1  0.5831876E-006  0.1255720E+03  0.7561462E-02  0.1234178E+00
          2   -1    0    0  501    0  0.00000000000E+00  0.00000000000E+00  0.64063419660E+03  0.64063419660E+03  0.00000000000E+00 0. -1.
         -2   -1    0    0    0  501 -0.00000000000E+00 -0.00000000000E+00 -0.56825393353E+02  0.56825393353E+02  0.00000000000E+00 0.  1.
         23    2    1    2    0    0 -0.45853354529E+02 -0.10301107539E+03  0.77473711910E+02  0.16385302890E+03  0.90176644806E+02 0.  0.
          5    1    1    2  502    0  0.57234432214E+02  0.84372619421E+02  0.50025452456E+03  0.51055516928E+03  0.41800000000E+01 0. -1.
         -5    1    1    2    0  502 -0.11381077684E+02  0.18638455966E+02  0.60805667717E+01  0.23051391765E+02  0.41800000000E+01 0. -1.
        -11    1    3    3    0    0  0.11879035053E+02 -0.38533239794E+02 -0.92089917730E+01  0.41360942594E+02  0.00000000000E+00 0.  1.
         11    1    3    3    0    0 -0.57732389582E+02 -0.64477835592E+02  0.86682703683E+02  0.12249208630E+03  0.00000000000E+00 0. -1.
</event>
<event>
 7    1  0.5831876E-006  0.6391740E+02  0.7561462E-02  0.1382091E+00
         -1   -1    0    0    0  501 -0.00000000000E+00  0.00000000000E+00  0.77147497828E+02  0.77147497828E+02  0.00000000000E+00 0.  1.
          1   -1    0    0  501    0  0.00000000000E+00 -0.00000000000E+00 -0.16287712688E+03  0.16287712688E+03  0.00000000000E+00 0. -1.
         23    2    1    2    0    0 -0.18191999863E+02 -0.20052872686E+02 -0.24773810441E+02  0.98269771370E+02  0.91159967745E+02 0.  0.
          5    1    1    2  502    0  0.28822344940E+02  0.15304699868E+02  0.33229036473E+02  0.46761123499E+02  0.41800000000E+01 0.  1.
         -5    1    1    2    0  502 -0.10630345078E+02  0.47481728185E+01 -0.94184855082E+02  0.94993729837E+02  0.41800000000E+01 0.  1.
        -11    1    3    3    0    0  0.17942518189E+02  0.21166944698E+02  0.14045334466E+02  0.31100561524E+02  0.00000000000E+00 0.  1.
         11    1    3    3    0    0 -0.36134518052E+02 -0.41219817384E+02 -0.38819144907E+02  0.67169209846E+02  0.00000000000E+00 0. -1.
</event>
<event>
 7    1  0.5831876E-006  0.2538073E+03  0.7561462E-02  0.1110922E+00
          1   -1    0    0  501    0  0.00000000000E+00  0.00000000000E+00  0.10518640050E+03  0.10518640050E+03  0.00000000000E+00 0. -1.
         -1   -1    0    0    0  501 -0.00000000000E+00 -0.00000000000E+00 -0.76478974051E+03  0.76478974051E+03  0.00000000000E+00 0.  1.
         23    2    1    2    0    0 -0.18577187295E+03 -0.13009639151E+02 -0.28936089837E+03  0.35757256689E+03  0.97200676905E+02 0.  0.
          5    1    1    2  502    0  0.14630770220E+03 -0.10980729400E+03 -0.32977779741E+03  0.37713983296E+03  0.41800000000E+01 0. -1.
         -5    1    1    2    0  502  0.39464170758E+02  0.12281693315E+03 -0.40464644218E+02  0.13526374116E+03  0.41800000000E+01 0.  1.
        -11    1    3    3    0    0 -0.71452889728E+01  0.13217515733E+02  0.16410648675E+01  0.15114594621E+02  0.00000000000E+00 0. -1.
         11    1    3    3    0    0 -0.17862658398E+03 -0.26227154884E+02 -0.29100196324E+03  0.34245797227E+03  0.00000000000E+00 0.  1.
</event>
<event>
 7    1  0.7738612E-006  0.4297332E+03  0.7561462E-02  0.1033944E+00
         -1   -1    0    0    0  501 -0.00000000000E+00  0.00000000000E+00  0.16320404100E+03  0.16320404100E+03  0.00000000000E+00 0.  1.
          1   -1    0    0  501    0  0.00000000000E+00 -0.00000000000E+00 -0.12982786525E+04  0.12982786525E+04  0.00000000000E+00 0. -1.
         23    2    1    2    0    0  0.22160749053E+03 -0.35646866699E+03 -0.31802820235E+03  0.53444866287E+03  0.91179193601E+02 0.  0.
          5    1    1    2  502    0 -0.20873567133E+03  0.26140475272E+03 -0.69846039546E+03  0.77444652602E+03  0.41800000000E+01 0. -1.
         -5    1    1    2    0  502 -0.12871819206E+02  0.95063914272E+02 -0.11858601373E+03  0.15258750466E+03  0.41800000000E+01 0. -1.
        -11    1    3    3    0    0  0.20676871445E+03 -0.26443791162E+03 -0.26056838356E+03  0.42494304664E+03  0.00000000000E+00 0. -1.
         11    1    3    3    0    0  0.14838776084E+02 -0.92030755378E+02 -0.57459818784E+02  0.10950561623E+03  0.00000000000E+00 0.  1.
</event>
<event>
 7    1  0.5831876E-006  0.1137318E+03  0.7561462E-02  0.1253811E+00
         -2   -1    0    0    0  501 -0.00000000000E+00  0.00000000000E+00  0.10506511653E+03  0.10506511653E+03  0.00000000000E+00 0.  1.
          2   -1    0    0  501    0  0.00000000000E+00 -0.00000000000E+00 -0.14472470865E+03  0.14472470865E+03  0.00000000000E+00 0. -1.
         23    2    1    2    0    0  0.41472702661E+02  0.22553919832E+02  0.20878752549E+02  0.10302393866E+03  0.89159100844E+02 0.  0.
          5    1    1    2  502    0 -0.63331555285E+02  0.30278817942E+02 -0.54796122259E+02  0.89150323193E+02  0.41800000000E+01 0. -1.
         -5    1    1    2    0  502  0.21858852624E+02 -0.52832737774E+02 -0.57422224142E+01  0.57615563322E+02  0.41800000000E+01 0. -1.
        -11    1    3    3    0    0 -0.27449425391E+02  0.12499643909E+02 -0.49870626403E+00  0.30165555856E+02  0.00000000000E+00 0.  1.
         11    1    3    3    0    0  0.68922128052E+02  0.10054275923E+02  0.21377458813E+02  0.72858382805E+02  0.00000000000E+00 0. -1.
</event>
<event>
 7    1  0.5831876E-006  0.9017597E+02  0.7561462E-02  0.1302426E+00
          1   -1    0    0  501    0  0.00000000000E+00  0.00000000000E+00  0.26491471164E+03  0.26491471164E+03  0.00000000000E+00 0. -1.
         -1   -1    0    0    0  501 -0.00000000000E+00 -0.00000000000E+00 -0.55271207169E+02  0.55271207169E+02  0.00000000000E+00 0.  1.
         23    2    1    2    0    0 -0.26100109104E+02 -0.29774594300E+02  0.45739672089E+02  0.11023516729E+03  0.92151681176E+02 0.  0.
          5    1    1    2  502    0  0.53160066255E+02  0.18555205642E+02  0.17052482158E+03  0.17962871562E+03  0.41800000000E+01 0. -1.
         -5    1    1    2    0  502 -0.27059957151E+02  0.11219388658E+02 -0.66209892003E+01  0.30322035896E+02  0.41800000000E+01 0. -1.
        -11    1    3    3    0    0  0.31664842886E+02 -0.12018895210E+02 -0.92706121411E+00  0.33881788021E+02  0.00000000000E+00 0.  1.
         11    1    3    3    0    0 -0.57764951989E+02 -0.17755699091E+02  0.46666733304E+02  0.76353379269E+02  0.00000000000E+00 0. -1.
</event>
<event>
 7    1  0.5831876E-006  0.1491751E+03  0.7561462E-02  0.1201490E+00
         -1   -1    0    0    0  501 -0.00000000000E+00  0.00000000000E+00  0.54752271275E+03  0.54752271275E+03  0.00000000000E+00 0.  1.
          1   -1    0    0  501    0  0.00000000000E+00 -0.00000000000E+00 -0.65727290092E+02  0.65727290092E+02  0.00000000000E+00 0. -1.
         23    2    1    2    0    0 -0.27483153233E+02 -0.10661437717E+03  0.40375614774E+03  0.42923836149E+03  0.95418001447E+02 0.  0.
          5    1    1    2  502    0 -0.35431181020E+01 -0.25679545779E+02 -0.18593584113E+01  0.26323418680E+02  0.41800000000E+01 0.  1.
         -5    1    1    2    0  502  0.31026271335E+02  0.13229392295E+03  0.79898633327E+02  0.15768822268E+03  0.41800000000E+01 0.  1.
        -11    1    3    3    0    0  0.35062053708E+01 -0.10505792728E+03  0.36360882769E+03  0.37849813888E+03  0.00000000000E+00 0.  1.
         11    1    3    3    0    0 -0.30989358604E+02 -0.15564498970E+01  0.40147320050E+02  0.50740222607E+02  0.00000000000E+00 0. -1.
</event>
<event>
 7    1  0.5831876E-006  0.1190543E+03  0.7561462E-02  0.1244665E+00
          1   -1    0    0  501    0  0.00000000000E+00  0.00000000000E+00  0.34989735793E+03  0.34989735793E+03  0.00000000000E+00 0. -1.
         -1   -1    0    0    0  501 -0.00000000000E+00 -0.00000000000E+00 -0.53011185788E+02  0.53011185788E+02  0.00000000000E+00 0.  1.
         23    2    1    2    0    0 -0.24979008008E+01  0.83213971029E+02  0.14188018559E+03  0.18705812235E+03  0.89050264420E+02 0.  0.
          5    1    1    2  502    0 -0.19600096645E+02  0.21997304311E+02  0.34041417109E+01  0.29951723927E+02  0.41800000000E+01 0.  1.
         -5    1    1    2    0  502  0.22097997446E+02 -0.10521127534E+03  0.15160184484E+03  0.18589869744E+03  0.41800000000E+01 0.  1.
        -11    1    3    3    0    0  0.24553176886E+02  0.18879439581E+02  0.23672563165E+01  0.31062769299E+02  0.00000000000E+00 0.  1.
         11    1    3    3    0    0 -0.27051077686E+02  0.64334531447E+02  0.13951292927E+03  0.15599535306E+03  0.00000000000E+00 0. -1.
</event>
<event>
 7    1  0.5831876E-006  0.1019184E+03  0.7561462E-02  0.1276313E+00
          1   -1    0    0  501    0  0.00000000000E+00  0.00000000000E+00  0.40945662350E+03  0.40945662350E+03  0.00000000000E+00 0. -1.
         -1   -1    0    0    0  501 -0.00000000000E+00 -0.00000000000E+00 -0.34358265387E+02  0.34358265387E+02  0.00000000000E+00 0.  1.
         23    2    1    2    0    0  0.35728991585E+02  0.30826028472E+02  0.18216376381E+03  0.20908416085E+03  0.91135857935E+02 0.  0.
          5    1    1    2  502    0 -0.55077889991E+02  0.33549665381E+02  0.75769965464E+02  0.99587720526E+02  0.41800000000E+01 0. -1.
         -5    1    1    2    0  502  0.19348898406E+02 -0.64375693853E+02  0.11716462884E+03  0.13514300752E+03  0.41800000000E+01 0. -1.
        -11    1    3    3    0    0  0.23172456329E+02 -0.12792897643E+02  0.15268280914E+03  0.15496019221E+03  0.00000000000E+00 0. -1.
         11    1    3    3    0    0  0.12556535256E+02  0.43618926115E+02  0.29480954667E+02  0.54123968638E+02  0.00000000000E+00 0.  1.
</event>
<event>
 7    1  0.5831876E-006  0.1732091E+03  0.7561462E-02  0.1174542E+00
          1   -1    0    0  501    0  0.00000000000E+00  0.00000000000E+00  0.20983502407E+03  0.20983502407E+03  0.00000000000E+00 0. -1.
         -1   -1    0    0    0  501 -0.00000000000E+00 -0.00000000000E+00 -0.18079935754E+03  0.18079935754E+03  0.00000000000E+00 0.  1.
         23    2    1    2    0    0 -0.13287392677E+03  0.32482845870E+02 -0.71443463233E+02  0.17980069253E+03  0.92268656131E+02 0.  0.
          5    1    1    2  502    0  0.78287277814E+02  0.42057307583E+02  0.70809352875E+02  0.11370642833E+03  0.41800000000E+01 0.  1.
         -5    1    1    2    0  502  0.54586648951E+02 -0.74540153453E+02  0.29669776887E+02  0.97127260751E+02  0.41800000000E+01 0.  1.
        -11    1    3    3    0    0 -0.14517750104E+02  0.43729885768E+02 -0.18391811530E+02  0.49611759782E+02  0.00000000000E+00 0.  1.
         11    1    3    3    0    0 -0.11835617666E+03 -0.11247039898E+02 -0.53051651704E+02  0.13018893274E+03  0.00000000000E+00 0. -1.
</event>
<event>
 7    1  0.5831876E-006  0.1409938E+03  0.7561462E-02  0.1211998E+00
         -2   -1    0    0    0  501 -0.00000000000E+00  0.00000000000E+00  0.19872367970E+02  0.19872367970E+02  0.00000000000E+00 0. -1.
          2   -1    0    0  501    0  0.00000000000E+00 -0.00000000000E+00 -0.11946460029E+04  0.11946460029E+04  0.00000000000E+00 0.  1.
         23    2    1    2    0    0 -0.70711140737E+02 -0.81371599960E+02 -0.63334293053E+03  0.64846513240E+03  0.88104242758E+02 0.  0.
          5    1    1    2  502    0 -0.14863025134E+02  0.54217316632E+02 -0.93376752855E+02  0.10907390757E+03  0.41800000000E+01 0. -1.
         -5    1    1    2    0  502  0.85574165872E+02  0.27154283328E+02 -0.44805395154E+03  0.45697933088E+03  0.41800000000E+01 0. -1.
        -11    1    3    3    0    0 -0.82848538877E+02 -0.38825299170E+02 -0.48928565199E+03  0.49776674607E+03  0.00000000000E+00 0. -1.
         11    1    3    3    0    0  0.12137398140E+02 -0.42546300790E+02 -0.14405727854E+03  0.15069838634E+03  0.00000000000E+00 0.  1.
</event>
<event>
 7    1  0.5831876E-006  0.9509317E+02  0.7561462E-02  0.1290966E+00
          2   -1    0    0  501    0  0.00000000000E+00  0.00000000000E+00  0.65755002135E+03  0.65755002135E+03  0.00000000000E+00 0. -1.
         -2   -1    0    0    0  501 -0.00000000000E+00 -0.00000000000E+00 -0.48948006095E+02  0.48948006095E+02  0.00000000000E+00 0.  1.
         23    2    1    2    0    0 -0.20322403764E+02  0.33607590130E+02  0.20033298626E+02  0.10350309484E+03  0.93643405415E+02 0.  0.
          5    1    1    2  502    0 -0.30477810239E+02 -0.54425934615E+02  0.44248233988E+03  0.44687713388E+03  0.41800000000E+01 0. -1.
         -5    1    1    2    0  502  0.50800214003E+02  0.20818344485E+02  0.14608637675E+03  0.15611779874E+03  0.41800000000E+01 0. -1.
        -11    1    3    3    0    0 -0.28385717795E+02 -0.85824983328E+01 -0.26788819568E+02  0.39963096804E+02  0.00000000000E+00 0.  1.
         11    1    3    3    0    0  0.80633140311E+01  0.42190088463E+02  0.46822118194E+02  0.63539998032E+02  0.00000000000E+00 0. -1.
</event>
<event>
 7    1  0.5831876E-006  0.1278115E+03  0.7561462E-02  0.1230740E+00
          1   -1    0    0  501    0  0.00000000000E+00  0.00000000000E+00  0.60242628941E+03  0.60242628941E+03  0.00000000000E+00 0. -1.
         -1   -1    0    0    0  501 -0.00000000000E+00 -0.00000000000E+00 -0.41042270453E+02  0.41042270453E+02  0.00000000000E+00 0.  1.
         23    2    1    2    0    0  0.90619548500E+02 -0.77349546765E+01  0.10831492231E+03  0.16754615262E+03  0.89821260114E+02 0.  0.
          5    1    1    2  502    0 -0.19886202244E+02 -0.44382446862E+02  0.24843146820E+03  0.25318161351E+03  0.41800000000E+01 0. -1.
         -5    1    1    2    0  502 -0.70733346256E+02  0.52117401538E+02  0.20463762844E+03  0.22274079372E+03  0.41800000000E+01 0.  1.
        -11    1    3    3    0    0  0.64652223316E+02  0.31407634741E+02  0.94215780432E+02  0.11850300748E+03  0.00000000000E+00 0.  1.
         11    1    3    3    0    0  0.25967325184E+02 -0.39142589417E+02  0.14099141882E+02  0.49043145141E+02  0.00000000000E+00 0. -1.
</event>
<event>
 7    1  0.5831876E-006  0.3471755E+03  0.7561462E-02  0.1063780E+00
         -2   -1    0    0    0  501 -0.00000000000E+00  0.00000000000E+00  0.99022886443E+02  0.99022886443E+02  0.00000000000E+00 0.  1.
          2   -1    0    0  501    0  0.00000000000E+00 -0.00000000000E+00 -0.14693016836E+04  0.14693016836E+04  0.00000000000E+00 0. -1.
         23    2    1    2    0    0 -0.32652023759E+03 -0.11508738881E+03 -0.43579286232E+03  0.56394794437E+03  0.90891652473E+02 0.  0.
          5    1    1    2  502    0  0.11622998871E+03  0.58860838176E+02 -0.52117760994E+03  0.53723140457E+03  0.41800000000E+01 0.  1.
         -5    1    1    2    0  502  0.21029024888E+03  0.56226550638E+02 -0.41330832486E+03  0.46714522107E+03  0.41800000000E+01 0.  1.
        -11    1    3    3    0    0 -0.69589253558E+02 -0.21449317443E+02 -0.15884621678E+03  0.17474226168E+03  0.00000000000E+00 0. -1.
         11    1    3    3    0    0 -0.25693098404E+03 -0.93638071371E+02 -0.27694664553E+03  0.38920568269E+03  0.00000000000E+00 0.  1.
</event>
<event>
 7    1  0.5831876E-006  0.1408366E+03  0.7561462E-02  0.1212208E+00
         -2   -1    0    0    0  501 -0.00000000000E+00  0.00000000000E+00  0.49028029704E+02  0.49028029704E+02  0.00000000000E+00 0.  1.
          2   -1    0    0  501    0  0.00000000000E+00 -0.00000000000E+00 -0.51755655887E+03  0.51755655887E+03  0.00000000000E+00 0. -1.
         23    2    1    2    0    0 -0.79208230905E+02 -0.74112470349E+02 -0.14842926691E+03  0.20619708830E+03  0.93377673144E+02 0.  0.
          5    1    1    2  502    0  0.73699773027E+02  0.10383733085E+03 -0.20544922819E+03  0.24174512526E+03  0.41800000000E+01 0.  1.
         -5    1    1    2    0  502  0.55084578784E+01 -0.29724860497E+02 -0.11465003406E+03  0.11864237502E+03  0.41800000000E+01 0.  1.
        -11    1    3    3    0    0 -0.39432731668E+02  0.23544626181E+00 -0.10327791180E+03  0.11055009194E+03  0.00000000000E+00 0. -1.
         11    1    3    3    0    0 -0.39775499237E+02 -0.74347916611E+02 -0.45151355112E+02  0.95646996358E+02  0.00000000000E+00 0.  1.
</event>
<event>
 7    1  0.5831876E-006  0.1349614E+03  0.7561462E-02  0.1220274E+00
         -2   -1    0    0    0  501 -0.00000000000E+00  0.00000000000E+00  0.75576888469E+02  0.75576888469E+02  0.00000000000E+00 0.  1.
          2   -1    0    0  501    0  0.00000000000E+00 -0.00000000000E+00 -0.28289201176E+03  0.28289201176E+03  0.00000000000E+00 0. -1.
         23    2    1    2    0    0 -0.92562589819E+02  0.32236087736E+02 -0.92596217172E+02  0.16247459296E+03  0.90647314008E+02 0.  0.
          5    1    1    2  502    0 -0.17997699939E+02  0.60622169517E+01  0.12486733038E+02  0.23109707471E+02  0.41800000000E+01 0. -1.
         -5    1    1    2    0  502  0.11056028976E+03 -0.38298304688E+02 -0.12720563916E+03  0.17288459979E+03  0.41800000000E+01 0. -1.
        -11    1    3    3    0    0 -0.41906934599E+02  0.61857163041E+02 -0.55122560975E+02  0.92849321567E+02  0.00000000000E+00 0.  1.
         11    1    3    3    0    0 -0.50655655220E+02 -0.29621075305E+02 -0.37473656196E+02  0.69625271394E+02  0.00000000000E+00 0. -1.
</event>
<event>
 7    1  0.5831876E-006  0.8211925E+02  0.7561462E-02  0.1323143E+00
         -2   -1    0    0    0  501 -0.00000000000E+00  0.00000000000E+00  0.19958837766E+02  0.19958837766E+02  0.00000000000E+00 0.  1.
          2   -1    0    0  501    0  0.00000000000E+00 -0.00000000000E+00 -0.60591725502E+03  0.60591725502E+03  0.00000000000E+00 0. -1.
         23    2    1    2    0    0  0.89127176112E+00  0.32382373726E+01 -0.20652308249E+03  0.22633872754E+03  0.92553527406E+02 0.  0.
          5    1    1    2  502    0 -0.33024280287E+02  0.30842293558E+02 -0.32256854021E+03  0.32574497033E+03  0.41800000000E+01 0. -1.
         -5    1    1    2    0  502  0.32133008526E+02 -0.34080530930E+02 -0.56866794555E+02  0.73792394922E+02  0.41800000000E+01 0. -1.
        -11    1    3    3    0    0 -0.34005675369E+02  0.11632006257E+02 -0.31868454400E+02  0.48034236880E+02  0.00000000000E+00 0.  1.
         11    1    3    3    0    0  0.34896947130E+02 -0.83937688842E+01 -0.17465462809E+03  0.17830449066E+03  0.00000000000E+00 0. -1.
</event>
<event>
 7    1  0.5831876E-006  0.2088112E+03  0.7561462E-02  0.1142511E+00
          1   -1    0    0  501    0  0.00000000000E+00  0.00000000000E+00  0.18508219221E+03  0.18508219221E+03  0.00000000000E+00 0. -1.
         -1   -1    0    0    0  501 -0.00000000000E+00 -0.00000000000E+00 -0.28267110264E+03  0.28267110264E+03  0.00000000000E+00 0.  1.
         23    2    1    2    0    0  0.52813324500E+02 -0.18099250160E+03 -0.11861870798E+03  0.24052019642E+03  0.90730557844E+02 0.  0.
          5    1    1    2  502    0 -0.77506842451E+02  0.89837785460E+02 -0.26165633691E+02  0.12157405607E+03  0.41800000000E+01 0. -1.
         -5    1    1    2    0  502  0.24693517951E+02  0.91154716136E+02  0.47195431230E+02  0.10565904236E+03  0.41800000000E+01 0. -1.
        -11    1    3    3    0    0 -0.20247969952E+02 -0.25485467112E+02 -0.14993611333E+01  0.32584312251E+02  0.00000000000E+00 0.  1.
         11    1    3    3    0    0  0.73061294452E+02 -0.15550703448E+03 -0.11711934685E+03  0.20793588417E+03  0.00000000000E+00 0. -1.
</event>
<event>
 7    1  0.5831876E-006  0.1192019E+03  0.7561462E-02  0.1244420E+00
          3   -1    0    0  501    0  0.00000000000E+00  0.00000000000E+00  0.12377266360E+04  0.12377266360E+04  0.00000000000E+00 0. -1.
         -3   -1    0    0    0  501 -0.00000000000E+00 -0.00000000000E+00 -0.18968746795E+02  0.18968746795E+02  0.00000000000E+00 0.  1.
         23    2    1    2    0    0  0.31352126683E+02 -0.84146425949E+02  0.34639489427E+03  0.37084659869E+03  0.97335502958E+02 0.  0.
          5    1    1    2  502    0 -0.16209364346E+02  0.10092000063E+03  0.83971635022E+03  0.84592470779E+03  0.41800000000E+01 0.  1.
         -5    1    1    2    0  502 -0.15142762337E+02 -0.16773574678E+02  0.32646644719E+02  0.39924076321E+02  0.41800000000E+01 0.  1.
        -11    1    3    3    0    0 -0.34383240737E+01 -0.77657308119E+02  0.31184667098E+03  0.32138890114E+03  0.00000000000E+00 0. -1.
         11    1    3    3    0    0  0.34790450757E+02 -0.64891178296E+01  0.34548223288E+02  0.49457697545E+02  0.00000000000E+00 0.  1.
</event>
<event>
 6    1  0.5831876E-006  0.8083211E+02  0.7561462E-02  0.1326706E+00
          4   -1    0    0  501    0  0.00000000000E+00  0.00000000000E+00  0.66112534630E+02  0.66112534630E+02  0.00000000000E+00 0.  1.
         -4   -1    0    0    0  501 -0.00000000000E+00 -0.00000000000E+00 -0.10812479706E+03  0.10812479706E+03  0.00000000000E+00 0. -1.
          5    1    1    2  502    0 -0.53902869085E+02  0.46059390339E+02 -0.41011458028E+02  0.82014625669E+02  0.41800000000E+01 0. -1.
         -5    1    1    2    0  502  0.43858221466E+02 -0.14731322930E+01  0.72111621086E+01  0.44667515802E+02  0.41800000000E+01 0.  1.
        -11    1    1    2    0    0 -0.91563076551E+00 -0.14651900862E+02 -0.50330739488E+01  0.15519291606E+02  0.00000000000E+00 0. -1.
         11    1    1    2    0    0  0.10960278384E+02 -0.29934357184E+02 -0.31788925655E+01  0.32035898617E+02  0.00000000000E+00 0.  1.
</event>
<event>
 7    1  0.5831876E-006  0.9727419E+02  0.7561462E-02  0.1286135E+00
          1   -1    0    0  501    0  0.00000000000E+00  0.00000000000E+00  0.35057177215E+03  0.35057177215E+03  0.00000000000E+00 0. -1.
         -1   -1    0    0    0  501 -0.00000000000E+00 -0.00000000000E+00 -0.67881617951E+02  0.67881617951E+02  0.00000000000E+00 0.  1.
         23    2    1    2    0    0 -0.76047290424E+01 -0.30654230805E+02 -0.10319071109E+02  0.98298263219E+02  0.92512439992E+02 0.  0.
          5    1    1    2  502    0 -0.11100891273E+02  0.73197340110E+02  0.23061160089E+03  0.24224009423E+03  0.41800000000E+01 0.  1.
         -5    1    1    2    0  502  0.18705620315E+02 -0.42543109305E+02  0.62397624420E+02  0.77915032658E+02  0.41800000000E+01 0.  1.
        -11    1    3    3    0    0  0.12955488335E+01 -0.51266566255E+02  0.24526289979E+02  0.56846091884E+02  0.00000000000E+00 0. -1.
         11    1    3    3    0    0 -0.89002778759E+01  0.20612335450E+02 -0.34845361088E+02  0.41452171334E+02  0.00000000000E+00 0.  1.
</event>
<event>
 7    1  0.5831876E-006  0.1059242E+03  0.7561462E-02  0.1268309E+00
         -2   -1    0    0    0  501 -0.00000000000E+00  0.00000000000E+00  0.14187355966E+02  0.14187355966E+02  0.00000000000E+00 0. -1.
          2   -1    0    0  501    0  0.00000000000E+00 -0.00000000000E+00 -0.13680032109E+04  0.13680032109E+04  0.00000000000E+00 0.  1.
         23    2    1    2    0    0 -0.75556032091E+02  0.75551607319E+01 -0.41527661407E+03  0.43231204872E+03  0.93130268084E+02 0.  0.
          5    1    1    2  502    0  0.59256829500E+02  0.17477800245E+02 -0.17304640875E+03  0.18379166826E+03  0.41800000000E+01 0. -1.
         -5    1    1    2    0  502  0.16299202591E+02 -0.25032960977E+02 -0.76549283214E+03  0.76608684991E+03  0.41800000000E+01 0. -1.
        -11    1    3    3    0    0 -0.72838700759E+02  0.42754707983E+02 -0.30834807683E+03  0.31970608044E+03  0.00000000000E+00 0. -1.
         11    1    3    3    0    0 -0.27173313327E+01 -0.35199547251E+02 -0.10692853724E+03  0.11260596828E+03  0.00000000000E+00 0.  1.
</event>
<event>
 7    1  0.5831876E-006  0.1265601E+03  0.7561462E-02  0.1232651E+00
          2   -1    0    0  501    0  0.00000000000E+00  0.00000000000E+00  0.75555217405E+03  0.75555217405E+03  0.00000000000E+00 0. -1.
         -2   -1    0    0    0  501 -0.00000000000E+00 -0.00000000000E+00 -0.63436055040E+02  0.63436055040E+02  0.00000000000E+00 0.  1.
         23    2    1    2    0    0 -0.36842649383E+02  0.71918403082E+02  0.69116887718E+01  0.12001895789E+03  0.88471132557E+02 0.  0.
          5    1    1    2  502    0  0.62500728666E+02 -0.86479267114E+02  0.57365845945E+03  0.58351221514E+03  0.41800000000E+01 0. -1.
         -5    1    1    2    0  502 -0.25658079282E+02  0.14560864033E+02  0.11154597079E+03  0.11545705606E+03  0.41800000000E+01 0.  1.
        -11    1    3    3    0    0 -0.19306223521E+02  0.89589222480E+02 -0.62495271740E+01  0.91858672106E+02  0.00000000000E+00 0.  1.
         11    1    3    3    0    0 -0.17536425862E+02 -0.17670819398E+02  0.13161215946E+02  0.28160285784E+02  0.00000000000E+00 0. -1.
</event>
<event>
 7    1  0.5831876E-006  0.1374949E+03  0.7561462E-02  0.1216740E+00
          1   -1    0    0  501    0  0.00000000000E+00  0.00000000000E+00  0.83295208838E+03  0.83295208838E+03  0.00000000000E+00 0. -1.
         -1   -1    0    0    0  501 -0.00000000000E+00 -0.00000000000E+00 -0.26505708578E+02  0.26505708578E+02  0.00000000000E+00 0.  1.
         23    2    1    2    0    0 -0.47999968010E+02 -0.88978180343E+02  0.36683969249E+03  0.39135292957E+03  0.91458416746E+02 0.  0.
          5    1    1    2  502    0 -0.10924251576E+02  0.96783273169E+02  0.31930132111E+03  0.33385198412E+03  0.41800000000E+01 0. -1.
         -5    1    1    2    0  502  0.58924219587E+02 -0.78050928268E+01  0.12030536620E+03  0.13425288326E+03  0.41800000000E+01 0. -1.
        -11    1    3    3    0    0 -0.60940882506E+02 -0.57099492968E+02  0.33217859165E+03  0.34251534274E+03  0.00000000000E+00 0. -1.
         11    1    3    3    0    0  0.12940914496E+02 -0.31878687374E+02  0.34661100834E+02  0.48837586834E+02  0.00000000000E+00 0.  1.
</event>
<event>
 7    1  0.5831876E-006  0.1061199E+03  0.7561462E-02  0.1267929E+00
          4   -1    0    0  501    0  0.00000000000E+00  0.00000000000E+00  0.18953811707E+03  0.18953811707E+03  0.00000000000E+00 0. -1.
         -4   -1    0    0    0  501 -0.00000000000E+00 -0.00000000000E+00 -0.84357448722E+02  0.84357448722E+02  0.00000000000E+00 0.  1.
         23    2    1    2    0    0  0.19056224746E+02  0.27435499063E+02  0.47127655904E+02  0.13200784813E+03  0.11869797684E+03 0.  0.
          5    1    1    2  502    0 -0.49943828931E+02  0.23533387129E+02  0.60605004014E+02  0.82089251852E+02  0.41800000000E+01 0. -1.
         -5    1    1    2    0  502  0.30887604185E+02 -0.50968886193E+02 -0.25519915713E+01  0.59798465808E+02  0.41800000000E+01 0. -1.
        -11    1    3    3    0    0 -0.17750927345E+02 -0.26459915956E+02  0.57680149000E+02  0.65895539778E+02  0.00000000000E+00 0. -1.
         11    1    3    3    0    0  0.36807152091E+02  0.53895415019E+02 -0.10552493096E+02  0.66112308353E+02  0.00000000000E+00 0.  1.
</event>
<event>
 7    1  0.5831876E-006  0.1004297E+03  0.7561462E-02  0.1279395E+00
         -1   -1    0    0    0  501 -0.00000000000E+00  0.00000000000E+00  0.13354925538E+03  0.13354925538E+03  0.00000000000E+00 0.  1.
          1   -1    0    0  501    0  0.00000000000E+00 -0.00000000000E+00 -0.92100488255E+02  0.92100488255E+02  0.00000000000E+00 0. -1.
         23    2    1    2    0    0 -0.16468073620E+02 -0.20317310419E+02  0.31334570518E+02  0.97454164202E+02  0.88495583275E+02 0.  0.
          5    1    1    2  502    0 -0.14217175102E+02 -0.49063984211E+02 -0.18178505746E+01  0.51285276593E+02  0.41800000000E+01 0.  1.
         -5    1    1    2    0  502  0.30685248722E+02  0.69381294630E+02  0.11932047185E+02  0.76910302845E+02  0.41800000000E+01 0.  1.
        -11    1    3    3    0    0  0.25863939033E+02 -0.17446434799E+02  0.43301267145E+02  0.53369665222E+02  0.00000000000E+00 0.  1.
         11    1    3    3    0    0 -0.42332012654E+02 -0.28708756208E+01 -0.11966696627E+02  0.44084498980E+02  0.00000000000E+00 0. -1.
</event>
<event>
 7    1  0.5831876E-006  0.1108223E+03  0.7561462E-02  0.1259055E+00
          1   -1    0    0  501    0  0.00000000000E+00  0.00000000000E+00  0.34369806221E+03  0.34369806221E+03  0.00000000000E+00 0. -1.
         -1   -1    0    0    0  501 -0.00000000000E+00 -0.00000000000E+00 -0.50589886345E+02  0.50589886345E+02  0.00000000000E+00 0.  1.
         23    2    1    2    0    0 -0.21582110019E+02 -0.58388413573E+02  0.69584558038E+02  0.13068735478E+03  0.91444954320E+02 0.  0.
          5    1    1    2  502    0  0.15396279800E+02  0.93334140367E+02  0.11291059935E+03  0.14735868836E+03  0.41800000000E+01 0.  1.
         -5    1    1    2    0  502  0.61858302197E+01 -0.34945726795E+02  0.11061301848E+03  0.11624190541E+03  0.41800000000E+01 0.  1.
        -11    1    3    3    0    0  0.23958112246E+02 -0.25898067258E+02 -0.68787881412E+01  0.35944662419E+02  0.00000000000E+00 0.  1.
         11    1    3    3    0    0 -0.45540222265E+02 -0.32490346315E+02  0.76463346179E+02  0.94742692365E+02  0.00000000000E+00 0. -1.
</event>
<event>
 7    1  0.5831876E-006  0.1053074E+03  0.7561462E-02  0.1269515E+00
         -1   -1    0    0    0  501 -0.00000000000E+00  0.00000000000E+00  0.41623052875E+03  0.41623052875E+03  0.00000000000E+00 0.  1.
          1   -1    0    0  501    0  0.00000000000E+00 -0.00000000000E+00 -0.37361325023E+02  0.37361325023E+02  0.00000000000E+00 0. -1.
         23    2    1    2    0    0 -0.42556506929E+02  0.28901493747E+02  0.22838123129E+03  0.25125264977E+03  0.91233516794E+02 0.  0.
          5    1    1    2  502    0  0.30329349333E+02 -0.72447918411E+02  0.13124627632E+03  0.15300858721E+03  0.41800000000E+01 0.  1.
         -5    1    1    2    0  502  0.12227157596E+02  0.43546424663E+02  0.19241696118E+02  0.49330616795E+02  0.41800000000E+01 0.  1.
        -11    1    3    3    0    0 -0.25610822012E+02 -0.21454325515E+02  0.16592341999E+03  0.16925360732E+03  0.00000000000E+00 0.  1.
         11    1    3    3    0    0 -0.16945684917E+02  0.50355819262E+02  0.62457811299E+02  0.81999042452E+02  0.00000000000E+00 0. -1.
</event>
<event>
 7    1  0.5831876E-006  0.1094030E+03  0.7561462E-02  0.1261679E+00
         -1   -1    0    0    0  501 -0.00000000000E+00  0.00000000000E+00  0.39955995639E+02  0.39955995639E+02  0.00000000000E+00 0.  1.
          1   -1    0    0  501    0  0.00000000000E+00 -0.00000000000E+00 -0.98141541643E+03  0.98141541643E+03  0.00000000000E+00 0. -1.
         23    2    1    2    0    0 -0.82808838510E+01 -0.49274443418E+02 -0.47939681533E+02  0.11869341409E+03  0.96402124822E+02 0.  0.
          5    1    1    2  502    0 -0.48358756528E+02  0.19776083435E+01 -0.49370947182E+03  0.49609373633E+03  0.41800000000E+01 0. -1.
         -5    1    1    2    0  502  0.56639640379E+02  0.47296835075E+02 -0.39981026744E+03  0.40658426165E+03  0.41800000000E+01 0.  1.
        -11    1    3    3    0    0  0.36471867280E+02 -0.13031381298E+02  0.67045090177E+01  0.39306035702E+02  0.00000000000E+00 0.  1.
         11    1    3    3    0    0 -0.44752751131E+02 -0.36243062120E+02 -0.54644190551E+02  0.79387378383E+02  0.00000000000E+00 0. -1.
</event>
<event>
 7    1  0.5831876E-006  0.1311788E+03  0.7561462E-02  0.1225717E+00
          1   -1    0    0  501    0  0.00000000000E+00  0.00000000000E+00  0.25911441623E+03  0.25911441623E+03  0.00000000000E+00 0. -1.
         -1   -1    0    0    0  501 -0.00000000000E+00 -0.00000000000E+00 -0.78401423534E+02  0.78401423534E+02  0.00000000000E+00 0.  1.
         23    2    1    2    0    0  0.37339456885E+02 -0.69073461957E+02  0.24435837426E+02  0.12249126168E+03  0.90783373205E+02 0.  0.
          5    1    1    2  502    0 -0.80263065543E+02  0.30430357579E+02  0.68651929812E+02  0.10999420994E+03  0.41800000000E+01 0. -1.
         -5    1    1    2    0  502  0.42923608658E+02  0.38643104378E+02  0.87625225458E+02  0.10503036815E+03  0.41800000000E+01 0. -1.
        -11    1    3    3    0    0  0.58289818908E+02 -0.76594179188E+02  0.27300249370E+02  0.10004836275E+03  0.00000000000E+00 0. -1.
         11    1    3    3    0    0 -0.20950362023E+02  0.75207172306E+01 -0.28644119444E+01  0.22442898929E+02  0.00000000000E+00 0.  1.
</event>
<event>
 7    1  0.5831876E-006  0.8895121E+02  0.7561462E-02  0.1305412E+00
          2   -1    0    0  501    0  0.00000000000E+00  0.00000000000E+00  0.10721569719E+03  0.10721569719E+03  0.00000000000E+00 0. -1.
         -2   -1    0    0    0  501 -0.00000000000E+00 -0.00000000000E+00 -0.20207553090E+03  0.20207553090E+03  0.00000000000E+00 0.  1.
         23    2    1    2    0    0  0.79935502733E+02 -0.23977012407E+00 -0.10524921956E+03  0.16046755792E+03  0.91009322822E+02 0.  0.
          5    1    1    2  502    0 -0.36890792959E+01 -0.50660675985E+01 -0.50472457092E+02  0.51031516456E+02  0.41800000000E+01 0. -1.
         -5    1    1    2    0  502 -0.76246423438E+02  0.53058377226E+01  0.60861842946E+02  0.97792153713E+02  0.41800000000E+01 0. -1.
        -11    1    3    3    0    0  0.62863085127E+02  0.21268904058E+02 -0.17658116906E+02  0.68672722708E+02  0.00000000000E+00 0. -1.
         11    1    3    3    0    0  0.17072417606E+02 -0.21508674182E+02 -0.87591102650E+02  0.91794835211E+02  0.00000000000E+00 0.  1.
</event>
<event>
 7    1  0.5831876E-006  0.1348262E+03  0.7561462E-02  0.1220465E+00
          3   -1    0    0  501    0  0.00000000000E+00  0.00000000000E+00  0.44706714802E+02  0.44706714802E+02  0.00000000000E+00 0. -1.
         -3   -1    0    0    0  501 -0.00000000000E+00 -0.00000000000E+00 -0.50445740641E+03  0.50445740641E+03  0.00000000000E+00 0.  1.
         23    2    1    2    0    0  0.69510241110E+02  0.43391902936E+02 -0.28131047171E+03  0.30683859298E+03  0.91103291864E+02 0.  0.
          5    1    1    2  502    0  0.12107808997E+02 -0.73544990755E+02 -0.62845595045E+02  0.97583328086E+02  0.41800000000E+01 0. -1.
         -5    1    1    2    0  502 -0.81618050107E+02  0.30153087819E+02 -0.11559462486E+03  0.14474220015E+03  0.41800000000E+01 0.  1.
        -11    1    3    3    0    0  0.66321324599E+02  0.19751115281E+01 -0.94510826933E+02  0.11547603894E+03  0.00000000000E+00 0.  1.
         11    1    3    3    0    0  0.31889165106E+01  0.41416791407E+02 -0.18679964478E+03  0.19136255404E+03  0.00000000000E+00 0. -1.
</event>
<event>
 7    1  0.5831876E-006  0.1765122E+03  0.7561462E-02  0.1171222E+00
          1   -1    0    0  501    0  0.00000000000E+00  0.00000000000E+00  0.58315477105E+02  0.58315477105E+02  0.00000000000E+00 0. -1.
         -1   -1    0    0    0  501 -0.00000000000E+00 -0.00000000000E+00 -0.72931947038E+03  0.72931947038E+03  0.00000000000E+00 0.  1.
         23    2    1    2    0    0  0.12915606752E+03  0.56834544106E+02 -0.51892940928E+03  0.54538336933E+03  0.90795553564E+02 0.  0.
          5    1    1    2  502    0 -0.78990981323E+02 -0.94396062371E+02 -0.81023114890E+02  0.14741916181E+03  0.41800000000E+01 0. -1.
         -5    1    1    2    0  502 -0.50165086200E+02  0.37561518265E+02 -0.71051469103E+02  0.94832416343E+02  0.41800000000E+01 0. -1.
        -11    1    3    3    0    0  0.20108973778E+02  0.54385889519E+02 -0.15650267977E+03  0.16689902511E+03  0.00000000000E+00 0.  1.
         11    1    3    3    0    0  0.10904709374E+03  0.24486545874E+01 -0.36242672951E+03  0.37848434423E+03  0.00000000000E+00 0. -1.
</event>
<event>
 7    1  0.5831876E-006  0.1901368E+03  0.7561462E-02  0.1158338E+00
          3   -1    0    0  501    0  0.00000000000E+00  0.00000000000E+00  0.32606241898E+03  0.32606241898E+03  0.00000000000E+00 0. -1.
         -3   -1    0    0    0  501 -0.00000000000E+00 -0.00000000000E+00 -0.17584495091E+03  0.17584495091E+03  0.00000000000E+00 0.  1.
         23    2    1    2    0    0  0.53537716747E+02 -0.12230648106E+03 -0.68040474004E+02  0.17815337016E+03  0.96353281061E+02 0.  0.
          5    1    1    2  502    0 -0.77367158930E+02  0.15858244675E+03  0.11235330699E+03  0.20922429995E+03  0.41800000000E+01 0. -1.
         -5    1    1    2    0  502  0.23829442182E+02 -0.36275965683E+02  0.10590463508E+03  0.11452969978E+03  0.41800000000E+01 0.  1.
        -11    1    3    3    0    0  0.78468988351E+02 -0.91381380642E+02 -0.32266626636E+02  0.12469592638E+03  0.00000000000E+00 0.  1.
         11    1    3    3    0    0 -0.24931271604E+02 -0.30925100421E+02 -0.35773847368E+02  0.53457443779E+02  0.00000000000E+00 0. -1.
</event>
<event>
 7    1  0.5831876E-006  0.3058987E+03  0.7561462E-02  0.1082329E+00
          2   -1    0    0  501    0  0.00000000000E+00  0.00000000000E+00  0.29288217130E+04  0.29288217130E+04  0.00000000000E+00 0. -1.
         -2   -1    0    0    0  501 -0.00000000000E+00 -0.00000000000E+00 -0.35641534432E+02  0.35641534432E+02  0.00000000000E+00 0.  1.
         23    2    1    2    0    0  0.28084839783E+03 -0.11152749323E+03  0.12536618655E+04  0.12926433304E+04  0.89131937383E+02 0.  0.
          5    1    1    2  502    0 -0.24272941160E+03  0.92124612735E+02  0.15597083000E+04  0.15811742361E+04  0.41800000000E+01 0. -1.
         -5    1    1    2    0  502 -0.38118986223E+02  0.19402880497E+02  0.79810013033E+02  0.90645680882E+02  0.41800000000E+01 0. -1.
        -11    1    3    3    0    0  0.96885310198E+01  0.82518385532E+01  0.18823786819E+02  0.22722135090E+02  0.00000000000E+00 0.  1.
         11    1    3    3    0    0  0.27115986681E+03 -0.11977933178E+03  0.12348380787E+04  0.12699211953E+04  0.00000000000E+00 0. -1.
</event>
<event>
 7    1  0.5831876E-006  0.1052684E+03  0.7561462E-02  0.1269592E+00
          2   -1    0    0  501    0  0.00000000000E+00  0.00000000000E+00  0.65777574454E+03  0.65777574454E+03  0.00000000000E+00 0.  1.
         -2   -1    0    0    0  501 -0.00000000000E+00 -0.00000000000E+00 -0.29830004020E+02  0.29830004020E+02  0.00000000000E+00 0. -1.
         23    2    1    2    0    0 -0.56853539927E+02 -0.65859132295E+02  0.24181411109E+03  0.27249678880E+03  0.90612831718E+02 0.  0.
          5    1    1    2  502    0 -0.23215005479E+02  0.20535342948E+02  0.24233991469E+03  0.24434963360E+03  0.41800000000E+01 0. -1.
         -5    1    1    2    0  502  0.80068545406E+02  0.45323789347E+02  0.14379171474E+03  0.17075932616E+03  0.41800000000E+01 0. -1.
        -11    1    3    3    0    0 -0.21058041614E+02 -0.28311720856E+02  0.20708370019E+03  0.21006821163E+03  0.00000000000E+00 0.  1.
         11    1    3    3    0    0 -0.35795498313E+02 -0.37547411438E+02  0.34730410905E+02  0.62428577165E+02  0.00000000000E+00 0. -1.
</event>
<event>
 7    1  0.5831876E-006  0.1448992E+03  0.7561462E-02  0.1206885E+00
          3   -1    0    0  501    0  0.00000000000E+00  0.00000000000E+00  0.25391406338E+03  0.25391406338E+03  0.00000000000E+00 0. -1.
         -3   -1    0    0    0  501 -0.00000000000E+00 -0.00000000000E+00 -0.92408325484E+02  0.92408325484E+02  0.00000000000E+00 0.  1.
         23    2    1    2    0    0  0.10515905514E+03 -0.17510231779E+02  0.65620124544E+02  0.15604183348E+03  0.93155879880E+02 0.  0.
          5    1    1    2  502    0  0.20386141237E+02 -0.34924767782E+01 -0.11195941590E+02  0.23887520940E+02  0.41800000000E+01 0. -1.
         -5    1    1    2    0  502 -0.12554519638E+03  0.21002708557E+02  0.10708155494E+03  0.16639303444E+03  0.41800000000E+01 0. -1.
        -11    1    3    3    0    0  0.46999460882E+02 -0.54843911110E+02  0.29039022509E+02  0.77846443319E+02  0.00000000000E+00 0.  1.
         11    1    3    3    0    0  0.58159594262E+02  0.37333679331E+02  0.36581102035E+02  0.78195390166E+02  0.00000000000E+00 0. -1.
</event>
<event>
 7    1  0.5831876E-006  0.1730897E+03  0.7561462E-02  0.1174664E+00
         -2   -1    0    0    0  501 -0.00000000000E+00  0.00000000000E+00  0.10357808262E+03  0.10357808262E+03  0.00000000000E+00 0.  1.
          2   -1    0    0  501    0  0.00000000000E+00 -0.00000000000E+00 -0.31393079974E+03  0.31393079974E+03  0.00000000000E+00 0. -1.
         23    2    1    2    0    0 -0.29722835626E+02  0.14083874167E+03 -0.83050491483E+02  0.18822387517E+03  0.88384641957E+02 0.  0.
          5    1    1    2  502    0  0.30223110138E+02  0.13329717332E+02 -0.40071632985E+02  0.52099193090E+02  0.41800000000E+01 0. -1.
         -5    1    1    2    0  502 -0.50027451247E+00 -0.15416845900E+03 -0.87230592647E+02  0.17718581410E+03  0.41800000000E+01 0. -1.
        -11    1    3    3    0    0 -0.11945341631E+02  0.14036689263E+03 -0.47837456718E+02  0.14877492396E+03  0.00000000000E+00 0.  1.
         11    1    3    3    0    0 -0.17777493995E+02  0.47184904364E+00 -0.35213034765E+02  0.39448951211E+02  0.00000000000E+00 0. -1.
</event>
<event>
 7    1  0.5831876E-006  0.1001028E+03  0.7561462E-02  0.1280080E+00
          1   -1    0    0  501    0  0.00000000000E+00  0.00000000000E+00  0.14492485555E+03  0.14492485555E+03  0.00000000000E+00 0. -1.
         -1   -1    0    0    0  501 -0.00000000000E+00 -0.00000000000E+00 -0.12298530873E+03  0.12298530873E+03  0.00000000000E+00 0.  1.
         23    2    1    2    0    0 -0.78003637754E+01  0.75391378800E+02  0.85618071677E+01  0.12104559544E+03  0.93989499203E+02 0.  0.
          5    1    1    2  502    0 -0.71635888508E+01 -0.78830852854E+02  0.58826886841E+02  0.98710158456E+02  0.41800000000E+01 0.  1.
         -5    1    1    2    0  502  0.14963952626E+02  0.34394740541E+01 -0.45449147185E+02  0.48154410388E+02  0.41800000000E+01 0.  1.
        -11    1    3    3    0    0  0.32647890232E+02  0.35046731290E+02  0.33766702807E+02  0.58603313295E+02  0.00000000000E+00 0. -1.
         11    1    3    3    0    0 -0.40448254008E+02  0.40344647510E+02 -0.25204895639E+02  0.62442282142E+02  0.00000000000E+00 0.  1.
</event>
<event>
 7    1  0.5831876E-006  0.7701519E+02  0.7561462E-02  0.1337742E+00
         -1   -1    0    0    0  501 -0.00000000000E+00  0.00000000000E+00  0.26984513926E+02  0.26984513926E+02  0.00000000000E+00 0.  1.
          1   -1    0    0  501    0  0.00000000000E+00 -0.00000000000E+00 -0.13201223180E+04  0.13201223180E+04  0.00000000000E+00 0. -1.
         23    2    1    2    0    0 -0.32713998984E+02 -0.37346702906E+02 -0.14579741249E+03  0.17883825516E+03  0.90891441135E+02 0.  0.
          5    1    1    2  502    0  0.31204714621E+02 -0.13693940281E+01 -0.14381594582E+02  0.34639747651E+02  0.41800000000E+01 0. -1.
         -5    1    1    2    0  502  0.15092843627E+01  0.38716096934E+02 -0.11329587970E+04  0.11336288291E+04  0.41800000000E+01 0.  1.
        -11    1    3    3    0    0 -0.49377113616E+02 -0.83140717857E+01 -0.30161413539E+02  0.58454546490E+02  0.00000000000E+00 0.  1.
         11    1    3    3    0    0  0.16663114632E+02 -0.29032631120E+02 -0.11563599895E+03  0.12038370867E+03  0.00000000000E+00 0. -1.
</event>
<event>
 7    1  0.5831876E-006  0.8977446E+02  0.7561462E-02  0.1303399E+00
          1   -1    0    0  501    0  0.00000000000E+00  0.00000000000E+00  0.15627491313E+03  0.15627491313E+03  0.00000000000E+00 0. -1.
         -1   -1    0    0    0  501 -0.00000000000E+00 -0.00000000000E+00 -0.91086920338E+02  0.91086920338E+02  0.00000000000E+00 0.  1.
         23    2    1    2    0    0 -0.19064860565E+02  0.14403604999E+02 -0.16487706599E+02  0.96067376766E+02  0.91575999391E+02 0.  0.
          5    1    1    2  502    0 -0.46166902412E+02 -0.13518346477E+01  0.65708185994E+00  0.46380108795E+02  0.41800000000E+01 0. -1.
         -5    1    1    2    0  502  0.65231762977E+02 -0.13051770351E+02  0.81018617531E+02  0.10491434791E+03  0.41800000000E+01 0. -1.
        -11    1    3    3    0    0 -0.39903513524E+02 -0.20651548546E+01 -0.42888896904E+02  0.58617512176E+02  0.00000000000E+00 0.  1.
         11    1    3    3    0    0  0.20838652959E+02  0.16468759853E+02  0.26401190304E+02  0.37449864589E+02  0.00000000000E+00 0. -1.
</event>
<event>
 7    1  0.5831876E-006  0.1179238E+03  0.7561462E-02  0.1246562E+00
          1   -1    0    0  501    0  0.00000000000E+00  0.00000000000E+00  0.87129347538E+03  0.87129347538E+03  0.00000000000E+00 0. -1.
         -1   -1    0    0    0  501 -0.00000000000E+00 -0.00000000000E+00 -0.20001067312E+02  0.20001067312E+02  0.00000000000E+00 0.  1.
         23    2    1    2    0    0  0.46281472349E+02 -0.22975495426E+02  0.20000427018E+03  0.22609553971E+03  0.91911027148E+02 0.  0.
          5    1    1    2  502    0 -0.77910182056E+02 -0.17240974225E+02  0.47162534882E+03  0.47834630730E+03  0.41800000000E+01 0.  1.
         -5    1    1    2    0  502  0.31628709707E+02  0.40216469651E+02  0.17966278907E+03  0.18685269568E+03  0.41800000000E+01 0.  1.
        -11    1    3    3    0    0  0.47076814540E+02 -0.55101250843E+02  0.15104278094E+03  0.16752998533E+03  0.00000000000E+00 0.  1.
         11    1    3    3    0    0 -0.79534219102E+00  0.32125755416E+02  0.48961489240E+02  0.58565554371E+02  0.00000000000E+00 0. -1.
</event>
<event>
 7    1  0.5831876E-006  0.1433362E+03  0.7561462E-02  0.1208909E+00
          1   -1    0    0  501    0  0.00000000000E+00  0.00000000000E+00  0.90281294940E+03  0.90281294940E+03  0.00000000000E+00 0. -1.
         -1   -1    0    0    0  501 -0.00000000000E+00 -0.00000000000E+00 -0.29675929317E+02  0.29675929317E+02  0.00000000000E+00 0.  1.
         23    2    1    2    0    0  0.11785341082E+03 -0.80219648506E+01  0.32117886979E+03  0.35433713832E+03  0.91897567063E+02 0.  0.
          5    1    1    2  502    0 -0.30275451905E+02  0.34775681085E+02  0.38422110778E+03  0.38700036569E+03  0.41800000000E+01 0. -1.
         -5    1    1    2    0  502 -0.87577958914E+02 -0.26753716234E+02  0.16773704251E+03  0.19115137470E+03  0.41800000000E+01 0. -1.
        -11    1    3    3    0    0  0.64504423694E+02  0.40854026867E+02  0.18484063451E+03  0.19998983062E+03  0.00000000000E+00 0.  1.
         11    1    3    3    0    0  0.53348987125E+02 -0.48875991718E+02  0.13633823528E+03  0.15434730770E+03  0.00000000000E+00 0. -1.
</event>
<event>
 6    1  0.5831876E-006  0.1286721E+03  0.7561462E-02  0.1229439E+00
          2   -1    0    0  501    0  0.00000000000E+00  0.00000000000E+00  0.13892107518E+04  0.13892107518E+04  0.00000000000E+00 0. -1.
         -2   -1    0    0    0  501 -0.00000000000E+00 -0.00000000000E+00 -0.15113675987E+02  0.15113675987E+02  0.00000000000E+00 0.  1.
          5    1    1    2  502    0  0.37857176851E+02  0.10439538685E+03  0.80595317917E+03  0.81357824581E+03  0.41800000000E+01 0. -1.
         -5    1    1    2    0  502 -0.46779457976E+02 -0.60697358675E+01  0.31611464044E+03  0.31964214003E+03  0.41800000000E+01 0.  1.
        -11    1    1    2    0    0  0.58566810284E+01 -0.84379354406E+02  0.19998188462E+03  0.21713343902E+03  0.00000000000E+00 0.  1.
         11    1    1    2    0    0  0.30656000967E+01 -0.13946296581E+02  0.52047371559E+02  0.53970602910E+02  0.00000000000E+00 0. -1.
</event>
<event>
 7    1  0.5831876E-006  0.9399954E+02  0.7561462E-02  0.1293445E+00
          2   -1    0    0  501    0  0.00000000000E+00  0.00000000000E+00  0.71395311084E+03  0.71395311084E+03  0.00000000000E+00 0. -1.
         -2   -1    0    0    0  501 -0.00000000000E+00 -0.00000000000E+00 -0.20739299223E+02  0.20739299223E+02  0.00000000000E+00 0.  1.
         23    2    1    2    0    0 -0.12148592043E+01 -0.90891828301E+01  0.13769354902E+03  0.16518850272E+03  0.90794486954E+02 0.  0.
          5    1    1    2  502    0  0.46006367861E+02 -0.29411071273E+02  0.38760491109E+03  0.39145451395E+03  0.41800000000E+01 0.  1.
         -5    1    1    2    0  502 -0.44791508656E+02  0.38500254103E+02  0.16791535151E+03  0.17804939339E+03  0.41800000000E+01 0.  1.
        -11    1    3    3    0    0  0.34738078981E+02  0.55984078283E+01  0.11487676522E+03  0.12014469397E+03  0.00000000000E+00 0.  1.
         11    1    3    3    0    0 -0.35952938186E+02 -0.14687590658E+02  0.22816783797E+02  0.45043808746E+02  0.00000000000E+00 0. -1.
</event>
<event>
 7    1  0.5831876E-006  0.1246892E+03  0.7561462E-02  0.1235556E+00
         -2   -1    0    0    0  501 -0.00000000000E+00  0.00000000000E+00  0.79323401208E+02  0.79323401208E+02  0.00000000000E+00 0.  1.
          2   -1    0    0  501    0  0.00000000000E+00 -0.00000000000E+00 -0.24460696638E+03  0.24460696638E+03  0.00000000000E+00 0. -1.
         23    2    1    2    0    0  0.41843393730E+01 -0.77634054476E+02 -0.29451707438E+02  0.12357447046E+03  0.91425880188E+02 0.  0.
          5    1    1    2  502    0 -0.48689177677E+02  0.86091980371E+02 -0.11021288487E+03  0.14814458309E+03  0.41800000000E+01 0.  1.
         -5    1    1    2    0  502  0.44504838304E+02 -0.84579258954E+01 -0.25618972860E+02  0.52211314035E+02  0.41800000000E+01 0.  1.
        -11    1    3    3    0    0 -0.15918124011E+02 -0.82651743887E+02 -0.47016478498E+02  0.96411859696E+02  0.00000000000E+00 0. -1.
         11    1    3    3    0    0  0.20102463384E+02  0.50176894114E+01  0.17564771060E+02  0.27162610764E+02  0.00000000000E+00 0.  1.
</event>
<event>
 7    1  0.5831876E-006  0.1164405E+03  0.7561462E-02  0.1249087E+00
         -1   -1    0    0    0  501 -0.00000000000E+00  0.00000000000E+00  0.60552000148E+02  0.60552000148E+02  0.00000000000E+00 0.  1.
          1   -1    0    0  501    0  0.00000000000E+00 -0.00000000000E+00 -0.29102657098E+03  0.29102657098E+03  0.00000000000E+00 0. -1.
         23    2    1    2    0    0 -0.20303399729E+02 -0.53334245360E+02 -0.40216888342E+02  0.11683493243E+03  0.93681553993E+02 0.  0.
          5    1    1    2  502    0  0.29429453272E+02 -0.29140944061E+02 -0.21980464954E+02  0.47073353187E+02  0.41800000000E+01 0.  1.
         -5    1    1    2    0  502 -0.91260535431E+01  0.82475189421E+02 -0.16827721754E+03  0.18767028552E+03  0.41800000000E+01 0.  1.
        -11    1    3    3    0    0  0.11517213793E+02 -0.70896171863E+02 -0.35705115228E+02  0.80210776408E+02  0.00000000000E+00 0. -1.
         11    1    3    3    0    0 -0.31820613523E+02  0.17561926504E+02 -0.45117731136E+01  0.36624156019E+02  0.00000000000E+00 0.  1.
</event>
<event>
 7    1  0.5831876E-006  0.1405926E+03  0.7561462E-02  0.1212534E+00
         -2   -1    0    0    0  501 -0.00000000000E+00  0.00000000000E+00  0.14737070984E+02  0.14737070984E+02  0.00000000000E+00 0.  1.
          2   -1    0    0  501    0  0.00000000000E+00 -0.00000000000E+00 -0.15993928535E+04  0.15993928535E+04  0.00000000000E+00 0. -1.
         23    2    1    2    0    0  0.37014820704E+02  0.92331875782E+02 -0.51566373615E+03  0.53325650510E+03  0.92510211368E+02 0.  0.
          5    1    1    2  502    0  0.11622779516E+02 -0.97402455563E+02 -0.88566014224E+03  0.89108567899E+03  0.41800000000E+01 0. -1.
         -5    1    1    2    0  502 -0.48637600220E+02  0.50705797808E+01 -0.18333190412E+03  0.18978774039E+03  0.41800000000E+01 0. -1.
        -11    1    3    3    0    0  0.66567819435E+02  0.55276744569E+02 -0.37382876038E+03  0.38371178658E+03  0.00000000000E+00 0. -1.
         11    1    3    3    0    0 -0.29552998731E+02  0.37055131212E+02 -0.14183497578E+03  0.14954471852E+03  0.00000000000E+00 0.  1.
</event>
<event>
 7    1  0.5831876E-006  0.1098762E+03  0.7561462E-02  0.1260799E+00
         -2   -1    0    0    0  501 -0.00000000000E+00  0.00000000000E+00  0.16216028442E+03  0.16216028442E+03  0.00000000000E+00 0.  1.
          2   -1    0    0  501    0  0.00000000000E+00 -0.00000000000E+00 -0.89460723193E+02  0.89460723193E+02  0.00000000000E+00 0. -1.
         23    2    1    2    0    0 -0.25344131324E+02  0.60156348948E+02  0.11871107273E+02  0.92937322104E+02  0.65079269669E+02 0.  0.
          5    1    1    2  502    0  0.41061930346E+02  0.19960498513E+02 -0.13917108941E+02  0.47913066546E+02  0.41800000000E+01 0. -1.
         -5    1    1    2    0  502 -0.15717799022E+02 -0.80116847461E+02  0.74745562899E+02  0.11077061897E+03  0.41800000000E+01 0.  1.
        -11    1    3    3    0    0  0.21064042226E+02  0.30544428163E+02  0.37847479464E+01  0.37295848076E+02  0.00000000000E+00 0. -1.
         11    1    3    3    0    0 -0.46408173550E+02  0.29611920785E+02  0.80863593264E+01  0.55641474028E+02  0.00000000000E+00 0.  1.
</event>
<event>
 7    1  0.5831876E-006  0.1049551E+03  0.7561462E-02  0.1270208E+00
          2   -1    0    0  501    0  0.00000000000E+00  0.00000000000E+00  0.65701806246E+03  0.65701806246E+03  0.00000000000E+00 0. -1.
         -2   -1    0    0    0  501 -0.00000000000E+00 -0.00000000000E+00 -0.35997223186E+02  0.35997223186E+02  0.00000000000E+00 0.  1.
         23    2    1    2    0    0  0.81024483023E+02 -0.12715461620E+02  0.12558406933E+03  0.17549783408E+03  0.91112466141E+02 0.  0.
          5    1    1    2  502    0  0.68396766246E+01  0.33915065013E+02  0.39442050019E+02  0.52632314417E+02  0.41800000000E+01 0.  1.
         -5    1    1    2    0  502 -0.87864159647E+02 -0.21199603394E+02  0.45599471993E+03  0.46488513715E+03  0.41800000000E+01 0.  1.
        -11    1    3    3    0    0  0.15718577631E+02 -0.11118172077E+02  0.10537269808E+03  0.10711719252E+03  0.00000000000E+00 0. -1.
         11    1    3    3    0    0  0.65305905392E+02 -0.15972895430E+01  0.20211371247E+02  0.68380641563E+02  0.00000000000E+00 0.  1.
</event>
<event>
 7    1  0.5831876E-006  0.1058690E+03  0.7561462E-02  0.1268417E+00
         -1   -1    0    0    0  501 -0.00000000000E+00  0.00000000000E+00  0.10167742893E+03  0.10167742893E+03  0.00000000000E+00 0.  1.
          1   -1    0    0  501    0  0.00000000000E+00 -0.00000000000E+00 -0.31833287398E+03  0.31833287398E+03  0.00000000000E+00 0. -1.
         23    2    1    2    0    0  0.54737626628E+01  0.55265367490E+01  0.65884953226E+02  0.11239645524E+03  0.90728338475E+02 0.  0.
          5    1    1    2  502    0 -0.63022978237E+02 -0.86393978199E+01 -0.14167562801E+03  0.15535762277E+03  0.41800000000E+01 0. -1.
         -5    1    1    2    0  502  0.57549215574E+02  0.31128610709E+01 -0.14086477027E+03  0.15225622490E+03  0.41800000000E+01 0.  1.
        -11    1    3    3    0    0  0.11399473945E+01 -0.42232783117E+02  0.23218341746E+02  0.48207871175E+02  0.00000000000E+00 0.  1.
         11    1    3    3    0    0  0.43338152683E+01  0.47759319865E+02  0.42666611480E+02  0.64188584063E+02  0.00000000000E+00 0. -1.
</event>
<event>
 7    1  0.5831876E-006  0.3266466E+03  0.7561462E-02  0.1072630E+00
         -2   -1    0    0    0  501 -0.00000000000E+00  0.00000000000E+00  0.64828656361E+02  0.64828656361E+02  0.00000000000E+00 0.  1.
          2   -1    0    0  501    0  0.00000000000E+00 -0.00000000000E+00 -0.20936327780E+04  0.20936327780E+04  0.00000000000E+00 0. -1.
         23    2    1    2    0    0 -0.30817316252E+03 -0.63827864926E+02 -0.53992262807E+03  0.63154961406E+03  0.91070172244E+02 0.  0.
          5    1    1    2  502    0  0.31783832458E+03  0.63483204832E+02 -0.13816360947E+04  0.14191501289E+04  0.41800000000E+01 0.  1.
         -5    1    1    2    0  502 -0.96651620601E+01  0.34466009426E+00 -0.10724539890E+03  0.10776169140E+03  0.41800000000E+01 0.  1.
        -11    1    3    3    0    0 -0.11729768875E+03 -0.49137402416E+02 -0.14633987349E+03  0.19387777251E+03  0.00000000000E+00 0.  1.
         11    1    3    3    0    0 -0.19087547378E+03 -0.14690462510E+02 -0.39358275458E+03  0.43767184154E+03  0.00000000000E+00 0. -1.
</event>
<event>
 7    1  0.5831876E-006  0.7999032E+02  0.7561462E-02  0.1329079E+00
          2   -1    0    0  501    0  0.00000000000E+00  0.00000000000E+00  0.17467353001E+04  0.17467353001E+04  0.00000000000E+00 0. -1.
         -2   -1    0    0    0  501 -0.00000000000E+00 -0.00000000000E+00 -0.28856017981E+02  0.28856017981E+02  0.00000000000E+00 0.  1.
         23    2    1    2    0    0  0.27546661794E+02 -0.59424470895E+02  0.78375739232E+02  0.12942352438E+03  0.79483368357E+02 0.  0.
          5    1    1    2  502    0 -0.37126601850E+00  0.47674738317E+02  0.15671344758E+04  0.15678650950E+04  0.41800000000E+01 0. -1.
         -5    1    1    2    0  502 -0.27175395776E+02  0.11749732578E+02  0.72369067083E+02  0.78302698687E+02  0.41800000000E+01 0.  1.
        -11    1    3    3    0    0 -0.12772726361E+02 -0.29072070639E+02  0.71827367101E+02  0.78533422787E+02  0.00000000000E+00 0. -1.
         11    1    3    3    0    0  0.40319388155E+02 -0.30352400256E+02  0.65483721308E+01  0.50890101592E+02  0.00000000000E+00 0.  1.
</event>
<event>
 7    1  0.5831876E-006  0.4441766E+02  0.7561462E-02  0.1478010E+00
          1   -1    0    0  501    0  0.00000000000E+00  0.00000000000E+00  0.15711209546E+03  0.15711209546E+03  0.00000000000E+00 0. -1.
         -1   -1    0    0    0  501 -0.00000000000E+00 -0.00000000000E+00 -0.99319678956E+02  0.99319678956E+02  0.00000000000E+00 0.  1.
         23    2    1    2    0    0 -0.25273550242E+02 -0.87222406185E+01 -0.17524487066E+02  0.10799091767E+03  0.10315086441E+03 0.  0.
          5    1    1    2  502    0  0.11845189505E+02 -0.91793205120E+01  0.10772134273E+03  0.10883900275E+03  0.41800000000E+01 0.  1.
         -5    1    1    2    0  502  0.13428360737E+02  0.17901561130E+02 -0.32404439161E+02  0.39601854001E+02  0.41800000000E+01 0.  1.
        -11    1    3    3    0    0  0.92190172136E+00 -0.21393368926E+02 -0.55882310964E+02  0.59844455178E+02  0.00000000000E+00 0.  1.
         11    1    3    3    0    0 -0.26195451963E+02  0.12671128308E+02  0.38357823898E+02  0.48146462491E+02  0.00000000000E+00 0. -1.
</event>
<event>
 7    1  0.5831876E-006  0.1016947E+03  0.7561462E-02  0.1276772E+00
          1   -1    0    0  501    0  0.00000000000E+00  0.00000000000E+00  0.35484286838E+03  0.35484286838E+03  0.00000000000E+00 0.  1.
         -1   -1    0    0    0  501 -0.00000000000E+00 -0.00000000000E+00 -0.56134548921E+02  0.56134548921E+02  0.00000000000E+00 0. -1.
         23    2    1    2    0    0  0.15371797759E+02  0.34748760190E+02  0.14765430978E+02  0.98383654972E+02  0.89540812552E+02 0.  0.
          5    1    1    2  502    0 -0.63751202249E+01 -0.72609786844E+02  0.95941347227E+02  0.12056134460E+03  0.41800000000E+01 0.  1.
         -5    1    1    2    0  502 -0.89966775344E+01  0.37861026654E+02  0.18800154126E+03  0.19203241773E+03  0.41800000000E+01 0.  1.
        -11    1    3    3    0    0  0.65384219512E+01  0.62128733417E+02  0.25773941612E+02  0.67579779104E+02  0.00000000000E+00 0.  1.
         11    1    3    3    0    0  0.88333758081E+01 -0.27379973227E+02 -0.11008510634E+02  0.30803875867E+02  0.00000000000E+00 0. -1.
</event>
<event>
 7    1  0.5831876E-006  0.1230138E+03  0.7561462E-02  0.1238206E+00
         -2   -1    0    0    0  501 -0.00000000000E+00  0.00000000000E+00  0.14142828025E+02  0.14142828025E+02  0.00000000000E+00 0.  1.
          2   -1    0    0  501    0  0.00000000000E+00 -0.00000000000E+00 -0.12758291747E+04  0.12758291747E+04  0.00000000000E+00 0. -1.
         23    2    1    2    0    0  0.81361630587E+02 -0.32808301241E+01 -0.50423112874E+03  0.51795110040E+03  0.85987396953E+02 0.  0.
          5    1    1    2  502    0 -0.86745595032E+02  0.46831871278E+02 -0.40626868886E+03  0.41807863181E+03  0.41800000000E+01 0. -1.
         -5    1    1    2    0  502  0.53839644450E+01 -0.43551041154E+02 -0.35118652908E+03  0.35394227053E+03  0.41800000000E+01 0. -1.
        -11    1    3    3    0    0 -0.92644031542E+01 -0.84023222592E+01 -0.11703241011E+02  0.17128748796E+02  0.00000000000E+00 0.  1.
         11    1    3    3    0    0  0.90626033741E+02  0.51214921351E+01 -0.49252788773E+03  0.50082235160E+03  0.00000000000E+00 0. -1.
</event>
<event>
 7    1  0.5831876E-006  0.1213875E+03  0.7561462E-02  0.1240826E+00
         -1   -1    0    0    0  501 -0.00000000000E+00  0.00000000000E+00  0.32813792380E+02  0.32813792380E+02  0.00000000000E+00 0.  1.
          1   -1    0    0  501    0  0.00000000000E+00 -0.00000000000E+00 -0.68730989342E+03  0.68730989342E+03  0.00000000000E+00 0. -1.
         23    2    1    2    0    0  0.55315052223E+02 -0.81927048263E+01 -0.96262407992E+02  0.14531839012E+03  0.93402933042E+02 0.  0.
          5    1    1    2  502    0  0.27604781820E+02 -0.31337838960E+02 -0.12300471861E+03  0.12996813968E+03  0.41800000000E+01 0. -1.
         -5    1    1    2    0  502 -0.82919834044E+02  0.39530543786E+02 -0.43522897443E+03  0.44483715600E+03  0.41800000000E+01 0. -1.
        -11    1    3    3    0    0  0.44813090893E+02  0.39668762445E+02 -0.54076664965E+02  0.80660458237E+02  0.00000000000E+00 0. -1.
         11    1    3    3    0    0  0.10501961331E+02 -0.47861467271E+02 -0.42185743027E+02  0.64657931887E+02  0.00000000000E+00 0.  1.
</event>
<event>
 7    1  0.5831876E-006  0.8488832E+02  0.7561462E-02  0.1315725E+00
         -2   -1    0    0    0  501 -0.00000000000E+00  0.00000000000E+00  0.91325011913E+02  0.91325011913E+02  0.00000000000E+00 0.  1.
          2   -1    0    0  501    0  0.00000000000E+00 -0.00000000000E+00 -0.15548056468E+03  0.15548056468E+03  0.00000000000E+00 0. -1.
         23    2    1    2    0    0 -0.33289933675E+02  0.99987486267E+01  0.24321799656E+01  0.10090334775E+03  0.94696227116E+02 0.  0.
          5    1    1    2  502    0  0.48786876996E+02 -0.28721528133E+02  0.16592871447E+02  0.59142889076E+02  0.41800000000E+01 0.  1.
         -5    1    1    2    0  502 -0.15496943321E+02  0.18722779506E+02 -0.83180604177E+02  0.86759339762E+02  0.41800000000E+01 0.  1.
        -11    1    3    3    0    0  0.52162808359E+01  0.39497966791E+02  0.25384035526E+02  0.47240324152E+02  0.00000000000E+00 0.  1.
         11    1    3    3    0    0 -0.38506214511E+02 -0.29499218164E+02 -0.22951855561E+02  0.53663023600E+02  0.00000000000E+00 0. -1.
</event>
<event>
 7    1  0.5831876E-006  0.1008568E+03  0.7561462E-02  0.1278504E+00
         -4   -1    0    0    0  501 -0.00000000000E+00  0.00000000000E+00  0.23018195374E+02  0.23018195374E+02  0.00000000000E+00 0.  1.
          4   -1    0    0  501    0  0.00000000000E+00 -0.00000000000E+00 -0.65370298231E+03  0.65370298231E+03  0.00000000000E+00 0. -1.
         23    2    1    2    0    0  0.36737466005E+02 -0.33493769447E+02 -0.18014244411E+03  0.20833608835E+03  0.92093167707E+02 0.  0.
          5    1    1    2  502    0 -0.64913956773E+02  0.11907834753E+02 -0.40564259444E+03  0.41099757315E+03  0.41800000000E+01 0. -1.
         -5    1    1    2    0  502  0.28176490768E+02  0.21585934695E+02 -0.44899748384E+02  0.57387516182E+02  0.41800000000E+01 0.  1.
        -11    1    3    3    0    0  0.62405707898E+02 -0.39003159287E+02 -0.15678277047E+03  0.17319513829E+03  0.00000000000E+00 0.  1.
         11    1    3    3    0    0 -0.25668241893E+02  0.55093898392E+01 -0.23359673647E+02  0.35140950061E+02  0.00000000000E+00 0. -1.
</event>
<event>
 7    1  0.5831876E-006  0.9187697E+02  0.7561462E-02  0.1298369E+00
          2   -1    0    0  501    0  0.00000000000E+00  0.00000000000E+00  0.13538743020E+04  0.13538743020E+04  0.00000000000E+00 0. -1.
         -2   -1    0    0    0  501 -0.00000000000E+00 -0.00000000000E+00 -0.19535560999E+02  0.19535560999E+02  0.00000000000E+00 0.  1.
         23    2    1    2    0    0  0.18274737812E+02  0.27017155904E+02  0.12291618973E+03  0.15510956738E+03  0.88807068640E+02 0.  0.
          5    1    1    2  502    0 -0.22173693638E+02 -0.57733294041E+02  0.11194692126E+04  0.11211840154E+04  0.41800000000E+01 0.  1.
         -5    1    1    2    0  502  0.38989558255E+01  0.30716138138E+02  0.91953338625E+02  0.97116280216E+02  0.41800000000E+01 0.  1.
        -11    1    3    3    0    0 -0.17198803624E+02 -0.23299822525E+02  0.20034325971E+02  0.35214411721E+02  0.00000000000E+00 0.  1.
         11    1    3    3    0    0  0.35473541436E+02  0.50316978428E+02  0.10288186376E+03  0.11989515566E+03  0.00000000000E+00 0. -1.
</event>
<event>
 7    1  0.5831876E-006  0.1075791E+03  0.7561462E-02  0.1265120E+00
          3   -1    0    0  501    0  0.00000000000E+00  0.00000000000E+00  0.17058466315E+03  0.17058466315E+03  0.00000000000E+00 0. -1.
         -3   -1    0    0    0  501 -0.00000000000E+00 -0.00000000000E+00 -0.98858149946E+02  0.98858149946E+02  0.00000000000E+00 0.  1.
         23    2    1    2    0    0 -0.35445163751E+01 -0.23910251936E+02 -0.37648238648E+02  0.10153269974E+03  0.91144037104E+02 0.  0.
          5    1    1    2  502    0  0.60636622445E+02  0.70542114791E+01  0.81849788561E+02  0.10219306321E+03  0.41800000000E+01 0.  1.
         -5    1    1    2    0  502 -0.57092106070E+02  0.16856040457E+02  0.27524963293E+02  0.65717050145E+02  0.41800000000E+01 0.  1.
        -11    1    3    3    0    0 -0.23433519176E+02  0.29282857695E+02 -0.14905390965E+02  0.40358224138E+02  0.00000000000E+00 0.  1.
         11    1    3    3    0    0  0.19889002801E+02 -0.53193109632E+02 -0.22742847683E+02  0.61174475604E+02  0.00000000000E+00 0. -1.
</event>
<event>
 7    1  0.5831876E-006  0.1679067E+03  0.7561462E-02  0.1180049E+00
          2   -1    0    0  501    0  0.00000000000E+00  0.00000000000E+00  0.18076478494E+04  0.18076478494E+04  0.00000000000E+00 0. -1.
         -2   -1    0    0    0  501 -0.00000000000E+00 -0.00000000000E+00 -0.20513423301E+03  0.20513423301E+03  0.00000000000E+00 0.  1.
         23    2    1    2    0    0  0.14069381100E+03 -0.18041203212E+02 -0.16439098756E+03  0.23637951644E+03  0.93437923438E+02 0.  0.
          5    1    1    2  502    0 -0.13240331210E+03 -0.14095286600E+02  0.10084921619E+04  0.10172527843E+04  0.41800000000E+01 0. -1.
         -5    1    1    2    0  502 -0.82904989006E+01  0.32136489812E+02  0.75841244204E+03  0.75914978165E+03  0.41800000000E+01 0.  1.
        -11    1    3    3    0    0  0.15415960163E+03 -0.12780214458E+02 -0.15586316148E+03  0.21959472162E+03  0.00000000000E+00 0.  1.
         11    1    3    3    0    0 -0.13465790624E+02 -0.52609887543E+01 -0.85278260759E+01  0.16784794827E+02  0.00000000000E+00 0. -1.
</event>
<event>
 7    1  0.5831876E-006  0.1385455E+03  0.7561462E-02  0.1215300E+00
          1   -1    0    0  501    0  0.00000000000E+00  0.00000000000E+00  0.40554960311E+03  0.40554960311E+03  0.00000000000E+00 0. -1.
         -1   -1    0    0    0  501 -0.00000000000E+00 -0.00000000000E+00 -0.63431452752E+02  0.63431452752E+02  0.00000000000E+00 0.  1.
         23    2    1    2    0    0  0.10450317442E+03  0.36638904463E+02  0.10044580574E+03  0.17518438140E+03  0.91306543093E+02 0.  0.
          5    1    1    2  502    0 -0.29295624107E+02 -0.51742244762E+02  0.26333217109E+02  0.65164439752E+02  0.41800000000E+01 0.  1.
         -5    1    1    2    0  502 -0.75207550311E+02  0.15103340299E+02  0.21533912751E+03  0.22863223471E+03  0.41800000000E+01 0.  1.
        -11    1    3    3    0    0  0.88797229005E+02 -0.11949492718E+02  0.80215683163E+02  0.12025927856E+03  0.00000000000E+00 0. -1.
         11    1    3    3    0    0  0.15705945413E+02  0.48588397181E+02  0.20230122573E+02  0.54925102833E+02  0.00000000000E+00 0.  1.
</event>
<event>
 7    1  0.5831876E-006  0.1180430E+03  0.7561462E-02  0.1246361E+00
         -2   -1    0    0    0  501 -0.00000000000E+00  0.00000000000E+00  0.13645370088E+03  0.13645370088E+03  0.00000000000E+00 0.  1.
          2   -1    0    0  501    0  0.00000000000E+00 -0.00000000000E+00 -0.28278511275E+03  0.28278511275E+03  0.00000000000E+00 0. -1.
         23    2    1    2    0    0 -0.99881666185E+02 -0.20558216270E+02  0.67275945636E+02  0.15152217249E+03  0.89632183946E+02 0.  0.
          5    1    1    2  502    0  0.65216258535E+02  0.29691846311E+02 -0.25493574025E+02  0.76171916289E+02  0.41800000000E+01 0.  1.
         -5    1    1    2    0  502  0.34665407650E+02 -0.91336300410E+01 -0.18811378347E+03  0.19154472485E+03  0.41800000000E+01 0.  1.
        -11    1    3    3    0    0 -0.87256728150E+02 -0.46858030163E+02  0.28622593441E+02  0.10309541432E+03  0.00000000000E+00 0. -1.
         11    1    3    3    0    0 -0.12624938035E+02  0.26299813893E+02  0.38653352195E+02  0.48426758172E+02  0.00000000000E+00 0.  1.
</event>
<event>
 7    1  0.5831876E-006  0.2418674E+03  0.7561462E-02  0.1118555E+00
         -2   -1    0    0    0  501 -0.00000000000E+00  0.00000000000E+00  0.26431379706E+02  0.26431379706E+02  0.00000000000E+00 0.  1.
          2   -1    0    0  501    0  0.00000000000E+00 -0.00000000000E+00 -0.26143121046E+04  0.26143121046E+04  0.00000000000E+00 0. -1.
         23    2    1    2    0    0  0.21994046899E+03 -0.52479274239E+02 -0.86425426529E+03  0.89785376355E+03  0.89878036927E+02 0.  0.
          5    1    1    2  502    0 -0.18065253402E+03  0.54051678430E+01 -0.15040191496E+04  0.15148450840E+04  0.41800000000E+01 0. -1.
         -5    1    1    2    0  502 -0.39287934967E+02  0.47074106396E+02 -0.21960731003E+03  0.22804463674E+03  0.41800000000E+01 0. -1.
        -11    1    3    3    0    0  0.16400280094E+02 -0.33218580647E+02 -0.17690789039E+03  0.18074524881E+03  0.00000000000E+00 0.  1.
         11    1    3    3    0    0  0.20354018889E+03 -0.19260693592E+02 -0.68734637490E+03  0.71710851473E+03  0.00000000000E+00 0. -1.
</event>
<event>
 7    1  0.5831876E-006  0.1206744E+03  0.7561462E-02  0.1241989E+00
         -1   -1    0    0    0  501 -0.00000000000E+00  0.00000000000E+00  0.41461524638E+02  0.41461524638E+02  0.00000000000E+00 0.  1.
          1   -1    0    0  501    0  0.00000000000E+00 -0.00000000000E+00 -0.59119894096E+03  0.59119894096E+03  0.00000000000E+00 0. -1.
         23    2    1    2    0    0 -0.83759228662E+02  0.31692721248E+02 -0.11523549720E+03  0.17172632740E+03  0.90502346605E+02 0.  0.
          5    1    1    2  502    0 -0.18781911495E+02  0.22324966658E+02 -0.16387458506E+03  0.16650380285E+03  0.41800000000E+01 0. -1.
         -5    1    1    2    0  502  0.10254114016E+03 -0.54017687906E+02 -0.27062733406E+03  0.29443033534E+03  0.41800000000E+01 0. -1.
        -11    1    3    3    0    0 -0.66027367044E+02  0.82984690193E+01 -0.16280897410E+02  0.68509454875E+02  0.00000000000E+00 0.  1.
         11    1    3    3    0    0 -0.17731861618E+02  0.23394252229E+02 -0.98954599793E+02  0.10321687253E+03  0.00000000000E+00 0. -1.
</event>
<event>
 7    1  0.5831876E-006  0.1079707E+03  0.7561462E-02  0.1264375E+00
          2   -1    0    0  501    0  0.00000000000E+00  0.00000000000E+00  0.27227891103E+03  0.27227891103E+03  0.00000000000E+00 0. -1.
         -2   -1    0    0    0  501 -0.00000000000E+00 -0.00000000000E+00 -0.70103559251E+02  0.70103559251E+02  0.00000000000E+00 0.  1.
         23    2    1    2    0    0  0.97200067377E+01 -0.97298434390E+01 -0.81460319928E+01  0.97287922178E+02  0.95965793802E+02 0.  0.
          5    1    1    2  502    0  0.31928851092E+02 -0.45907347409E+02  0.99646339268E+02  0.11434072506E+03  0.41800000000E+01 0.  1.
         -5    1    1    2    0  502 -0.41648857829E+02  0.55637190848E+02  0.11067504451E+03  0.13075382304E+03  0.41800000000E+01 0.  1.
        -11    1    3    3    0    0  0.15803737434E+02  0.38506409331E+02  0.13929719624E+02  0.43892354291E+02  0.00000000000E+00 0.  1.
         11    1    3    3    0    0 -0.60837306967E+01 -0.48236252770E+02 -0.22075751617E+02  0.53395567886E+02  0.00000000000E+00 0. -1.
</event>
<event>
 7    1  0.5831876E-006  0.1058827E+03  0.7561462E-02  0.1268390E+00
          1   -1    0    0  501    0  0.00000000000E+00  0.00000000000E+00  0.11850394759E+03  0.11850394759E+03  0.00000000000E+00 0. -1.
         -1   -1    0    0    0  501 -0.00000000000E+00 -0.00000000000E+00 -0.12597356149E+03  0.12597356149E+03  0.00000000000E+00 0.  1.
         23    2    1    2    0    0 -0.22264807142E+02 -0.17704147437E+02 -0.55176698894E+02  0.10761312213E+03  0.87903114162E+02 0.  0.
          5    1    1    2  502    0  0.28227131282E+02 -0.51121542280E+02  0.28039539933E+02  0.64914337594E+02  0.41800000000E+01 0. -1.
         -5    1    1    2    0  502 -0.59623241407E+01  0.68825689718E+02  0.19667545065E+02  0.71950049362E+02  0.41800000000E+01 0. -1.
        -11    1    3    3    0    0 -0.26527244280E+02  0.27730441423E+02 -0.47941619956E+02  0.61409046521E+02  0.00000000000E+00 0.  1.
         11    1    3    3    0    0  0.42624371385E+01 -0.45434588860E+02 -0.72350789381E+01  0.46204075605E+02  0.00000000000E+00 0. -1.
</event>
<event>
 7    1  0.5831876E-006  0.1269462E+03  0.7561462E-02  0.1232059E+00
          2   -1    0    0  501    0  0.00000000000E+00  0.00000000000E+00  0.60307334184E+03  0.60307334184E+03  0.00000000000E+00 0. -1.
         -2   -1    0    0    0  501 -0.00000000000E+00 -0.00000000000E+00 -0.31524411786E+02  0.31524411786E+02  0.00000000000E+00 0.  1.
         23    2    1    2    0    0 -0.48081556546E+02 -0.68157118991E+02  0.25969454114E+03  0.28839563214E+03  0.93667267466E+02 0.  0.
          5    1    1    2  502    0 -0.27315014158E+02  0.54372706556E+02  0.20990328254E+03  0.21858490716E+03  0.41800000000E+01 0.  1.
         -5    1    1    2    0  502  0.75396570704E+02  0.13784412435E+02  0.10195110638E+03  0.12761721433E+03  0.41800000000E+01 0.  1.
        -11    1    3    3    0    0  0.22057398090E+02 -0.26825474195E+02  0.13562354627E+03  0.13999957564E+03  0.00000000000E+00 0.  1.
         11    1    3    3    0    0 -0.70138954636E+02 -0.41331644796E+02  0.12407099487E+03  0.14839605650E+03  0.00000000000E+00 0. -1.
</event>
<event>
 7    1  0.5831876E-006  0.2044150E+03  0.7561462E-02  0.1146067E+00
          2   -1    0    0  501    0  0.00000000000E+00  0.00000000000E+00  0.49933030657E+02  0.49933030657E+02  0.00000000000E+00 0.  1.
         -2   -1    0    0    0  501 -0.00000000000E+00 -0.00000000000E+00 -0.99332345368E+03  0.99332345368E+03  0.00000000000E+00 0. -1.
         23    2    1    2    0    0 -0.13631573367E+03  0.13638887300E+03 -0.51723741423E+03  0.55906941480E+03  0.88544700382E+02 0.  0.
          5    1    1    2  502    0  0.50402283101E+02 -0.11630114696E+03 -0.16249943201E+03  0.20613074669E+03  0.41800000000E+01 0. -1.
         -5    1    1    2    0  502  0.85913450564E+02 -0.20087726042E+02 -0.26365357678E+03  0.27805632285E+03  0.41800000000E+01 0. -1.
        -11    1    3    3    0    0 -0.12031639174E+03  0.11117499370E+03 -0.49619801414E+03  0.52254031670E+03  0.00000000000E+00 0. -1.
         11    1    3    3    0    0 -0.15999341930E+02  0.25213879305E+02 -0.21039400087E+02  0.36529098097E+02  0.00000000000E+00 0.  1.
</event>
<event>
 7    1  0.5831876E-006  0.1440263E+03  0.7561462E-02  0.1208012E+00
         -2   -1    0    0    0  501 -0.00000000000E+00  0.00000000000E+00  0.36336593736E+02  0.36336593736E+02  0.00000000000E+00 0.  1.
          2   -1    0    0  501    0  0.00000000000E+00 -0.00000000000E+00 -0.80150287540E+03  0.80150287540E+03  0.00000000000E+00 0. -1.
         23    2    1    2    0    0  0.73294353838E+02  0.10399334327E+03 -0.27381316395E+03  0.31509441361E+03  0.90134138868E+02 0.  0.
          5    1    1    2  502    0 -0.45707189619E+02 -0.33945804485E+02 -0.40109313530E+03  0.40513533592E+03  0.41800000000E+01 0. -1.
         -5    1    1    2    0  502 -0.27587164220E+02 -0.70047538786E+02 -0.90259982414E+02  0.11760971960E+03  0.41800000000E+01 0. -1.
        -11    1    3    3    0    0 -0.12892281327E+01  0.75831070830E+02 -0.12290081741E+03  0.14441822715E+03  0.00000000000E+00 0. -1.
         11    1    3    3    0    0  0.74583581971E+02  0.28162272441E+02 -0.15091234654E+03  0.17067618647E+03  0.00000000000E+00 0.  1.
</event>
<event>
 7    1  0.5831876E-006  0.9424354E+02  0.7561462E-02  0.1292889E+00
         -2   -1    0    0    0  501 -0.00000000000E+00  0.00000000000E+00  0.10491677439E+02  0.10491677439E+02  0.00000000000E+00 0.  1.
          2   -1    0    0  501    0  0.00000000000E+00 -0.00000000000E+00 -0.16466284220E+04  0.16466284220E+04  0.00000000000E+00 0. -1.
         23    2    1    2    0    0 -0.77255038422E+01  0.10091499538E+02 -0.16416105216E+03  0.17978418819E+03  0.72194054510E+02 0.  0.
          5    1    1    2  502    0  0.50255677006E+01  0.57365592238E+02 -0.62277079919E+03  0.62544145068E+03  0.41800000000E+01 0. -1.
         -5    1    1    2    0  502  0.26999361416E+01 -0.67457091775E+02 -0.84920489324E+03  0.85189446059E+03  0.41800000000E+01 0. -1.
        -11    1    3    3    0    0  0.10700675337E+02 -0.22925134432E+02 -0.11507907887E+03  0.11782724912E+03  0.00000000000E+00 0. -1.
         11    1    3    3    0    0 -0.18426179179E+02  0.33016633970E+02 -0.49081973289E+02  0.61956939077E+02  0.00000000000E+00 0.  1.
</event>
<event>
 7    1  0.5831876E-006  0.1110547E+03  0.7561462E-02  0.1258629E+00
          2   -1    0    0  501    0  0.00000000000E+00  0.00000000000E+00  0.73397832562E+02  0.73397832562E+02  0.00000000000E+00 0. -1.
         -2   -1    0    0    0  501 -0.00000000000E+00 -0.00000000000E+00 -0.19336331641E+03  0.19336331641E+03  0.00000000000E+00 0.  1.
         23    2    1    2    0    0  0.40430700257E+02 -0.58354799361E+01 -0.81804906017E+02  0.12975067220E+03  0.92057047202E+02 0.  0.
          5    1    1    2  502    0  0.40198212459E+02  0.16912302673E+02 -0.33919097881E+02  0.55406677103E+02  0.41800000000E+01 0.  1.
         -5    1    1    2    0  502 -0.80628912716E+02 -0.11076822736E+02 -0.42414799507E+01  0.81603799665E+02  0.41800000000E+01 0.  1.
        -11    1    3    3    0    0  0.59174180962E+02  0.22098126470E+02 -0.35317470938E+02  0.72368740762E+02  0.00000000000E+00 0.  1.
         11    1    3    3    0    0 -0.18743480705E+02 -0.27933606407E+02 -0.46487435079E+02  0.57381931442E+02  0.00000000000E+00 0. -1.
</event>
<event>
 7    1  0.5831876E-006  0.2191683E+03  0.7561462E-02  0.1134505E+00
         -1   -1    0    0    0  501 -0.00000000000E+00  0.00000000000E+00  0.17883660459E+03  0.17883660459E+03  0.00000000000E+00 0.  1.
          1   -1    0    0  501    0  0.00000000000E+00 -0.00000000000E+00 -0.26878062010E+03  0.26878062010E+03  0.00000000000E+00 0. -1.
         23    2    1    2    0    0 -0.36557287243E+01 -0.18986870400E+03 -0.43432634843E+02  0.21550921050E+03  0.92164727155E+02 0.  0.
          5    1    1    2  502    0  0.45478954018E+02  0.17782300061E+03 -0.40016969763E+02  0.18790472340E+03  0.41800000000E+01 0.  1.
         -5    1    1    2    0  502 -0.41823225294E+02  0.12045703384E+02 -0.64944109040E+01  0.44203290793E+02  0.41800000000E+01 0.  1.
        -11    1    3    3    0    0 -0.43869528575E+02 -0.14135031491E+03 -0.27945576592E+02  0.15061673982E+03  0.00000000000E+00 0. -1.
         11    1    3    3    0    0  0.40213799851E+02 -0.48518389088E+02 -0.15487058250E+02  0.64892470683E+02  0.00000000000E+00 0.  1.
</event>
<event>
 7    1  0.5831876E-006  0.2092572E+03  0.7561462E-02  0.1142156E+00
          1   -1    0    0  501    0  0.00000000000E+00  0.00000000000E+00  0.41331777193E+04  0.41331777193E+04  0.00000000000E+00 0. -1.
         -1   -1    0    0    0  501 -0.00000000000E+00 -0.00000000000E+00 -0.78000516492E+02  0.78000516492E+02  0.00000000000E+00 0.  1.
         23    2    1    2    0    0  0.39861626952E+02  0.10889486677E+03  0.50440529107E+00  0.14624032514E+03  0.89100712468E+02 0.  0.
          5    1    1    2  502    0  0.10915748652E+03 -0.83405922754E+02  0.19052957050E+04  0.19102463456E+04  0.41800000000E+01 0. -1.
         -5    1    1    2    0  502 -0.14901911347E+03 -0.25488944012E+02  0.21493770925E+04  0.21546915651E+04  0.41800000000E+01 0.  1.
        -11    1    3    3    0    0  0.19836290567E+02  0.10798172340E+03 -0.26178317244E+02  0.11286644898E+03  0.00000000000E+00 0.  1.
         11    1    3    3    0    0  0.20025336385E+02  0.91314336396E+00  0.26682722535E+02  0.33373876161E+02  0.00000000000E+00 0. -1.
</event>
<event>
 7    1  0.5831876E-006  0.1188372E+03  0.7561462E-02  0.1245028E+00
         -2   -1    0    0    0  501 -0.00000000000E+00  0.00000000000E+00  0.15238033244E+02  0.15238033244E+02  0.00000000000E+00 0. -1.
          2   -1    0    0  501    0  0.00000000000E+00 -0.00000000000E+00 -0.12526741330E+04  0.12526741330E+04  0.00000000000E+00 0.  1.
         23    2    1    2    0    0 -0.40008846258E+02 -0.51543236761E+02 -0.33327120194E+03  0.35280538613E+03  0.95627053729E+02 0.  0.
          5    1    1    2  502    0  0.46326865246E+02 -0.27920119559E+02 -0.23409755815E+03  0.24030158271E+03  0.41800000000E+01 0. -1.
         -5    1    1    2    0  502 -0.63180189881E+01  0.79463356320E+02 -0.67006733964E+03  0.67480519738E+03  0.41800000000E+01 0. -1.
        -11    1    3    3    0    0 -0.64333414116E+02 -0.44675387182E+02 -0.30493996971E+03  0.31483815448E+03  0.00000000000E+00 0.  1.
         11    1    3    3    0    0  0.24324567858E+02 -0.68678495787E+01 -0.28331232237E+02  0.37967231653E+02  0.00000000000E+00 0. -1.
</event>
<event>
 6    1  0.5831876E-006  0.4542568E+02  0.7561462E-02  0.1471702E+00
          2   -1    0    0  501    0  0.00000000000E+00  0.00000000000E+00  0.84035163266E+02  0.84035163266E+02  0.00000000000E+00 0. -1.
         -2   -1    0    0    0  501 -0.00000000000E+00 -0.00000000000E+00 -0.93301276419E+02  0.93301276419E+02  0.00000000000E+00 0.  1.
          5    1    1    2  502    0 -0.40331414047E+01 -0.21832030793E+02 -0.53203249172E+02  0.57801054667E+02  0.41800000000E+01 0. -1.
         -5    1    1    2    0  502  0.18292321796E+02  0.24732680012E+02  0.60908131346E+02  0.68363640639E+02  0.41800000000E+01 0. -1.
        -11    1    1    2    0    0  0.98322116857E+01  0.60156530217E+01 -0.22147053623E+02  0.24967027298E+02  0.00000000000E+00 0.  1.
         11    1    1    2    0    0 -0.24091392077E+02 -0.89163022405E+01  0.51760582953E+01  0.26204717081E+02  0.00000000000E+00 0. -1.
</event>
<event>
 7    1  0.5831876E-006  0.8120159E+02  0.7561462E-02  0.1325676E+00
         -2   -1    0    0    0  501 -0.00000000000E+00  0.00000000000E+00  0.22359285094E+02  0.22359285094E+02  0.00000000000E+00 0. -1.
          2   -1    0    0  501    0  0.00000000000E+00 -0.00000000000E+00 -0.54396608103E+03  0.54396608103E+03  0.00000000000E+00 0.  1.
         23    2    1    2    0    0  0.22756826707E+02  0.14306305969E+01 -0.14573094594E+03  0.16952572626E+03  0.83555630538E+02 0.  0.
          5    1    1    2  502    0  0.24501239887E+02 -0.18416441235E+02 -0.18829066088E+02  0.36214392077E+02  0.41800000000E+01 0.  1.
         -5    1    1    2    0  502 -0.47258066595E+02  0.16985810638E+02 -0.35704678390E+03  0.36058524778E+03  0.41800000000E+01 0.  1.
        -11    1    3    3    0    0  0.25754439740E+02 -0.35592273064E+02 -0.10793311680E+03  0.11653179296E+03  0.00000000000E+00 0.  1.
         11    1    3    3    0    0 -0.29976130330E+01  0.37022903660E+02 -0.37797829145E+02  0.52993933308E+02  0.00000000000E+00 0. -1.
</event>
<event>
 7    1  0.5831876E-006  0.8141763E+02  0.7561462E-02  0.1325076E+00
         -2   -1    0    0    0  501 -0.00000000000E+00  0.00000000000E+00  0.13449123971E+02  0.13449123971E+02  0.00000000000E+00 0.  1.
          2   -1    0    0  501    0  0.00000000000E+00 -0.00000000000E+00 -0.90086235343E+03  0.90086235343E+03  0.00000000000E+00 0. -1.
         23    2    1    2    0    0 -0.12447816648E+02 -0.25383736708E+02 -0.37246046388E+03  0.38363279767E+03  0.87453096358E+02 0.  0.
          5    1    1    2  502    0 -0.26253666022E+02  0.17027173430E+02 -0.46823230764E+03  0.46929537174E+03  0.41800000000E+01 0.  1.
         -5    1    1    2    0  502  0.38701482671E+02  0.83565632779E+01 -0.46720457933E+02  0.61383307993E+02  0.41800000000E+01 0.  1.
        -11    1    3    3    0    0  0.12022573975E+02 -0.53120377756E+02 -0.20270170212E+03  0.20989115480E+03  0.00000000000E+00 0.  1.
         11    1    3    3    0    0 -0.24470390624E+02  0.27736641048E+02 -0.16975876176E+03  0.17374164287E+03  0.00000000000E+00 0. -1.
</event>
<event>
 7    1  0.5831876E-006  0.1050581E+03  0.7561462E-02  0.1270005E+00
          2   -1    0    0  501    0  0.00000000000E+00  0.00000000000E+00  0.26911277522E+03  0.26911277522E+03  0.00000000000E+00 0. -1.
         -2   -1    0    0    0  501 -0.00000000000E+00 -0.00000000000E+00 -0.59410299390E+02  0.59410299390E+02  0.00000000000E+00 0.  1.
         23    2    1    2    0    0  0.51540589364E+02 -0.78493704573E+01  0.44714299615E+02  0.11501066521E+03  0.92249875627E+02 0.  0.
          5    1    1    2  502    0 -0.88955169799E+02 -0.10580013067E+01  0.78307765125E+02  0.11859055645E+03  0.41800000000E+01 0.  1.
         -5    1    1    2    0  502  0.37414580435E+02  0.89073717639E+01  0.86680411094E+02  0.94921852954E+02  0.41800000000E+01 0.  1.
        -11    1    3    3    0    0  0.20235850502E+02 -0.35329760565E+02  0.58376372594E+02  0.71172203172E+02  0.00000000000E+00 0. -1.
         11    1    3    3    0    0  0.31304738862E+02  0.27480390108E+02 -0.13662072979E+02  0.43838462037E+02  0.00000000000E+00 0.  1.
</event>
<event>
 7    1  0.5831876E-006  0.1115430E+03  0.7561462E-02  0.1257739E+00
         -1   -1    0    0    0  501 -0.00000000000E+00  0.00000000000E+00  0.82226535585E+02  0.82226535585E+02  0.00000000000E+00 0.  1.
          1   -1    0    0  501    0  0.00000000000E+00 -0.00000000000E+00 -0.17789254232E+03  0.17789254232E+03  0.00000000000E+00 0. -1.
         23    2    1    2    0    0 -0.50662389847E+01  0.37117756490E+02 -0.20546257866E+01  0.99452693813E+02  0.92104409206E+02 0.  0.
          5    1    1    2  502    0 -0.44810916226E+02  0.24420129949E+02 -0.38927892102E+02  0.64321179586E+02  0.41800000000E+01 0.  1.
         -5    1    1    2    0  502  0.49877155211E+02 -0.61537886440E+02 -0.54683488849E+02  0.96345204510E+02  0.41800000000E+01 0.  1.
        -11    1    3    3    0    0  0.12888184393E+02 -0.24876824782E+02  0.16219548798E+02  0.32373375966E+02  0.00000000000E+00 0.  1.
         11    1    3    3    0    0 -0.17954423378E+02  0.61994581273E+02 -0.18274174585E+02  0.67079317847E+02  0.00000000000E+00 0. -1.
</event>
<event>
 7    1  0.5831876E-006  0.2925082E+03  0.7561462E-02  0.1089047E+00
          2   -1    0    0  501    0  0.00000000000E+00  0.00000000000E+00  0.11936419076E+03  0.11936419076E+03  0.00000000000E+00 0. -1.
         -2   -1    0    0    0  501 -0.00000000000E+00 -0.00000000000E+00 -0.88552975007E+03  0.88552975007E+03  0.00000000000E+00 0.  1.
         23    2    1    2    0    0  0.27018200621E+03  0.65222921528E+02 -0.57506812474E+03  0.64514631635E+03  0.90873953563E+02 0.  0.
          5    1    1    2  502    0 -0.13504809574E+03 -0.86038671388E+02 -0.14306248374E+03  0.21476728752E+03  0.41800000000E+01 0. -1.
         -5    1    1    2    0  502 -0.13513391047E+03  0.20815749860E+02 -0.48034950841E+02  0.14498033695E+03  0.41800000000E+01 0. -1.
        -11    1    3    3    0    0  0.16969861985E+03  0.27465090447E+01 -0.28257148996E+03  0.32962374281E+03  0.00000000000E+00 0.  1.
         11    1    3    3    0    0  0.10048338636E+03  0.62476412483E+02 -0.29249663478E+03  0.31552257354E+03  0.00000000000E+00 0. -1.
</event>
<event>
 7    1  0.5831876E-006  0.1077939E+03  0.7561462E-02  0.1264711E+00
         -1   -1    0    0    0  501 -0.00000000000E+00  0.00000000000E+00  0.82103301745E+02  0.82103301745E+02  0.00000000000E+00 0.  1.
          1   -1    0    0  501    0  0.00000000000E+00 -0.00000000000E+00 -0.16755126175E+03  0.16755126175E+03  0.00000000000E+00 0. -1.
         23    2    1    2    0    0  0.10058185108E+02  0.15443367655E+01 -0.62701533559E+01  0.10129191809E+03  0.10058422234E+03 0.  0.
          5    1    1    2  502    0  0.37218591915E+02  0.40060768403E+02 -0.11907156809E+02  0.56118994399E+02  0.41800000000E+01 0.  1.
         -5    1    1    2    0  502 -0.47276777023E+02 -0.41605105168E+02 -0.67270649840E+02  0.92243651010E+02  0.41800000000E+01 0.  1.
        -11    1    3    3    0    0  0.23882516579E+02  0.45590144024E+02 -0.16424367982E+02  0.54024028856E+02  0.00000000000E+00 0.  1.
         11    1    3    3    0    0 -0.13824331471E+02 -0.44045807258E+02  0.10154214626E+02  0.47267889230E+02  0.00000000000E+00 0. -1.
</event>
<event>
 7    1  0.5831876E-006  0.1959199E+03  0.7561462E-02  0.1153228E+00
          3   -1    0    0  501    0  0.00000000000E+00  0.00000000000E+00  0.10472107982E+03  0.10472107982E+03  0.00000000000E+00 0. -1.
         -3   -1    0    0    0  501 -0.00000000000E+00 -0.00000000000E+00 -0.40026431509E+03  0.40026431509E+03  0.00000000000E+00 0.  1.
         23    2    1    2    0    0 -0.13450939233E+03 -0.10926904640E+03 -0.14312570506E+03  0.24247808809E+03  0.90984364750E+02 0.  0.
          5    1    1    2  502    0  0.94970975255E+02  0.11773237929E+02 -0.28585948807E+02  0.99963614088E+02  0.41800000000E+01 0.  1.
         -5    1    1    2    0  502  0.39538417077E+02  0.97495808471E+02 -0.12383158140E+03  0.16254369273E+03  0.41800000000E+01 0.  1.
        -11    1    3    3    0    0 -0.82991631165E+02 -0.11173307668E+03 -0.12705982728E+03  0.18845713299E+03  0.00000000000E+00 0.  1.
         11    1    3    3    0    0 -0.51517761166E+02  0.24640302774E+01 -0.16065877776E+02  0.54020955096E+02  0.00000000000E+00 0. -1.
</event>
<event>
 7    1  0.5831876E-006  0.4355290E+03  0.7561462E-02  0.1032127E+00
         -2   -1    0    0    0  501 -0.00000000000E+00  0.00000000000E+00  0.11780509288E+03  0.11780509288E+03  0.00000000000E+00 0.  1.
          2   -1    0    0  501    0  0.00000000000E+00 -0.00000000000E+00 -0.18392336651E+04  0.18392336651E+04  0.00000000000E+00 0. -1.
         23    2    1    2    0    0 -0.29429285814E+03  0.30835323897E+03 -0.53398304857E+03  0.68922033411E+03  0.90535995353E+02 0.  0.
          5    1    1    2  502    0  0.66593745140E+01  0.93942851261E+01 -0.68549229892E+02  0.69635258173E+02  0.41800000000E+01 0. -1.
         -5    1    1    2    0  502  0.28763348363E+03 -0.31774752410E+03 -0.11188962938E+04  0.11981831657E+04  0.41800000000E+01 0. -1.
        -11    1    3    3    0    0 -0.12316448395E+03  0.88884273002E+02 -0.24309379897E+03  0.28664350541E+03  0.00000000000E+00 0.  1.
         11    1    3    3    0    0 -0.17112837419E+03  0.21946896597E+03 -0.29088924960E+03  0.40257682870E+03  0.00000000000E+00 0. -1.
</event>
<event>
 7    1  0.5831876E-006  0.1392744E+03  0.7561462E-02  0.1214309E+00
         -1   -1    0    0    0  501 -0.00000000000E+00  0.00000000000E+00  0.47735009024E+03  0.47735009024E+03  0.00000000000E+00 0.  1.
          1   -1    0    0  501    0  0.00000000000E+00 -0.00000000000E+00 -0.53972070296E+02  0.53972070296E+02  0.00000000000E+00 0. -1.
         23    2    1    2    0    0  0.99204051864E+02 -0.31176826364E+02  0.28209545566E+03  0.31586678528E+03  0.96853195760E+02 0.  0.
          5    1    1    2  502    0  0.38051143956E+01  0.52953172998E+02  0.25960298605E+02  0.59244636296E+02  0.41800000000E+01 0. -1.
         -5    1    1    2    0  502 -0.10300916626E+03 -0.21776346634E+02  0.11532226568E+03  0.15621073896E+03  0.41800000000E+01 0. -1.
        -11    1    3    3    0    0  0.64384813330E+02 -0.48905990183E+02  0.95062998107E+02  0.12479652909E+03  0.00000000000E+00 0. -1.
         11    1    3    3    0    0  0.34819238535E+02  0.17729163819E+02  0.18703245756E+03  0.19107025619E+03  0.00000000000E+00 0.  1.
</event>
<event>
 7    1  0.5831876E-006  0.1444964E+03  0.7561462E-02  0.1207404E+00
          2   -1    0    0  501    0  0.00000000000E+00  0.00000000000E+00  0.15531898659E+03  0.15531898659E+03  0.00000000000E+00 0. -1.
         -2   -1    0    0    0  501 -0.00000000000E+00 -0.00000000000E+00 -0.17744302500E+03  0.17744302500E+03  0.00000000000E+00 0.  1.
         23    2    1    2    0    0 -0.35419573138E+02  0.24296561848E+02 -0.40395247703E+02  0.11366913923E+03  0.97180389469E+02 0.  0.
          5    1    1    2  502    0 -0.60559894551E+02  0.63739365159E+02  0.78265027305E+01  0.88368173252E+02  0.41800000000E+01 0. -1.
         -5    1    1    2    0  502  0.95979467690E+02 -0.88035927007E+02  0.10444706557E+02  0.13072469911E+03  0.41800000000E+01 0.  1.
        -11    1    3    3    0    0 -0.50755480258E+02  0.21277300980E+02  0.14235649042E+02  0.56846248925E+02  0.00000000000E+00 0.  1.
         11    1    3    3    0    0  0.15335907119E+02  0.30192608681E+01 -0.54630896745E+02  0.56822890305E+02  0.00000000000E+00 0. -1.
</event>
<event>
 7    1  0.5831876E-006  0.1136911E+03  0.7561462E-02  0.1253883E+00
          2   -1    0    0  501    0  0.00000000000E+00  0.00000000000E+00  0.15053738721E+03  0.15053738721E+03  0.00000000000E+00 0. -1.
         -2   -1    0    0    0  501 -0.00000000000E+00 -0.00000000000E+00 -0.13128972340E+03  0.13128972340E+03  0.00000000000E+00 0.  1.
         23    2    1    2    0    0  0.73703856413E+02 -0.14161920761E+02 -0.37878154232E+02  0.12520264613E+03  0.92780006363E+02 0.  0.
          5    1    1    2  502    0 -0.23459413920E+02  0.47671775247E+02 -0.21434873556E+02  0.57444481554E+02  0.41800000000E+01 0.  1.
         -5    1    1    2    0  502 -0.50244442492E+02 -0.33509854486E+02  0.78560691593E+02  0.99179982923E+02  0.41800000000E+01 0.  1.
        -11    1    3    3    0    0  0.17668840686E+02 -0.45876145141E+02 -0.35740642316E+02  0.60779948480E+02  0.00000000000E+00 0.  1.
         11    1    3    3    0    0  0.56035015727E+02  0.31714224380E+02 -0.21375119161E+01  0.64422697652E+02  0.00000000000E+00 0. -1.
</event>
<event>
 7    1  0.5831876E-006  0.2054000E+03  0.7561462E-02  0.1145261E+00
         -1   -1    0    0    0  501 -0.00000000000E+00  0.00000000000E+00  0.26549102719E+02  0.26549102719E+02  0.00000000000E+00 0.  1.
          1   -1    0    0  501    0  0.00000000000E+00 -0.00000000000E+00 -0.19918993896E+04  0.19918993896E+04  0.00000000000E+00 0. -1.
         23    2    1    2    0    0  0.12005245336E+03  0.15390156114E+03 -0.70753744803E+03  0.73944916900E+03  0.89875197304E+02 0.  0.
          5    1    1    2  502    0 -0.39371977265E+02 -0.31268005124E+02 -0.71170945633E+03  0.71349538427E+03  0.41800000000E+01 0.  1.
         -5    1    1    2    0  502 -0.80680476093E+02 -0.12263355602E+03 -0.54610338249E+03  0.56550393903E+03  0.41800000000E+01 0.  1.
        -11    1    3    3    0    0  0.17457093944E+02  0.92066823002E+02 -0.26943913758E+03  0.28526916918E+03  0.00000000000E+00 0.  1.
         11    1    3    3    0    0  0.10259535941E+03  0.61834738140E+02 -0.43809831045E+03  0.45417999982E+03  0.00000000000E+00 0. -1.
</event>
<event>
 7    1  0.5831876E-006  0.8530936E+02  0.7561462E-02  0.1314625E+00
         -2   -1    0    0    0  501 -0.00000000000E+00  0.00000000000E+00  0.37158128883E+02  0.37158128883E+02  0.00000000000E+00 0. -1.
          2   -1    0    0  501    0  0.00000000000E+00 -0.00000000000E+00 -0.34797659380E+03  0.34797659380E+03  0.00000000000E+00 0.  1.
         23    2    1    2    0    0 -0.15459296285E+02  0.13338628095E+01 -0.81517992017E+02  0.12347351701E+03  0.91431708661E+02 0.  0.
          5    1    1    2  502    0  0.42424721510E+02 -0.20588702331E+02 -0.22262585719E+03  0.22760381444E+03  0.41800000000E+01 0. -1.
         -5    1    1    2    0  502 -0.26965425225E+02  0.19254839522E+02 -0.66746157093E+01  0.34057391231E+02  0.41800000000E+01 0. -1.
        -11    1    3    3    0    0  0.44366899529E+01  0.43252550169E+02 -0.54717751668E+02  0.69889195599E+02  0.00000000000E+00 0.  1.
         11    1    3    3    0    0 -0.19895986237E+02 -0.41918687359E+02 -0.26800240349E+02  0.53584321411E+02  0.00000000000E+00 0. -1.
</event>
<event>
 7    1  0.5831876E-006  0.1084273E+03  0.7561462E-02  0.1263510E+00
         -1   -1    0    0    0  501 -0.00000000000E+00  0.00000000000E+00  0.28108072113E+03  0.28108072113E+03  0.00000000000E+00 0.  1.
          1   -1    0    0  501    0  0.00000000000E+00 -0.00000000000E+00 -0.62644432075E+02  0.62644432075E+02  0.00000000000E+00 0. -1.
         23    2    1    2    0    0  0.73797413483E+02 -0.25451386709E+02  0.11913283163E+03  0.16595470531E+03  0.85173360396E+02 0.  0.
          5    1    1    2  502    0 -0.17139656801E+02 -0.26875004795E+02  0.95135667739E+02  0.10042062235E+03  0.41800000000E+01 0.  1.
         -5    1    1    2    0  502 -0.56657756682E+02  0.52326391504E+02  0.41677896873E+01  0.77349825539E+02  0.41800000000E+01 0.  1.
        -11    1    3    3    0    0  0.10942252283E+02  0.24727719058E+02  0.60976102656E+02  0.66702909007E+02  0.00000000000E+00 0.  1.
         11    1    3    3    0    0  0.62855161200E+02 -0.50179105767E+02  0.58156728976E+02  0.99251796308E+02  0.00000000000E+00 0. -1.
</event>
<event>
 7    1  0.5831876E-006  0.1435054E+03  0.7561462E-02  0.1208689E+00
         -1   -1    0    0    0  501 -0.00000000000E+00  0.00000000000E+00  0.36503269733E+03  0.36503269733E+03  0.00000000000E+00 0.  1.
          1   -1    0    0  501    0  0.00000000000E+00 -0.00000000000E+00 -0.95388255249E+02  0.95388255249E+02  0.00000000000E+00 0. -1.
         23    2    1    2    0    0 -0.17021739401E+02 -0.12178224514E+03  0.23672340174E+03  0.28194665756E+03  0.91297830960E+02 0.  0.
          5    1    1    2  502    0 -0.41378173306E+02  0.25203331026E+02 -0.21423444967E+02  0.53139415834E+02  0.41800000000E+01 0.  1.
         -5    1    1    2    0  502  0.58399912707E+02  0.96578914113E+02  0.54344485311E+02  0.12533487918E+03  0.41800000000E+01 0.  1.
        -11    1    3    3    0    0  0.76359149657E+00 -0.80338255429E+02  0.21937825663E+03  0.23362713421E+03  0.00000000000E+00 0.  1.
         11    1    3    3    0    0 -0.17785330898E+02 -0.41443989710E+02  0.17345145106E+02  0.48319523352E+02  0.00000000000E+00 0. -1.
</event>
<event>
 7    1  0.5831876E-006  0.2122807E+03  0.7561462E-02  0.1139773E+00
          2   -1    0    0  501    0  0.00000000000E+00  0.00000000000E+00  0.23014288019E+03  0.23014288019E+03  0.00000000000E+00 0. -1.
         -2   -1    0    0    0  501 -0.00000000000E+00 -0.00000000000E+00 -0.22571632290E+03  0.22571632290E+03  0.00000000000E+00 0.  1.
         23    2    1    2    0    0 -0.16540213521E+03  0.92086011965E+02 -0.67674307454E+02  0.21777684107E+03  0.83721208094E+02 0.  0.
          5    1    1    2  502    0  0.42465896011E+02 -0.86609880037E+02  0.61552074619E+02  0.11450220056E+03  0.41800000000E+01 0.  1.
         -5    1    1    2    0  502  0.12293623920E+03 -0.54761319284E+01  0.10548790124E+02  0.12358016145E+03  0.41800000000E+01 0.  1.
        -11    1    3    3    0    0 -0.15117221262E+03  0.48083226974E+02 -0.38987493249E+02  0.16335562193E+03  0.00000000000E+00 0. -1.
         11    1    3    3    0    0 -0.14229922592E+02  0.44002784991E+02 -0.28686814205E+02  0.54421219145E+02  0.00000000000E+00 0.  1.
</event>
<event>
 7    1  0.5831876E-006  0.8257577E+02  0.7561462E-02  0.1321897E+00
          1   -1    0    0  501    0  0.00000000000E+00  0.00000000000E+00  0.37811303975E+03  0.37811303975E+03  0.00000000000E+00 0. -1.
         -1   -1    0    0    0  501 -0.00000000000E+00 -0.00000000000E+00 -0.47428923990E+02  0.47428923990E+02  0.00000000000E+00 0.  1.
         23    2    1    2    0    0 -0.71577825636E+02  0.31790556952E+02  0.11803157515E+03  0.16669360813E+03  0.87870823507E+02 0.  0.
          5    1    1    2  502    0  0.22662761292E+02 -0.28313560383E+02 -0.39546813838E+01  0.36720162796E+02  0.41800000000E+01 0.  1.
         -5    1    1    2    0  502  0.48915064344E+02 -0.34769965694E+01  0.21660722199E+03  0.22212819282E+03  0.41800000000E+01 0.  1.
        -11    1    3    3    0    0 -0.17714394842E+02  0.18700155051E+01  0.10128934039E+03  0.10284370286E+03  0.00000000000E+00 0. -1.
         11    1    3    3    0    0 -0.53863430794E+02  0.29920541447E+02  0.16742234764E+02  0.63849905264E+02  0.00000000000E+00 0.  1.
</event>
<event>
 7    1  0.5831876E-006  0.1229952E+03  0.7561462E-02  0.1238236E+00
          1   -1    0    0  501    0  0.00000000000E+00  0.00000000000E+00  0.10913770055E+03  0.10913770055E+03  0.00000000000E+00 0. -1.
         -1   -1    0    0    0  501 -0.00000000000E+00 -0.00000000000E+00 -0.21848767019E+03  0.21848767019E+03  0.00000000000E+00 0.  1.
         23    2    1    2    0    0  0.99110443483E+02  0.23462120355E+02 -0.93637180551E+02  0.16555179688E+03  0.90918231224E+02 0.  0.
          5    1    1    2  502    0 -0.74844163267E+02 -0.46139127265E+02 -0.60023321159E+02  0.10653984852E+03  0.41800000000E+01 0.  1.
         -5    1    1    2    0  502 -0.24266280216E+02  0.22677006910E+02  0.44310532066E+02  0.55533725338E+02  0.41800000000E+01 0.  1.
        -11    1    3    3    0    0  0.72543467273E+02 -0.18465871195E+02 -0.88099788437E+02  0.11560759389E+03  0.00000000000E+00 0.  1.
         11    1    3    3    0    0  0.26566976210E+02  0.41927991551E+02 -0.55373921139E+01  0.49944202985E+02  0.00000000000E+00 0. -1.
</event>
<event>
 7    1  0.5831876E-006  0.1361291E+03  0.7561462E-02  0.1218635E+00
          1   -1    0    0  501    0  0.00000000000E+00  0.00000000000E+00  0.50870389983E+03  0.50870389983E+03  0.00000000000E+00 0. -1.
         -1   -1    0    0    0  501 -0.00000000000E+00 -0.00000000000E+00 -0.48509207164E+02  0.48509207164E+02  0.00000000000E+00 0.  1.
         23    2    1    2    0    0  0.10567326866E+03  0.19343854772E+02  0.26347688626E+03  0.30052888068E+03  0.96729075790E+02 0.  0.
          5    1    1    2  502    0 -0.27573932240E+02 -0.38835768616E+02  0.42269708641E+01  0.47998732753E+02  0.41800000000E+01 0.  1.
         -5    1    1    2    0  502 -0.78099336422E+02  0.19491913844E+02  0.19249083554E+03  0.20868549356E+03  0.41800000000E+01 0.  1.
        -11    1    3    3    0    0  0.28022219928E+02  0.52420355565E+02  0.94376726768E+02  0.11153521884E+03  0.00000000000E+00 0.  1.
         11    1    3    3    0    0  0.77651048735E+02 -0.33076500793E+02  0.16910015949E+03  0.18899366184E+03  0.00000000000E+00 0. -1.
</event>
<event>
 7    1  0.5831876E-006  0.1252186E+03  0.7561462E-02  0.1234728E+00
         -1   -1    0    0    0  501 -0.00000000000E+00  0.00000000000E+00  0.57149409802E+02  0.57149409802E+02  0.00000000000E+00 0.  1.
          1   -1    0    0  501    0  0.00000000000E+00 -0.00000000000E+00 -0.37277037270E+03  0.37277037270E+03  0.00000000000E+00 0. -1.
         23    2    1    2    0    0  0.28130859001E+02 -0.92862846926E+02 -0.12140236470E+03  0.17935441028E+03  0.89524392021E+02 0.  0.
          5    1    1    2  502    0 -0.39533270528E+02 -0.82327729156E+01 -0.11377270971E+03  0.12079884065E+03  0.41800000000E+01 0. -1.
         -5    1    1    2    0  502  0.11402411527E+02  0.10109561984E+03 -0.80445888495E+02  0.12976653157E+03  0.41800000000E+01 0. -1.
        -11    1    3    3    0    0  0.19215853113E+01 -0.77728971041E+02 -0.30456497312E+02  0.83504991813E+02  0.00000000000E+00 0.  1.
         11    1    3    3    0    0  0.26209273689E+02 -0.15133875885E+02 -0.90945867387E+02  0.95849418472E+02  0.00000000000E+00 0. -1.
</event>
<event>
 7    1  0.5831876E-006  0.1075363E+03  0.7561462E-02  0.1265201E+00
         -2   -1    0    0    0  501 -0.00000000000E+00  0.00000000000E+00  0.80945500603E+01  0.80945500603E+01  0.00000000000E+00 0.  1.
          2   -1    0    0  501    0  0.00000000000E+00 -0.00000000000E+00 -0.19787010045E+04  0.19787010045E+04  0.00000000000E+00 0. -1.
         23    2    1    2    0    0 -0.41246133697E+02 -0.23951873885E+02 -0.48979071558E+03  0.49994083377E+03  0.88153028292E+02 0.  0.
          5    1    1    2  502    0 -0.34288413356E+02 -0.49274681607E+01 -0.86943786225E+03  0.87013771551E+03  0.41800000000E+01 0.  1.
         -5    1    1    2    0  502  0.75534547053E+02  0.28879342046E+02 -0.61137787661E+03  0.61671700528E+03  0.41800000000E+01 0.  1.
        -11    1    3    3    0    0 -0.49875765212E+02 -0.50687810990E+02 -0.38111263746E+03  0.38769019663E+03  0.00000000000E+00 0.  1.
         11    1    3    3    0    0  0.86296315148E+01  0.26735937105E+02 -0.10867807812E+03  0.11225063713E+03  0.00000000000E+00 0. -1.
</event>
<event>
 7    1  0.5831876E-006  0.1732582E+03  0.7561462E-02  0.1174492E+00
          2   -1    0    0  501    0  0.00000000000E+00  0.00000000000E+00  0.56530963512E+03  0.56530963512E+03  0.00000000000E+00 0. -1.
         -2   -1    0    0    0  501 -0.00000000000E+00 -0.00000000000E+00 -0.53623360070E+02  0.53623360070E+02  0.00000000000E+00 0.  1.
         23    2    1    2    0    0  0.13451139285E+03  0.98355163094E+01  0.27015640485E+03  0.31533169989E+03  0.90882042701E+02 0.  0.
          5    1    1    2  502    0 -0.15254610624E+03  0.14588599171E+02  0.20182562763E+03  0.25344466481E+03  0.41800000000E+01 0. -1.
         -5    1    1    2    0  502  0.18034713386E+02 -0.24424115481E+02  0.39704242574E+02  0.50156630492E+02  0.41800000000E+01 0. -1.
        -11    1    3    3    0    0  0.10711186593E+03  0.46523939196E+02  0.19005675148E+03  0.22306724888E+03  0.00000000000E+00 0. -1.
         11    1    3    3    0    0  0.27399526924E+02 -0.36688422887E+02  0.80099653367E+02  0.92264451004E+02  0.00000000000E+00 0.  1.
</event>
<event>
 7    1  0.5831876E-006  0.1338015E+03  0.7561462E-02  0.1221922E+00
          2   -1    0    0  501    0  0.00000000000E+00  0.00000000000E+00  0.15227454843E+03  0.15227454843E+03  0.00000000000E+00 0. -1.
         -2   -1    0    0    0  501 -0.00000000000E+00 -0.00000000000E+00 -0.13786638436E+03  0.13786638436E+03  0.00000000000E+00 0.  1.
         23    2    1    2    0    0 -0.48744564482E+02  0.80654501784E+02 -0.66640621855E+01  0.13211965479E+03  0.92358065332E+02 0.  0.
          5    1    1    2  502    0  0.43299430765E+02  0.11750507498E+02  0.43559172818E+02  0.62672075661E+02  0.41800000000E+01 0. -1.
         -5    1    1    2    0  502  0.54451337168E+01 -0.92405009282E+02 -0.22486946567E+02  0.95349202343E+02  0.41800000000E+01 0. -1.
        -11    1    3    3    0    0 -0.29074208251E+02  0.98881164333E+02 -0.14734649132E+02  0.10411486028E+03  0.00000000000E+00 0. -1.
         11    1    3    3    0    0 -0.19670356231E+02 -0.18226662550E+02  0.80705869462E+01  0.28004794511E+02  0.00000000000E+00 0.  1.
</event>
<event>
 7    1  0.5831876E-006  0.2274351E+03  0.7561462E-02  0.1128458E+00
          2   -1    0    0  501    0  0.00000000000E+00  0.00000000000E+00  0.30482726579E+04  0.30482726579E+04  0.00000000000E+00 0. -1.
         -2   -1    0    0    0  501 -0.00000000000E+00 -0.00000000000E+00 -0.28734617836E+02  0.28734617836E+02  0.00000000000E+00 0.  1.
         23    2    1    2    0    0  0.35348461300E+02 -0.21915161621E+03  0.63828408351E+03  0.68215969550E+03  0.93050170831E+02 0.  0.
          5    1    1    2  502    0  0.12370375943E+02  0.13809531667E+03  0.18595092734E+04  0.18646757232E+04  0.41800000000E+01 0. -1.
         -5    1    1    2    0  502 -0.47718837243E+02  0.81056299548E+02  0.52174468316E+03  0.53017185698E+03  0.41800000000E+01 0. -1.
        -11    1    3    3    0    0  0.10986683069E+02 -0.59314753086E+02  0.75658712513E+02  0.96763567099E+02  0.00000000000E+00 0.  1.
         11    1    3    3    0    0  0.24361778231E+02 -0.15983686313E+03  0.56262537100E+03  0.58539612840E+03  0.00000000000E+00 0. -1.
</event>
<event>
 7    1  0.5831876E-006  0.1076893E+03  0.7561462E-02  0.1264910E+00
         -2   -1    0    0    0  501 -0.00000000000E+00  0.00000000000E+00  0.11499333732E+03  0.11499333732E+03  0.00000000000E+00 0.  1.
          2   -1    0    0  501    0  0.00000000000E+00 -0.00000000000E+00 -0.13546911243E+03  0.13546911243E+03  0.00000000000E+00 0. -1.
         23    2    1    2    0    0 -0.40216494958E+02  0.66250820170E+01  0.37925438820E+02  0.10651864224E+03  0.90810924761E+02 0.  0.
          5    1    1    2  502    0  0.47846032551E+02  0.44776137535E+02 -0.63774002827E+02  0.91535463947E+02  0.41800000000E+01 0.  1.
         -5    1    1    2    0  502 -0.76295375924E+01 -0.51401219552E+02  0.53727889007E+01  0.52408343572E+02  0.41800000000E+01 0.  1.
        -11    1    3    3    0    0  0.26806104454E+02  0.13849859904E+02  0.21748624136E+02  0.37193931053E+02  0.00000000000E+00 0.  1.
         11    1    3    3    0    0 -0.67022599412E+02 -0.72247778871E+01  0.16176814684E+02  0.69324711184E+02  0.00000000000E+00 0. -1.
</event>
<event>
 7    1  0.5831876E-006  0.7987797E+02  0.7561462E-02  0.1329398E+00
          2   -1    0    0  501    0  0.00000000000E+00  0.00000000000E+00  0.50415772887E+02  0.50415772887E+02  0.00000000000E+00 0. -1.
         -2   -1    0    0    0  501 -0.00000000000E+00 -0.00000000000E+00 -0.27017648631E+03  0.27017648631E+03  0.00000000000E+00 0.  1.
         23    2    1    2    0    0 -0.11369737249E+02  0.37791768417E+02 -0.64939074111E+02  0.11767725625E+03  0.89851903742E+02 0.  0.
          5    1    1    2  502    0  0.31926395485E+02 -0.49038614989E+02 -0.16640562708E+03  0.17644371797E+03  0.41800000000E+01 0.  1.
         -5    1    1    2    0  502 -0.20556658236E+02  0.11246846572E+02  0.11583987769E+02  0.26471284976E+02  0.41800000000E+01 0.  1.
        -11    1    3    3    0    0 -0.22515049651E+02 -0.12517044000E+02 -0.60741151270E+02  0.65977960781E+02  0.00000000000E+00 0.  1.
         11    1    3    3    0    0  0.11145312402E+02  0.50308812417E+02 -0.41979228411E+01  0.51699295464E+02  0.00000000000E+00 0. -1.
</event>
<event>
 7    1  0.5831876E-006  0.1019783E+03  0.7561462E-02  0.1276190E+00
          1   -1    0    0  501    0  0.00000000000E+00  0.00000000000E+00  0.25029816460E+02  0.25029816460E+02  0.00000000000E+00 0. -1.
         -1   -1    0    0    0  501 -0.00000000000E+00 -0.00000000000E+00 -0.53408090595E+03  0.53408090595E+03  0.00000000000E+00 0.  1.
         23    2    1    2    0    0 -0.20586939946E+02 -0.12234274453E+02 -0.29954607840E+03  0.31393083493E+03  0.90836206811E+02 0.  0.
          5    1    1    2  502    0 -0.24433149286E+02  0.54166332102E+02 -0.14067214518E+03  0.15276483609E+03  0.41800000000E+01 0.  1.
         -5    1    1    2    0  502  0.45020089232E+02 -0.41932057649E+02 -0.68832865913E+02  0.92415051387E+02  0.41800000000E+01 0.  1.
        -11    1    3    3    0    0 -0.34039129879E+02  0.25584970708E+02 -0.22755822588E+03  0.23150809760E+03  0.00000000000E+00 0.  1.
         11    1    3    3    0    0  0.13452189933E+02 -0.37819245161E+02 -0.71987852520E+02  0.82422737330E+02  0.00000000000E+00 0. -1.
</event>
<event>
 7    1  0.5831876E-006  0.1170107E+03  0.7561462E-02  0.1248111E+00
          2   -1    0    0  501    0  0.00000000000E+00  0.00000000000E+00  0.32902332484E+03  0.32902332484E+03  0.00000000000E+00 0. -1.
         -2   -1    0    0    0  501 -0.00000000000E+00 -0.00000000000E+00 -0.61493617760E+02  0.61493617760E+02  0.00000000000E+00 0.  1.
         23    2    1    2    0    0  0.94297766626E+01 -0.55902072466E+02  0.29512982778E+02  0.11188542058E+03  0.91833375157E+02 0.  0.
          5    1    1    2  502    0  0.16108163414E+02  0.95070486685E+02  0.17747200618E+03  0.20201894898E+03  0.41800000000E+01 0. -1.
         -5    1    1    2    0  502 -0.25537940077E+02 -0.39168414219E+02  0.60544718121E+02  0.76612573043E+02  0.41800000000E+01 0.  1.
        -11    1    3    3    0    0  0.36734204440E+02 -0.11603822326E+02  0.43396031248E+02  0.58028148312E+02  0.00000000000E+00 0. -1.
         11    1    3    3    0    0 -0.27304427777E+02 -0.44298250140E+02 -0.13883048470E+02  0.53857272272E+02  0.00000000000E+00 0.  1.
</event>
<event>
 7    1  0.5831876E-006  0.9322236E+02  0.7561462E-02  0.1295231E+00
          1   -1    0    0  501    0  0.00000000000E+00  0.00000000000E+00  0.11266199303E+03  0.11266199303E+03  0.00000000000E+00 0. -1.
         -1   -1    0    0    0  501 -0.00000000000E+00 -0.00000000000E+00 -0.13994695928E+03  0.13994695928E+03  0.00000000000E+00 0.  1.
         23    2    1    2    0    0  0.31758996639E+01  0.38821801090E+01 -0.62593766753E+02  0.12253167810E+03  0.10521822486E+03 0.  0.
          5    1    1    2  502    0 -0.51933041948E+02 -0.46480800471E-01 -0.20288509361E+02  0.55911886201E+02  0.41800000000E+01 0. -1.
         -5    1    1    2    0  502  0.48757142285E+02 -0.38356993086E+01  0.55597309862E+02  0.74165387997E+02  0.41800000000E+01 0. -1.
        -11    1    3    3    0    0  0.43044868107E+02 -0.77268391391E+01 -0.67800994422E+02  0.80681717620E+02  0.00000000000E+00 0.  1.
         11    1    3    3    0    0 -0.39868968443E+02  0.11609019248E+02  0.52072276689E+01  0.41849960485E+02  0.00000000000E+00 0. -1.
</event>
<event>
 7    1  0.5831876E-006  0.1420834E+03  0.7561462E-02  0.1210553E+00
         -1   -1    0    0    0  501 -0.00000000000E+00  0.00000000000E+00  0.28429550520E+02  0.28429550520E+02  0.00000000000E+00 0.  1.
          1   -1    0    0  501    0  0.00000000000E+00 -0.00000000000E+00 -0.11617314679E+04  0.11617314679E+04  0.00000000000E+00 0. -1.
         23    2    1    2    0    0 -0.10992033722E+03  0.51748449578E+02 -0.30360825641E+03  0.34234014431E+03  0.10128385101E+03 0.  0.
          5    1    1    2  502    0  0.25298824166E+01  0.34105906859E+01  0.28174701250E+01  0.65911282626E+01  0.41800000000E+01 0. -1.
         -5    1    1    2    0  502  0.10739045480E+03 -0.55159040263E+02 -0.83251113112E+03  0.84122974587E+03  0.41800000000E+01 0. -1.
        -11    1    3    3    0    0 -0.82851466933E+02 -0.16062253164E+02 -0.14589767797E+03  0.16854819485E+03  0.00000000000E+00 0. -1.
         11    1    3    3    0    0 -0.27068870285E+02  0.67810702741E+02 -0.15771057844E+03  0.17379194945E+03  0.00000000000E+00 0.  1.
</event>
<event>
 7    1  0.5831876E-006  0.1050931E+03  0.7561462E-02  0.1269936E+00
          2   -1    0    0  501    0  0.00000000000E+00  0.00000000000E+00  0.10019645798E+03  0.10019645798E+03  0.00000000000E+00 0. -1.
         -2   -1    0    0    0  501 -0.00000000000E+00 -0.00000000000E+00 -0.12928787923E+03  0.12928787923E+03  0.00000000000E+00 0.  1.
         23    2    1    2    0    0 -0.17269884547E+01 -0.14044099465E+02 -0.42820253175E+02  0.10283371279E+03  0.92417418188E+02 0.  0.
          5    1    1    2  502    0 -0.44805445537E+01  0.66587463506E+02  0.26720745429E+02  0.72009973004E+02  0.41800000000E+01 0.  1.
         -5    1    1    2    0  502  0.62075330084E+01 -0.52543364042E+02 -0.12991913501E+02  0.54640651417E+02  0.41800000000E+01 0.  1.
        -11    1    3    3    0    0 -0.45308371273E+02 -0.10563740321E+02 -0.35463997005E+02  0.58499027347E+02  0.00000000000E+00 0.  1.
         11    1    3    3    0    0  0.43581382818E+02 -0.34803591435E+01 -0.73562561699E+01  0.44334685439E+02  0.00000000000E+00 0. -1.
</event>
<event>
 7    1  0.5831876E-006  0.1111125E+03  0.7561462E-02  0.1258523E+00
         -1   -1    0    0    0  501 -0.00000000000E+00  0.00000000000E+00  0.25692465515E+03  0.25692465515E+03  0.00000000000E+00 0.  1.
          1   -1    0    0  501    0  0.00000000000E+00 -0.00000000000E+00 -0.61756018426E+02  0.61756018426E+02  0.00000000000E+00 0. -1.
         23    2    1    2    0    0  0.56528536307E+02  0.16487331350E+02  0.97251777967E+02  0.14926067737E+03  0.96713670066E+02 0.  0.
          5    1    1    2  502    0 -0.81915073574E+02 -0.12970012684E+01  0.17838166720E+02  0.83948996914E+02  0.41800000000E+01 0. -1.
         -5    1    1    2    0  502  0.25386537267E+02 -0.15190330082E+02  0.80078692041E+02  0.85470999301E+02  0.41800000000E+01 0. -1.
        -11    1    3    3    0    0  0.29049959245E+02 -0.38862263831E+02  0.26365099271E+02  0.55220414176E+02  0.00000000000E+00 0. -1.
         11    1    3    3    0    0  0.27478577061E+02  0.55349595181E+02  0.70886678696E+02  0.94040263189E+02  0.00000000000E+00 0.  1.
</event>
<event>
 7    1  0.5831876E-006  0.1520076E+03  0.7561462E-02  0.1198028E+00
          2   -1    0    0  501    0  0.00000000000E+00  0.00000000000E+00  0.58731153313E+03  0.58731153313E+03  0.00000000000E+00 0. -1.
         -2   -1    0    0    0  501 -0.00000000000E+00 -0.00000000000E+00 -0.47383613975E+02  0.47383613975E+02  0.00000000000E+00 0.  1.
         23    2    1    2    0    0 -0.12638349507E+03 -0.56455849714E+01  0.22930785301E+03  0.27673230235E+03  0.89409257102E+02 0.  0.
          5    1    1    2  502    0  0.82411975662E+01  0.41055713506E+02  0.30833296645E+02  0.52169469336E+02  0.41800000000E+01 0.  1.
         -5    1    1    2    0  502  0.11814229751E+03 -0.35410128535E+02  0.27978676949E+03  0.30579337541E+03  0.41800000000E+01 0.  1.
        -11    1    3    3    0    0 -0.39419450543E+02 -0.28460411221E+02  0.27630896145E+02  0.55922754848E+02  0.00000000000E+00 0.  1.
         11    1    3    3    0    0 -0.86964044530E+02  0.22814826250E+02  0.20167695687E+03  0.22080954750E+03  0.00000000000E+00 0. -1.
</event>
<event>
 7    1  0.5831876E-006  0.1184560E+03  0.7561462E-02  0.1245666E+00
          2   -1    0    0  501    0  0.00000000000E+00  0.00000000000E+00  0.81620046476E+02  0.81620046476E+02  0.00000000000E+00 0. -1.
         -2   -1    0    0    0  501 -0.00000000000E+00 -0.00000000000E+00 -0.20763449552E+03  0.20763449552E+03  0.00000000000E+00 0.  1.
         23    2    1    2    0    0 -0.51658133654E+02 -0.44148496128E+01 -0.11166030889E+03  0.15308494664E+03  0.90988585203E+02 0.  0.
          5    1    1    2  502    0  0.92575844088E+02  0.10675685744E+01 -0.62286870056E+00  0.92678406205E+02  0.41800000000E+01 0. -1.
         -5    1    1    2    0  502 -0.40917710435E+02  0.33472810384E+01 -0.13731271446E+02  0.43491189143E+02  0.41800000000E+01 0. -1.
        -11    1    3    3    0    0 -0.49268163906E+02 -0.42344236523E+02 -0.83443235643E+02  0.10575046059E+03  0.00000000000E+00 0.  1.
         11    1    3    3    0    0 -0.23899697481E+01  0.37929386910E+02 -0.28217073251E+02  0.47334486050E+02  0.00000000000E+00 0. -1.
</event>
<event>
 7    1  0.5831876E-006  0.1634056E+03  0.7561462E-02  0.1184905E+00
          1   -1    0    0  501    0  0.00000000000E+00  0.00000000000E+00  0.15495861650E+04  0.15495861650E+04  0.00000000000E+00 0. -1.
         -1   -1    0    0    0  501 -0.00000000000E+00 -0.00000000000E+00 -0.22634769948E+02  0.22634769948E+02  0.00000000000E+00 0.  1.
         23    2    1    2    0    0  0.13369223453E+03  0.47225057938E+02  0.49156407405E+03  0.51971084394E+03  0.91434691107E+02 0.  0.
          5    1    1    2  502    0 -0.15522206660E+03 -0.38717104074E+02  0.79318130729E+03  0.80916436077E+03  0.41800000000E+01 0.  1.
         -5    1    1    2    0  502  0.21529832069E+02 -0.85079538636E+01  0.24220601374E+03  0.24334573026E+03  0.41800000000E+01 0.  1.
        -11    1    3    3    0    0  0.68564472964E+02  0.13381221094E+02  0.10417161956E+03  0.12542675294E+03  0.00000000000E+00 0.  1.
         11    1    3    3    0    0  0.65127761568E+02  0.33843836844E+02  0.38739245449E+03  0.39428409100E+03  0.00000000000E+00 0. -1.
</event>
<event>
 7    1  0.5831876E-006  0.7901154E+02  0.7561462E-02  0.1331880E+00
          2   -1    0    0  501    0  0.00000000000E+00  0.00000000000E+00  0.34900851054E+03  0.34900851054E+03  0.00000000000E+00 0. -1.
         -2   -1    0    0    0  501 -0.00000000000E+00 -0.00000000000E+00 -0.67763118535E+02  0.67763118535E+02  0.00000000000E+00 0.  1.
         23    2    1    2    0    0 -0.36320955498E+02  0.38447863365E+02  0.42686242298E+00  0.10483595479E+03  0.90514889376E+02 0.  0.
          5    1    1    2  502    0  0.62434321593E+02 -0.42205586295E+02  0.27422493400E+03  0.28442247249E+03  0.41800000000E+01 0. -1.
         -5    1    1    2    0  502 -0.26113366096E+02  0.37577229305E+01  0.65935955734E+01  0.27513201796E+02  0.41800000000E+01 0. -1.
        -11    1    3    3    0    0 -0.20663072911E+02  0.33596271397E+02 -0.43041084169E+02  0.58379850637E+02  0.00000000000E+00 0.  1.
         11    1    3    3    0    0 -0.15657882587E+02  0.48515919676E+01  0.43467946592E+02  0.46456104149E+02  0.00000000000E+00 0. -1.
</event>
<event>
 7    1  0.5831876E-006  0.1216648E+03  0.7561462E-02  0.1240376E+00
         -1   -1    0    0    0  501 -0.00000000000E+00  0.00000000000E+00  0.11567775571E+02  0.11567775571E+02  0.00000000000E+00 0.  1.
          1   -1    0    0  501    0  0.00000000000E+00 -0.00000000000E+00 -0.13866709726E+04  0.13866709726E+04  0.00000000000E+00 0. -1.
         23    2    1    2    0    0  0.55137570445E+02  0.37428976329E+02 -0.54340901902E+03  0.55455338229E+03  0.88289364645E+02 0.  0.
          5    1    1    2  502    0  0.36704332754E+02 -0.34735421587E+01 -0.13040771668E+03  0.13558362183E+03  0.41800000000E+01 0.  1.
         -5    1    1    2    0  502 -0.91841903200E+02 -0.33955434171E+02 -0.70128646134E+03  0.70810174407E+03  0.41800000000E+01 0.  1.
        -11    1    3    3    0    0  0.15644855232E+02  0.60493247578E+02 -0.36872303346E+03  0.37397977205E+03  0.00000000000E+00 0. -1.
         11    1    3    3    0    0  0.39492715214E+02 -0.23064271249E+02 -0.17468598556E+03  0.18057361024E+03  0.00000000000E+00 0.  1.
</event>
<event>
 7    1  0.5831876E-006  0.1234339E+03  0.7561462E-02  0.1237537E+00
         -2   -1    0    0    0  501 -0.00000000000E+00  0.00000000000E+00  0.39554255381E+02  0.39554255381E+02  0.00000000000E+00 0.  1.
          2   -1    0    0  501    0  0.00000000000E+00 -0.00000000000E+00 -0.63227254987E+03  0.63227254987E+03  0.00000000000E+00 0. -1.
         23    2    1    2    0    0 -0.67178809429E+02  0.81541528002E+02 -0.16435387369E+03  0.21323644893E+03  0.85414133092E+02 0.  0.
          5    1    1    2  502    0  0.23017732989E+00  0.13036942324E+02  0.11111737298E+01  0.13737610921E+02  0.41800000000E+01 0.  1.
         -5    1    1    2    0  502  0.66948632099E+02 -0.94578470326E+02 -0.42947559453E+03  0.44485274540E+03  0.41800000000E+01 0.  1.
        -11    1    3    3    0    0 -0.47868358822E+02  0.18546480208E+02 -0.12816529351E+03  0.13806409441E+03  0.00000000000E+00 0. -1.
         11    1    3    3    0    0 -0.19310450607E+02  0.62995047794E+02 -0.36188580176E+02  0.75172354522E+02  0.00000000000E+00 0.  1.
</event>
<event>
 7    1  0.5831876E-006  0.1064853E+03  0.7561462E-02  0.1267221E+00
         -4   -1    0    0    0  501 -0.00000000000E+00  0.00000000000E+00  0.43114818164E+03  0.43114818164E+03  0.00000000000E+00 0.  1.
          4   -1    0    0  501    0  0.00000000000E+00 -0.00000000000E+00 -0.52149423414E+02  0.52149423414E+02  0.00000000000E+00 0. -1.
         23    2    1    2    0    0 -0.92859061286E+02 -0.17041724906E+02  0.24124587706E+03  0.27464263899E+03  0.91190900333E+02 0.  0.
          5    1    1    2  502    0  0.15558567434E+02 -0.26767147580E+01  0.12700412297E+03  0.12804980857E+03  0.41800000000E+01 0.  1.
         -5    1    1    2    0  502  0.77300493853E+02  0.19718439664E+02  0.10748758201E+02  0.80605157499E+02  0.41800000000E+01 0.  1.
        -11    1    3    3    0    0 -0.18242142376E+02  0.25123463062E+02  0.13299388095E+03  0.13656989611E+03  0.00000000000E+00 0.  1.
         11    1    3    3    0    0 -0.74616918911E+02 -0.42165187968E+02  0.10825199611E+03  0.13807274288E+03  0.00000000000E+00 0. -1.
</event>
<event>
 7    1  0.5831876E-006  0.1430734E+03  0.7561462E-02  0.1209252E+00
          2   -1    0    0  501    0  0.00000000000E+00  0.00000000000E+00  0.26811555940E+04  0.26811555940E+04  0.00000000000E+00 0. -1.
         -2   -1    0    0    0  501 -0.00000000000E+00 -0.00000000000E+00 -0.12061077074E+02  0.12061077074E+02  0.00000000000E+00 0.  1.
         23    2    1    2    0    0  0.12141039360E+03  0.41600651138E+02  0.78677704664E+03  0.80238733552E+03  0.91302887314E+02 0.  0.
          5    1    1    2  502    0 -0.36245516760E+02 -0.15475374878E+02  0.13857999419E+04  0.13863665374E+04  0.41800000000E+01 0.  1.
         -5    1    1    2    0  502 -0.85164876839E+02 -0.26125276260E+02  0.49651752840E+03  0.50446279815E+03  0.41800000000E+01 0.  1.
        -11    1    3    3    0    0  0.13164930591E+03  0.53084845782E+02  0.69811727337E+03  0.71240246207E+03  0.00000000000E+00 0.  1.
         11    1    3    3    0    0 -0.10238912307E+02 -0.11484194643E+02  0.88659773275E+02  0.89984873446E+02  0.00000000000E+00 0. -1.
</event>
<event>
 7    1  0.5831876E-006  0.1435828E+03  0.7561462E-02  0.1208588E+00
         -3   -1    0    0    0  501 -0.00000000000E+00  0.00000000000E+00  0.52635238697E+02  0.52635238697E+02  0.00000000000E+00 0.  1.
          3   -1    0    0  501    0  0.00000000000E+00 -0.00000000000E+00 -0.40834643708E+03  0.40834643708E+03  0.00000000000E+00 0. -1.
         23    2    1    2    0    0  0.53944879104E+02  0.82856073012E+02 -0.14181454721E+03  0.19419774198E+03  0.88465916447E+02 0.  0.
          5    1    1    2  502    0  0.18424903324E+02  0.20834217826E+02 -0.68500138009E+02  0.74049193123E+02  0.41800000000E+01 0. -1.
         -5    1    1    2    0  502 -0.72369782429E+02 -0.10369029084E+03 -0.14539651316E+03  0.19273474067E+03  0.41800000000E+01 0. -1.
        -11    1    3    3    0    0  0.63304205706E+02  0.16376138253E+02 -0.65410456294E+02  0.92488529866E+02  0.00000000000E+00 0.  1.
         11    1    3    3    0    0 -0.93593266010E+01  0.66479934759E+02 -0.76404090920E+02  0.10170921212E+03  0.00000000000E+00 0. -1.
</event>
<event>
 7    1  0.5831876E-006  0.1886297E+03  0.7561462E-02  0.1159703E+00
          2   -1    0    0  501    0  0.00000000000E+00  0.00000000000E+00  0.22092363236E+03  0.22092363236E+03  0.00000000000E+00 0. -1.
         -2   -1    0    0    0  501 -0.00000000000E+00 -0.00000000000E+00 -0.18963030818E+03  0.18963030818E+03  0.00000000000E+00 0.  1.
         23    2    1    2    0    0  0.45071840729E+02 -0.14916099094E+03 -0.60925766126E+02  0.19048027222E+03  0.91051156411E+02 0.  0.
          5    1    1    2  502    0 -0.80698909528E+02  0.13888284937E+03  0.85988149955E+02  0.18224213064E+03  0.41800000000E+01 0. -1.
         -5    1    1    2    0  502  0.35627068799E+02  0.10278141567E+02  0.62309403521E+01  0.37831537676E+02  0.41800000000E+01 0. -1.
        -11    1    3    3    0    0  0.52616488633E+01 -0.13775044338E+03 -0.55937093715E+02  0.14876769829E+03  0.00000000000E+00 0.  1.
         11    1    3    3    0    0  0.39810191865E+02 -0.11410547557E+02 -0.49886724108E+01  0.41712573935E+02  0.00000000000E+00 0. -1.
</event>
<event>
 7    1  0.5831876E-006  0.1072041E+03  0.7561462E-02  0.1265837E+00
         -1   -1    0    0    0  501 -0.00000000000E+00  0.00000000000E+00  0.14343683128E+02  0.14343683128E+02  0.00000000000E+00 0.  1.
          1   -1    0    0  501    0  0.00000000000E+00 -0.00000000000E+00 -0.83663489837E+03  0.83663489837E+03  0.00000000000E+00 0. -1.
         23    2    1    2    0    0 -0.16155416040E+01 -0.10103976957E+02 -0.38520167076E+03  0.39622615858E+03  0.92250426906E+02 0.  0.
          5    1    1    2  502    0  0.54091803812E+02  0.37638894290E+02 -0.22252712791E+03  0.23211722181E+03  0.41800000000E+01 0. -1.
         -5    1    1    2    0  502 -0.52476262208E+02 -0.27534917333E+02 -0.21456241656E+03  0.22263520110E+03  0.41800000000E+01 0. -1.
        -11    1    3    3    0    0  0.32535420960E+02 -0.34175988239E+02 -0.25970452087E+03  0.26395641676E+03  0.00000000000E+00 0. -1.
         11    1    3    3    0    0 -0.34150962564E+02  0.24072011282E+02 -0.12549714989E+03  0.13226974183E+03  0.00000000000E+00 0.  1.
</event>
<event>
 7    1  0.5831876E-006  0.1126616E+03  0.7561462E-02  0.1255719E+00
         -4   -1    0    0    0  501 -0.00000000000E+00  0.00000000000E+00  0.20171491397E+02  0.20171491397E+02  0.00000000000E+00 0.  1.
          4   -1    0    0  501    0  0.00000000000E+00 -0.00000000000E+00 -0.80201788670E+03  0.80201788670E+03  0.00000000000E+00 0. -1.
         23    2    1    2    0    0  0.46550322778E+02 -0.92197190269E+01 -0.21324515690E+03  0.23806044701E+03  0.94590399713E+02 0.  0.
          5    1    1    2  502    0 -0.43514833777E+02 -0.46655770964E+02 -0.42791176768E+03  0.43266182526E+03  0.41800000000E+01 0.  1.
         -5    1    1    2    0  502 -0.30354890004E+01  0.55875489991E+02 -0.14068947072E+03  0.15146710583E+03  0.41800000000E+01 0.  1.
        -11    1    3    3    0    0  0.10423474109E+02  0.41619903323E+02 -0.99060343665E+02  0.10795284550E+03  0.00000000000E+00 0.  1.
         11    1    3    3    0    0  0.36126848668E+02 -0.50839622350E+02 -0.11418481324E+03  0.13010760151E+03  0.00000000000E+00 0. -1.
</event>
<event>
 7    1  0.5831876E-006  0.2501184E+03  0.7561462E-02  0.1113230E+00
          2   -1    0    0  501    0  0.00000000000E+00  0.00000000000E+00  0.92840873941E+03  0.92840873941E+03  0.00000000000E+00 0. -1.
         -2   -1    0    0    0  501 -0.00000000000E+00 -0.00000000000E+00 -0.99619794788E+02  0.99619794788E+02  0.00000000000E+00 0.  1.
         23    2    1    2    0    0  0.71517356068E+02  0.22520207518E+03  0.13949324515E+03  0.28870033979E+03  0.89770896561E+02 0.  0.
          5    1    1    2  502    0 -0.67571607035E+02 -0.40286862444E+02  0.15430714268E+03  0.17325449502E+03  0.41800000000E+01 0.  1.
         -5    1    1    2    0  502 -0.39457490330E+01 -0.18491521274E+03  0.53498855679E+03  0.56607369938E+03  0.41800000000E+01 0.  1.
        -11    1    3    3    0    0  0.56997859452E+01  0.11360730529E+02 -0.12806434259E+02  0.18043240186E+02  0.00000000000E+00 0.  1.
         11    1    3    3    0    0  0.65817570123E+02  0.21384134465E+03  0.15229967941E+03  0.27065709961E+03  0.00000000000E+00 0. -1.
</event>
<event>
 7    1  0.5831876E-006  0.8793788E+02  0.7561462E-02  0.1307924E+00
          3   -1    0    0  501    0  0.00000000000E+00  0.00000000000E+00  0.56594533784E+02  0.56594533784E+02  0.00000000000E+00 0. -1.
         -3   -1    0    0    0  501 -0.00000000000E+00 -0.00000000000E+00 -0.20230181457E+03  0.20230181457E+03  0.00000000000E+00 0.  1.
         23    2    1    2    0    0  0.11472332372E+02 -0.25218288368E+02 -0.89426351728E+02  0.11896172899E+03  0.73397848082E+02 0.  0.
          5    1    1    2  502    0 -0.49046636250E+02 -0.50526173082E+01 -0.73438258664E+02  0.88553665677E+02  0.41800000000E+01 0.  1.
         -5    1    1    2    0  502  0.37574303879E+02  0.30270905676E+02  0.17157329606E+02  0.51380953685E+02  0.41800000000E+01 0.  1.
        -11    1    3    3    0    0 -0.16661957215E+02 -0.42012155207E+02 -0.58317942533E+02  0.73780921821E+02  0.00000000000E+00 0.  1.
         11    1    3    3    0    0  0.28134289587E+02  0.16793866839E+02 -0.31108409195E+02  0.45180807171E+02  0.00000000000E+00 0. -1.
</event>
<event>
 7    1  0.5831876E-006  0.7314795E+02  0.7561462E-02  0.1349704E+00
         -2   -1    0    0    0  501 -0.00000000000E+00  0.00000000000E+00  0.31264173249E+02  0.31264173249E+02  0.00000000000E+00 0. -1.
          2   -1    0    0  501    0  0.00000000000E+00 -0.00000000000E+00 -0.53778199632E+03  0.53778199632E+03  0.00000000000E+00 0.  1.
         23    2    1    2    0    0  0.36266312340E+02  0.27759774450E+02 -0.10123400736E+03  0.14244480558E+03  0.89198362667E+02 0.  0.
          5    1    1    2  502    0  0.22072434200E+01 -0.52089328080E+02 -0.35424084478E+03  0.35808130157E+03  0.41800000000E+01 0. -1.
         -5    1    1    2    0  502 -0.38473555760E+02  0.24329553629E+02 -0.51042970935E+02  0.68520062424E+02  0.41800000000E+01 0. -1.
        -11    1    3    3    0    0  0.85343595223E+01  0.16048892411E+02 -0.10968250645E+03  0.11117848021E+03  0.00000000000E+00 0.  1.
         11    1    3    3    0    0  0.27731952818E+02  0.11710882039E+02  0.84484990932E+01  0.31266325370E+02  0.00000000000E+00 0. -1.
</event>
<event>
 7    1  0.5831876E-006  0.2699900E+03  0.7561462E-02  0.1101285E+00
         -2   -1    0    0    0  501 -0.00000000000E+00  0.00000000000E+00  0.22211583702E+03  0.22211583702E+03  0.00000000000E+00 0.  1.
          2   -1    0    0  501    0  0.00000000000E+00 -0.00000000000E+00 -0.41386512805E+03  0.41386512805E+03  0.00000000000E+00 0. -1.
         23    2    1    2    0    0 -0.26721434208E+03  0.22221340801E+02  0.27194074532E+01  0.28191435531E+03  0.87011585159E+02 0.  0.
          5    1    1    2  502    0  0.42507754890E+02  0.11055879517E+01 -0.10077445815E+03  0.10945819004E+03  0.41800000000E+01 0.  1.
         -5    1    1    2    0  502  0.22470658719E+03 -0.23326928752E+02 -0.93694240330E+02  0.24460841973E+03  0.41800000000E+01 0.  1.
        -11    1    3    3    0    0 -0.23645706800E+03  0.32914957917E+02 -0.23797608812E+02  0.23992012347E+03  0.00000000000E+00 0. -1.
         11    1    3    3    0    0 -0.30757274078E+02 -0.10693617117E+02  0.26517016265E+02  0.41994231835E+02  0.00000000000E+00 0.  1.
</event>
<event>
 7    1  0.5831876E-006  0.1116442E+03  0.7561462E-02  0.1257555E+00
         -1   -1    0    0    0  501 -0.00000000000E+00  0.00000000000E+00  0.19183617680E+02  0.19183617680E+02  0.00000000000E+00 0.  1.
          1   -1    0    0  501    0  0.00000000000E+00 -0.00000000000E+00 -0.78372162503E+03  0.78372162503E+03  0.00000000000E+00 0. -1.
         23    2    1    2    0    0 -0.39654588746E+02 -0.87205003685E-01 -0.35518017902E+03  0.37302855982E+03  0.10688710331E+03 0.  0.
          5    1    1    2  502    0 -0.37036121798E+02  0.26142203724E+02 -0.20540652491E+03  0.21039106922E+03  0.41800000000E+01 0. -1.
         -5    1    1    2    0  502  0.76690710543E+02 -0.26054998721E+02 -0.20395130342E+03  0.21948561367E+03  0.41800000000E+01 0. -1.
        -11    1    3    3    0    0 -0.57117998832E+02 -0.28094643707E+02 -0.31332421418E+03  0.31972462837E+03  0.00000000000E+00 0. -1.
         11    1    3    3    0    0  0.17463410087E+02  0.28007438703E+02 -0.41855964840E+02  0.53303931443E+02  0.00000000000E+00 0.  1.
</event>
<event>
 7    1  0.5831876E-006  0.1077835E+03  0.7561462E-02  0.1264730E+00
         -1   -1    0    0    0  501 -0.00000000000E+00  0.00000000000E+00  0.24630460497E+02  0.24630460497E+02  0.00000000000E+00 0.  1.
          1   -1    0    0  501    0  0.00000000000E+00 -0.00000000000E+00 -0.72682111277E+03  0.72682111277E+03  0.00000000000E+00 0. -1.
         23    2    1    2    0    0 -0.46264333535E+02 -0.45996348683E+02 -0.19186710868E+03  0.22198603570E+03  0.90602207494E+02 0.  0.
          5    1    1    2  502    0 -0.14736768397E+02  0.51026634451E+02 -0.89218578467E+02  0.10391495037E+03  0.41800000000E+01 0.  1.
         -5    1    1    2    0  502  0.61001101932E+02 -0.50302857675E+01 -0.42110496513E+03  0.42555058720E+03  0.41800000000E+01 0.  1.
        -11    1    3    3    0    0 -0.67075895756E+02 -0.25585206198E+02 -0.85226563133E+02  0.11143314422E+03  0.00000000000E+00 0.  1.
         11    1    3    3    0    0  0.20811562221E+02 -0.20411142486E+02 -0.10664054554E+03  0.11055289148E+03  0.00000000000E+00 0. -1.
</event>
<event>
 7    1  0.5831876E-006  0.1052290E+03  0.7561462E-02  0.1269669E+00
          1   -1    0    0  501    0  0.00000000000E+00  0.00000000000E+00  0.16195864824E+03  0.16195864824E+03  0.00000000000E+00 0. -1.
         -1   -1    0    0    0  501 -0.00000000000E+00 -0.00000000000E+00 -0.11795924352E+03  0.11795924352E+03  0.00000000000E+00 0.  1.
         23    2    1    2    0    0  0.21665753648E+02 -0.55700444581E+02 -0.44421591338E+02  0.11560668887E+03  0.88428979003E+02 0.  0.
          5    1    1    2  502    0  0.24153790225E+02  0.54307124764E+02  0.10039842433E+03  0.11674752841E+03  0.41800000000E+01 0.  1.
         -5    1    1    2    0  502 -0.45819543873E+02  0.13933198172E+01 -0.11977428279E+02  0.47563674469E+02  0.41800000000E+01 0.  1.
        -11    1    3    3    0    0  0.43861361327E+02  0.10851985133E+01 -0.29399348704E+02  0.52813997932E+02  0.00000000000E+00 0.  1.
         11    1    3    3    0    0 -0.22195607679E+02 -0.56785643095E+02 -0.15022242634E+02  0.62792690942E+02  0.00000000000E+00 0. -1.
</event>
<event>
 7    1  0.5831876E-006  0.1884549E+03  0.7561462E-02  0.1159862E+00
         -2   -1    0    0    0  501 -0.00000000000E+00  0.00000000000E+00  0.26608267244E+02  0.26608267244E+02  0.00000000000E+00 0.  1.
          2   -1    0    0  501    0  0.00000000000E+00 -0.00000000000E+00 -0.17683688380E+04  0.17683688380E+04  0.00000000000E+00 0. -1.
         23    2    1    2    0    0  0.11421147892E+03  0.11413612213E+03 -0.43392520758E+03  0.47128839342E+03  0.88036059175E+02 0.  0.
          5    1    1    2  502    0 -0.13462912885E+03 -0.96318492023E+02 -0.91244059263E+03  0.92734435983E+03  0.41800000000E+01 0. -1.
         -5    1    1    2    0  502  0.20417649928E+02 -0.17817630103E+02 -0.39539477059E+03  0.39634435202E+03  0.41800000000E+01 0. -1.
        -11    1    3    3    0    0  0.83545186390E+02  0.12586493561E+03 -0.35780066741E+03  0.38838524403E+03  0.00000000000E+00 0.  1.
         11    1    3    3    0    0  0.30666292531E+02 -0.11728813482E+02 -0.76124540166E+02  0.82903149390E+02  0.00000000000E+00 0. -1.
</event>
<event>
 7    1  0.5831876E-006  0.1099904E+03  0.7561462E-02  0.1260588E+00
         -1   -1    0    0    0  501 -0.00000000000E+00  0.00000000000E+00  0.78506750434E+02  0.78506750434E+02  0.00000000000E+00 0.  1.
          1   -1    0    0  501    0  0.00000000000E+00 -0.00000000000E+00 -0.30316627610E+03  0.30316627610E+03  0.00000000000E+00 0. -1.
         23    2    1    2    0    0 -0.38155575925E+02  0.36248857054E+02  0.19981050247E+02  0.10191316819E+03  0.84954245738E+02 0.  0.
          5    1    1    2  502    0  0.22467773133E+02 -0.75748734009E+02 -0.21115246846E+03  0.22548948727E+03  0.41800000000E+01 0. -1.
         -5    1    1    2    0  502  0.15687802792E+02  0.39499876955E+02 -0.33488107455E+02  0.54270371077E+02  0.41800000000E+01 0. -1.
        -11    1    3    3    0    0  0.15783973747E+02 -0.16411988513E+02 -0.33194466874E+01  0.23010995643E+02  0.00000000000E+00 0. -1.
         11    1    3    3    0    0 -0.53939549672E+02  0.52660845567E+02  0.23300496934E+02  0.78902172543E+02  0.00000000000E+00 0.  1.
</event>
<event>
 7    1  0.5831876E-006  0.8558409E+02  0.7561462E-02  0.1313912E+00
         -3   -1    0    0    0  501 -0.00000000000E+00  0.00000000000E+00  0.27153483403E+02  0.27153483403E+02  0.00000000000E+00 0.  1.
          3   -1    0    0  501    0  0.00000000000E+00 -0.00000000000E+00 -0.62557549177E+03  0.62557549177E+03  0.00000000000E+00 0. -1.
         23    2    1    2    0    0 -0.23920447754E+02 -0.66427327407E+02 -0.26236757462E+03  0.28726353093E+03  0.93267434535E+02 0.  0.
          5    1    1    2  502    0  0.23887204540E+02 -0.81486349668E+01 -0.49709872558E+01  0.26061118680E+02  0.41800000000E+01 0. -1.
         -5    1    1    2    0  502  0.33243214598E-01  0.74575962374E+02 -0.33108344649E+03  0.33940432556E+03  0.41800000000E+01 0. -1.
        -11    1    3    3    0    0 -0.64172557126E+01 -0.27042666614E+02 -0.75140999053E+01  0.28791468977E+02  0.00000000000E+00 0.  1.
         11    1    3    3    0    0 -0.17503192042E+02 -0.39384660793E+02 -0.25485347471E+03  0.25847206196E+03  0.00000000000E+00 0. -1.
</event>
<event>
 7    1  0.5831876E-006  0.1107153E+03  0.7561462E-02  0.1259251E+00
          2   -1    0    0  501    0  0.00000000000E+00  0.00000000000E+00  0.92945388427E+03  0.92945388427E+03  0.00000000000E+00 0. -1.
         -2   -1    0    0    0  501 -0.00000000000E+00 -0.00000000000E+00 -0.20160506831E+02  0.20160506831E+02  0.00000000000E+00 0.  1.
         23    2    1    2    0    0 -0.70805667682E+02  0.36344641132E+01  0.24978747209E+03  0.27461968132E+03  0.89417762503E+02 0.  0.
          5    1    1    2  502    0  0.29213764504E+02  0.39546396498E+02  0.92730383439E+02  0.10504169613E+03  0.41800000000E+01 0. -1.
         -5    1    1    2    0  502  0.41591903178E+02 -0.43180860611E+02  0.56677552191E+03  0.56995301365E+03  0.41800000000E+01 0. -1.
        -11    1    3    3    0    0 -0.45581002999E+02 -0.40616309352E+02  0.10947149389E+03  0.12534480602E+03  0.00000000000E+00 0. -1.
         11    1    3    3    0    0 -0.25224664683E+02  0.44250773465E+02  0.14031597819E+03  0.14927487530E+03  0.00000000000E+00 0.  1.
</event>
<event>
 7    1  0.5831876E-006  0.1952301E+03  0.7561462E-02  0.1153827E+00
         -1   -1    0    0    0  501 -0.00000000000E+00  0.00000000000E+00  0.98883210076E+03  0.98883210076E+03  0.00000000000E+00 0.  1.
          1   -1    0    0  501    0  0.00000000000E+00 -0.00000000000E+00 -0.48904282928E+02  0.48904282928E+02  0.00000000000E+00 0. -1.
         23    2    1    2    0    0  0.18173089583E+03 -0.21064759647E+02  0.54655697975E+03  0.58303161666E+03  0.87928899187E+02 0.  0.
          5    1    1    2  502    0 -0.16884335634E+03  0.39018411222E+02  0.22099595866E+03  0.28086865532E+03  0.41800000000E+01 0. -1.
         -5    1    1    2    0  502 -0.12887539490E+02 -0.17953651575E+02  0.17237487942E+03  0.17383611171E+03  0.41800000000E+01 0.  1.
        -11    1    3    3    0    0  0.12007470366E+03 -0.45356585274E+02  0.43224224250E+03  0.45089745008E+03  0.00000000000E+00 0.  1.
         11    1    3    3    0    0  0.61656192168E+02  0.24291825627E+02  0.11431473725E+03  0.13213416658E+03  0.00000000000E+00 0. -1.
</event>
<event>
 7    1  0.5831876E-006  0.1512021E+03  0.7561462E-02  0.1199004E+00
          2   -1    0    0  501    0  0.00000000000E+00  0.00000000000E+00  0.32633331392E+03  0.32633331392E+03  0.00000000000E+00 0. -1.
         -2   -1    0    0    0  501 -0.00000000000E+00 -0.00000000000E+00 -0.12144482018E+03  0.12144482018E+03  0.00000000000E+00 0.  1.
         23    2    1    2    0    0  0.36999709728E+02  0.38405507071E+02  0.24741937439E+02  0.11749495364E+03  0.10172973591E+03 0.  0.
          5    1    1    2  502    0  0.72554901601E+02 -0.26272742241E+02  0.20337328045E+03  0.21756064518E+03  0.41800000000E+01 0. -1.
         -5    1    1    2    0  502 -0.10955461133E+03 -0.12132764831E+02 -0.23226724152E+02  0.11272253528E+03  0.41800000000E+01 0.  1.
        -11    1    3    3    0    0 -0.35536052007E+02  0.15358953963E+02  0.69122646352E+01  0.39325409871E+02  0.00000000000E+00 0.  1.
         11    1    3    3    0    0  0.72535761735E+02  0.23046553108E+02  0.17829672804E+02  0.78169543768E+02  0.00000000000E+00 0. -1.
</event>
<event>
 7    1  0.5831876E-006  0.1560040E+03  0.7561462E-02  0.1193284E+00
          1   -1    0    0  501    0  0.00000000000E+00  0.00000000000E+00  0.11315607628E+03  0.11315607628E+03  0.00000000000E+00 0. -1.
         -1   -1    0    0    0  501 -0.00000000000E+00 -0.00000000000E+00 -0.25395464547E+03  0.25395464547E+03  0.00000000000E+00 0.  1.
         23    2    1    2    0    0  0.12118820373E+03  0.52981740367E+02 -0.61033786105E+02  0.16835269475E+03  0.84402969432E+02 0.  0.
          5    1    1    2  502    0 -0.10702099554E+03  0.15683577850E+02 -0.67197098193E+02  0.12740639900E+03  0.41800000000E+01 0.  1.
         -5    1    1    2    0  502 -0.14167208194E+02 -0.68665318217E+02 -0.12567684897E+02  0.71351627995E+02  0.41800000000E+01 0.  1.
        -11    1    3    3    0    0  0.28349836155E+02  0.21197907899E+02  0.20381851113E+02  0.40847085136E+02  0.00000000000E+00 0. -1.
         11    1    3    3    0    0  0.92838367577E+02  0.31783832468E+02 -0.81415637218E+02  0.12750560962E+03  0.00000000000E+00 0.  1.
</event>
<event>
 7    1  0.5831876E-006  0.8384492E+02  0.7561462E-02  0.1318481E+00
         -2   -1    0    0    0  501 -0.00000000000E+00  0.00000000000E+00  0.64557295641E+02  0.64557295641E+02  0.00000000000E+00 0.  1.
          2   -1    0    0  501    0  0.00000000000E+00 -0.00000000000E+00 -0.22361934802E+03  0.22361934802E+03  0.00000000000E+00 0. -1.
         23    2    1    2    0    0  0.25055365568E+02  0.17680611591E+02 -0.19725426516E+02  0.98431355937E+02  0.91429010770E+02 0.  0.
          5    1    1    2  502    0 -0.28297073158E+02 -0.40010189437E+02 -0.66516523002E+00  0.49187950281E+02  0.41800000000E+01 0. -1.
         -5    1    1    2    0  502  0.32417075909E+01  0.22329577845E+02 -0.13867146063E+03  0.14055733744E+03  0.41800000000E+01 0. -1.
        -11    1    3    3    0    0 -0.93199780112E+01  0.48501988599E+02 -0.16803291986E+02  0.52169488302E+02  0.00000000000E+00 0. -1.
         11    1    3    3    0    0  0.34375343579E+02 -0.30821377007E+02 -0.29221345295E+01  0.46261867634E+02  0.00000000000E+00 0.  1.
</event>
<event>
 7    1  0.5831876E-006  0.1483972E+03  0.7561462E-02  0.1202456E+00
         -1   -1    0    0    0  501 -0.00000000000E+00  0.00000000000E+00  0.38076400403E+02  0.38076400403E+02  0.00000000000E+00 0.  1.
          1   -1    0    0  501    0  0.00000000000E+00 -0.00000000000E+00 -0.12117177470E+04  0.12117177470E+04  0.00000000000E+00 0. -1.
         23    2    1    2    0    0 -0.28859670022E+02  0.22819680089E+02 -0.10826236587E+03  0.14660809260E+03  0.91758239948E+02 0.  0.
          5    1    1    2  502    0  0.12196531821E+03 -0.13851847428E+02 -0.93295698631E+03  0.94100670732E+03  0.41800000000E+01 0. -1.
         -5    1    1    2    0  502 -0.93105648186E+02 -0.89678326609E+01 -0.13242199446E+03  0.16217934753E+03  0.41800000000E+01 0.  1.
        -11    1    3    3    0    0 -0.52921465258E+02  0.17049068859E+02 -0.27283924015E+02  0.61933551034E+02  0.00000000000E+00 0.  1.
         11    1    3    3    0    0  0.24061795236E+02  0.57706112299E+01 -0.80978441852E+02  0.84674541562E+02  0.00000000000E+00 0. -1.
</event>
<event>
 7    1  0.5831876E-006  0.1454935E+03  0.7561462E-02  0.1206122E+00
          1   -1    0    0  501    0  0.00000000000E+00  0.00000000000E+00  0.45094226933E+03  0.45094226933E+03  0.00000000000E+00 0. -1.
         -1   -1    0    0    0  501 -0.00000000000E+00 -0.00000000000E+00 -0.10073668314E+03  0.10073668314E+03  0.00000000000E+00 0.  1.
         23    2    1    2    0    0  0.10107835490E+03  0.32169654767E+02 -0.26570591156E+02  0.14075344520E+03  0.88621755245E+02 0.  0.
          5    1    1    2  502    0 -0.39583206414E+02  0.47826162608E+02  0.16378160375E+03  0.17520290576E+03  0.41800000000E+01 0. -1.
         -5    1    1    2    0  502 -0.61495148487E+02 -0.79995817374E+02  0.21299457359E+03  0.23572260151E+03  0.41800000000E+01 0. -1.
        -11    1    3    3    0    0  0.24708192537E+01  0.29014058481E+02  0.16088062724E+02  0.33267796734E+02  0.00000000000E+00 0. -1.
         11    1    3    3    0    0  0.98607535648E+02  0.31555962856E+01 -0.42658653880E+02  0.10748564846E+03  0.00000000000E+00 0.  1.
</event>
<event>
 7    1  0.5831876E-006  0.1179986E+03  0.7561462E-02  0.1246436E+00
          1   -1    0    0  501    0  0.00000000000E+00  0.00000000000E+00  0.19230320959E+03  0.19230320959E+03  0.00000000000E+00 0. -1.
         -1   -1    0    0    0  501 -0.00000000000E+00 -0.00000000000E+00 -0.10695663039E+03  0.10695663039E+03  0.00000000000E+00 0.  1.
         23    2    1    2    0    0 -0.52777848937E+02 -0.74367770194E+02  0.17692069653E+02  0.13032088123E+03  0.91402714254E+02 0.  0.
          5    1    1    2  502    0  0.39404071958E+02  0.99936546076E+02  0.14723829443E+02  0.10850925160E+03  0.41800000000E+01 0. -1.
         -5    1    1    2    0  502  0.13373776979E+02 -0.25568775882E+02  0.52930680102E+02  0.60429707155E+02  0.41800000000E+01 0. -1.
        -11    1    3    3    0    0 -0.24126875557E+01 -0.35845951180E+02 -0.33274434736E+02  0.48968778668E+02  0.00000000000E+00 0.  1.
         11    1    3    3    0    0 -0.50365161381E+02 -0.38521819015E+02  0.50966504389E+02  0.81352102559E+02  0.00000000000E+00 0. -1.
</event>
<event>
 7    1  0.5831876E-006  0.1154372E+03  0.7561462E-02  0.1250820E+00
         -1   -1    0    0    0  501 -0.00000000000E+00  0.00000000000E+00  0.26080988748E+02  0.26080988748E+02  0.00000000000E+00 0.  1.
          1   -1    0    0  501    0  0.00000000000E+00 -0.00000000000E+00 -0.72767869240E+03  0.72767869240E+03  0.00000000000E+00 0. -1.
         23    2    1    2    0    0 -0.42955544850E+02 -0.29481380939E+02 -0.12366508298E+03  0.16015388471E+03  0.87417866497E+02 0.  0.
          5    1    1    2  502    0  0.26536969629E+02 -0.45302368452E+02 -0.32714812189E+03  0.33136065156E+03  0.41800000000E+01 0.  1.
         -5    1    1    2    0  502  0.16418575221E+02  0.74783749391E+02 -0.25078449878E+03  0.26224514488E+03  0.41800000000E+01 0.  1.
        -11    1    3    3    0    0  0.27864793503E+00  0.28888060152E+02 -0.40262931564E+02  0.49555033267E+02  0.00000000000E+00 0. -1.
         11    1    3    3    0    0 -0.43234192785E+02 -0.58369441090E+02 -0.83402151415E+02  0.11059885144E+03  0.00000000000E+00 0.  1.
</event>
<event>
 7    1  0.5831876E-006  0.1241101E+03  0.7561462E-02  0.1236467E+00
          1   -1    0    0  501    0  0.00000000000E+00  0.00000000000E+00  0.24232611312E+03  0.24232611312E+03  0.00000000000E+00 0.  1.
         -1   -1    0    0    0  501 -0.00000000000E+00 -0.00000000000E+00 -0.75241713782E+02  0.75241713782E+02  0.00000000000E+00 0. -1.
         23    2    1    2    0    0 -0.40772293646E+02  0.64266873697E+02  0.50556452708E+02  0.13041759288E+03  0.93060102286E+02 0.  0.
          5    1    1    2  502    0  0.85250542777E+02 -0.37495498939E+02  0.85683434136E+02  0.12662026208E+03  0.41800000000E+01 0.  1.
         -5    1    1    2    0  502 -0.44478249131E+02 -0.26771374758E+02  0.30844512490E+02  0.60529971939E+02  0.41800000000E+01 0.  1.
        -11    1    3    3    0    0  0.46852457311E+01 -0.12693148831E+02  0.37776025242E+02  0.40125997033E+02  0.00000000000E+00 0.  1.
         11    1    3    3    0    0 -0.45457539377E+02  0.76960022528E+02  0.12780427466E+02  0.90291595843E+02  0.00000000000E+00 0. -1.
</event>
<event>
 7    1  0.5831876E-006  0.1202604E+03  0.7561462E-02  0.1242668E+00
         -2   -1    0    0    0  501 -0.00000000000E+00  0.00000000000E+00  0.25712784682E+03  0.25712784682E+03  0.00000000000E+00 0.  1.
          2   -1    0    0  501    0  0.00000000000E+00 -0.00000000000E+00 -0.10037653362E+03  0.10037653362E+03  0.00000000000E+00 0. -1.
         23    2    1    2    0    0  0.57569791954E+02  0.98638799508E+02  0.11097732970E+03  0.18204244706E+03  0.88201990400E+02 0.  0.
          5    1    1    2  502    0 -0.14562634141E+01 -0.24463933276E+02 -0.41157722436E+02  0.48083627677E+02  0.41800000000E+01 0.  1.
         -5    1    1    2    0  502 -0.56113528540E+02 -0.74174866232E+02  0.86931705942E+02  0.12737830570E+03  0.41800000000E+01 0.  1.
        -11    1    3    3    0    0  0.46768051145E+02  0.10117505310E+03  0.53741042465E+02  0.12374062236E+03  0.00000000000E+00 0. -1.
         11    1    3    3    0    0  0.10801740809E+02 -0.25362535917E+01  0.57236287231E+02  0.58301824695E+02  0.00000000000E+00 0.  1.
</event>
<event>
 7    1  0.5831876E-006  0.1561738E+03  0.7561462E-02  0.1193086E+00
          1   -1    0    0  501    0  0.00000000000E+00  0.00000000000E+00  0.35858904224E+03  0.35858904224E+03  0.00000000000E+00 0. -1.
         -1   -1    0    0    0  501 -0.00000000000E+00 -0.00000000000E+00 -0.10914916285E+03  0.10914916285E+03  0.00000000000E+00 0.  1.
         23    2    1    2    0    0 -0.10011753919E+03 -0.54754976265E+02 -0.19689894311E+02  0.14977538559E+03  0.94991289663E+02 0.  0.
          5    1    1    2  502    0  0.18285316091E+02  0.77382847929E+02  0.93261166097E+02  0.12262779228E+03  0.41800000000E+01 0.  1.
         -5    1    1    2    0  502  0.81832223102E+02 -0.22627871664E+02  0.17586860761E+03  0.19533502721E+03  0.41800000000E+01 0.  1.
        -11    1    3    3    0    0 -0.10801631233E+03 -0.71270835590E+02 -0.22186319940E+02  0.13129847115E+03  0.00000000000E+00 0.  1.
         11    1    3    3    0    0  0.78987731361E+01  0.16515859325E+02  0.24964256288E+01  0.18476914440E+02  0.00000000000E+00 0. -1.
</event>
<event>
 7    1  0.5831876E-006  0.1033988E+03  0.7561462E-02  0.1273307E+00
          1   -1    0    0  501    0  0.00000000000E+00  0.00000000000E+00  0.29784641730E+03  0.29784641730E+03  0.00000000000E+00 0. -1.
         -1   -1    0    0    0  501 -0.00000000000E+00 -0.00000000000E+00 -0.52269280998E+02  0.52269280998E+02  0.00000000000E+00 0.  1.
         23    2    1    2    0    0  0.21289038962E+02  0.55783833789E+01  0.27709199463E+02  0.97927832753E+02  0.91311111875E+02 0.  0.
          5    1    1    2  502    0  0.12859261791E+02  0.47689570587E+02  0.15564087170E+03  0.16334383705E+03  0.41800000000E+01 0.  1.
         -5    1    1    2    0  502 -0.34148300753E+02 -0.53267953966E+02  0.62227065132E+02  0.88844028493E+02  0.41800000000E+01 0.  1.
        -11    1    3    3    0    0 -0.27903635374E+02 -0.23665441248E+02  0.13118002355E+02  0.38868341389E+02  0.00000000000E+00 0. -1.
         11    1    3    3    0    0  0.49192674336E+02  0.29243824627E+02  0.14591197108E+02  0.59059491364E+02  0.00000000000E+00 0.  1.
</event>
<event>
 6    1  0.5831876E-006  0.1438192E+03  0.7561462E-02  0.1208280E+00
         -1   -1    0    0    0  501 -0.00000000000E+00  0.00000000000E+00  0.29046005847E+03  0.29046005847E+03  0.00000000000E+00 0.  1.
          1   -1    0    0  501    0  0.00000000000E+00 -0.00000000000E+00 -0.11120807159E+03  0.11120807159E+03  0.00000000000E+00 0. -1.
          5    1    1    2  502    0  0.62052421069E+02 -0.85613125936E+02 -0.30895341866E+02  0.11023658577E+03  0.41800000000E+01 0. -1.
         -5    1    1    2    0  502 -0.15127274628E+01 -0.10001955667E+02  0.59941159974E+02  0.60932278150E+02  0.41800000000E+01 0. -1.
        -11    1    1    2    0    0 -0.12891279083E+02 -0.32083132479E+02  0.52241428384E+02  0.62647260959E+02  0.00000000000E+00 0. -1.
         11    1    1    2    0    0 -0.47648414524E+02  0.12769821408E+03  0.97964740389E+02  0.16785200519E+03  0.00000000000E+00 0.  1.
</event>
<event>
 7    1  0.5831876E-006  0.7387359E+02  0.7561462E-02  0.1347395E+00
         -4   -1    0    0    0  501 -0.00000000000E+00  0.00000000000E+00  0.24005497871E+02  0.24005497871E+02  0.00000000000E+00 0. -1.
          4   -1    0    0  501    0  0.00000000000E+00 -0.00000000000E+00 -0.68220647887E+03  0.68220647887E+03  0.00000000000E+00 0.  1.
         23    2    1    2    0    0  0.38475067664E+02 -0.34528095446E+02 -0.15896457669E+03  0.18895251052E+03  0.88095370940E+02 0.  0.
          5    1    1    2  502    0 -0.45890985155E+02 -0.89661193487E+01 -0.61925533700E+02  0.77708544824E+02  0.41800000000E+01 0.  1.
         -5    1    1    2    0  502  0.74159174904E+01  0.43494214795E+02 -0.43731087060E+03  0.43955092140E+03  0.41800000000E+01 0.  1.
        -11    1    3    3    0    0  0.24703483420E+02 -0.34837759483E+02 -0.16742539841E+03  0.17278656085E+03  0.00000000000E+00 0.  1.
         11    1    3    3    0    0  0.13771584244E+02  0.30966403722E+00  0.84608217175E+01  0.16165949664E+02  0.00000000000E+00 0. -1.
</event>
<event>
 7    1  0.5831876E-006  0.1135048E+03  0.7561462E-02  0.1254214E+00
         -2   -1    0    0    0  501 -0.00000000000E+00  0.00000000000E+00  0.20612790326E+02  0.20612790326E+02  0.00000000000E+00 0.  1.
          2   -1    0    0  501    0  0.00000000000E+00 -0.00000000000E+00 -0.10043593717E+04  0.10043593717E+04  0.00000000000E+00 0. -1.
         23    2    1    2    0    0  0.59293782632E+02  0.27086518216E+02 -0.20180731936E+03  0.23041203111E+03  0.90078176064E+02 0.  0.
          5    1    1    2  502    0 -0.75495686628E+02 -0.59996109996E+02 -0.66395988554E+03  0.67093914324E+03  0.41800000000E+01 0. -1.
         -5    1    1    2    0  502  0.16201903996E+02  0.32909591780E+02 -0.11797937649E+03  0.12362098771E+03  0.41800000000E+01 0. -1.
        -11    1    3    3    0    0  0.74426687123E+02  0.22749648136E+02 -0.19994839216E+03  0.21456056901E+03  0.00000000000E+00 0. -1.
         11    1    3    3    0    0 -0.15132904491E+02  0.43368700794E+01 -0.18589272071E+01  0.15851462102E+02  0.00000000000E+00 0.  1.
</event>
<event>
 7    1  0.5831876E-006  0.1720029E+03  0.7561462E-02  0.1175775E+00
         -2   -1    0    0    0  501 -0.00000000000E+00  0.00000000000E+00  0.32129016946E+02  0.32129016946E+02  0.00000000000E+00 0. -1.
          2   -1    0    0  501    0  0.00000000000E+00 -0.00000000000E+00 -0.14313114640E+04  0.14313114640E+04  0.00000000000E+00 0.  1.
         23    2    1    2    0    0  0.92598227027E+02 -0.12883432625E+03 -0.35078739198E+03  0.39575532315E+03  0.91639326512E+02 0.  0.
          5    1    1    2  502    0 -0.10460599402E+03  0.81240197650E+02 -0.50622395550E+03  0.52328056454E+03  0.41800000000E+01 0. -1.
         -5    1    1    2    0  502  0.12007766994E+02  0.47594128597E+02 -0.54217109954E+03  0.54440459322E+03  0.41800000000E+01 0. -1.
        -11    1    3    3    0    0  0.61234319181E+02 -0.56210378878E+02 -0.27074616282E+03  0.28321852556E+03  0.00000000000E+00 0.  1.
         11    1    3    3    0    0  0.31363907846E+02 -0.72623947369E+02 -0.80041229160E+02  0.11253679759E+03  0.00000000000E+00 0. -1.
</event>
<event>
 7    1  0.5831876E-006  0.8458950E+02  0.7561462E-02  0.1316510E+00
          1   -1    0    0  501    0  0.00000000000E+00  0.00000000000E+00  0.45960771737E+03  0.45960771737E+03  0.00000000000E+00 0. -1.
         -1   -1    0    0    0  501 -0.00000000000E+00 -0.00000000000E+00 -0.32017870016E+02  0.32017870016E+02  0.00000000000E+00 0.  1.
         23    2    1    2    0    0 -0.42924627414E+02 -0.33272536832E+02  0.16796565358E+03  0.19836482472E+03  0.90479597464E+02 0.  0.
          5    1    1    2  502    0  0.64341355737E+01 -0.97524160126E+01 -0.11124478126E+02  0.16665357249E+02  0.41800000000E+01 0. -1.
         -5    1    1    2    0  502  0.36490491840E+02  0.43024952845E+02  0.27074867191E+03  0.27659540542E+03  0.41800000000E+01 0. -1.
        -11    1    3    3    0    0 -0.33515336443E+01  0.27486512700E+02  0.21943894394E+02  0.35330944784E+02  0.00000000000E+00 0.  1.
         11    1    3    3    0    0 -0.39573093769E+02 -0.60759049533E+02  0.14602175918E+03  0.16303387993E+03  0.00000000000E+00 0. -1.
</event>
<event>
 7    1  0.5831876E-006  0.9589007E+02  0.7561462E-02  0.1289184E+00
         -2   -1    0    0    0  501 -0.00000000000E+00  0.00000000000E+00  0.43566083270E+02  0.43566083270E+02  0.00000000000E+00 0.  1.
          2   -1    0    0  501    0  0.00000000000E+00 -0.00000000000E+00 -0.26740737284E+03  0.26740737284E+03  0.00000000000E+00 0. -1.
         23    2    1    2    0    0  0.92608552800E+01 -0.30125483289E+01 -0.86276382321E+02  0.12477575818E+03  0.89613262388E+02 0.  0.
          5    1    1    2  502    0 -0.54873637467E+01  0.62975567639E+02 -0.86612368525E+02  0.10730893747E+03  0.41800000000E+01 0. -1.
         -5    1    1    2    0  502 -0.37734915333E+01 -0.59963019310E+02 -0.50952538719E+02  0.78888760448E+02  0.41800000000E+01 0. -1.
        -11    1    3    3    0    0  0.33536594868E+02  0.16198188420E+02 -0.47199190460E+01  0.37541472257E+02  0.00000000000E+00 0.  1.
         11    1    3    3    0    0 -0.24275739588E+02 -0.19210736749E+02 -0.81556463275E+02  0.87234285925E+02  0.00000000000E+00 0. -1.
</event>
<event>
 7    1  0.5831876E-006  0.1330936E+03  0.7561462E-02  0.1222936E+00
          1   -1    0    0  501    0  0.00000000000E+00  0.00000000000E+00  0.54848740155E+03  0.54848740155E+03  0.00000000000E+00 0. -1.
         -1   -1    0    0    0  501 -0.00000000000E+00 -0.00000000000E+00 -0.46346632025E+02  0.46346632025E+02  0.00000000000E+00 0.  1.
         23    2    1    2    0    0  0.34678079605E+02 -0.51662480627E+02  0.77325350650E+02  0.13413731444E+03  0.90233187699E+02 0.  0.
          5    1    1    2  502    0 -0.49320600106E+02  0.10385833006E+03  0.34845264590E+03  0.36695475627E+03  0.41800000000E+01 0. -1.
         -5    1    1    2    0  502  0.14642520501E+02 -0.52195849432E+02  0.76362772975E+02  0.93741962861E+02  0.41800000000E+01 0.  1.
        -11    1    3    3    0    0  0.45027252420E+02 -0.98099876459E+00  0.68020970021E+02  0.81579827051E+02  0.00000000000E+00 0. -1.
         11    1    3    3    0    0 -0.10349172815E+02 -0.50681481863E+02  0.93043806298E+01  0.52557487389E+02  0.00000000000E+00 0.  1.
</event>
<event>
 7    1  0.5831876E-006  0.1122729E+03  0.7561462E-02  0.1256418E+00
         -2   -1    0    0    0  501 -0.00000000000E+00  0.00000000000E+00  0.11176261061E+02  0.11176261061E+02  0.00000000000E+00 0.  1.
          2   -1    0    0  501    0  0.00000000000E+00 -0.00000000000E+00 -0.13114578034E+04  0.13114578034E+04  0.00000000000E+00 0. -1.
         23    2    1    2    0    0  0.32256964395E+02 -0.20683401998E+01 -0.33035359426E+03  0.34413927044E+03  0.90849053027E+02 0.  0.
          5    1    1    2  502    0 -0.79398022900E+02  0.11028604344E+02 -0.55339952613E+03  0.55919065092E+03  0.41800000000E+01 0. -1.
         -5    1    1    2    0  502  0.47141058505E+02 -0.89602641443E+01 -0.41652842193E+03  0.41930414308E+03  0.41800000000E+01 0. -1.
        -11    1    3    3    0    0  0.25073536063E+02  0.43375867634E+02 -0.15821288005E+03  0.16595620963E+03  0.00000000000E+00 0.  1.
         11    1    3    3    0    0  0.71834283318E+01 -0.45444207834E+02 -0.17214071421E+03  0.17818306080E+03  0.00000000000E+00 0. -1.
</event>
<event>
 7    1  0.5831876E-006  0.1195604E+03  0.7561462E-02  0.1243824E+00
         -3   -1    0    0    0  501 -0.00000000000E+00  0.00000000000E+00  0.11047013266E+03  0.11047013266E+03  0.00000000000E+00 0.  1.
          3   -1    0    0  501    0  0.00000000000E+00 -0.00000000000E+00 -0.16813019586E+03  0.16813019586E+03  0.00000000000E+00 0. -1.
         23    2    1    2    0    0  0.40950344475E+02 -0.67278765153E+02 -0.42218406909E+01  0.12141678335E+03  0.92308441576E+02 0.  0.
          5    1    1    2  502    0 -0.69581145975E+02  0.79914464502E+02 -0.64036752830E+02  0.12387911698E+03  0.41800000000E+01 0.  1.
         -5    1    1    2    0  502  0.28630801500E+02 -0.12635699349E+02  0.10598530319E+02  0.33304428196E+02  0.41800000000E+01 0.  1.
        -11    1    3    3    0    0  0.53636023470E+02 -0.70337627015E+02 -0.29271471703E+02  0.93172012125E+02  0.00000000000E+00 0. -1.
         11    1    3    3    0    0 -0.12685678995E+02  0.30588618622E+01  0.25049631012E+02  0.28244771221E+02  0.00000000000E+00 0.  1.
</event>
<event>
 7    1  0.5831876E-006  0.1112598E+03  0.7561462E-02  0.1258255E+00
          4   -1    0    0  501    0  0.00000000000E+00  0.00000000000E+00  0.12059008374E+03  0.12059008374E+03  0.00000000000E+00 0. -1.
         -4   -1    0    0    0  501 -0.00000000000E+00 -0.00000000000E+00 -0.20931306097E+03  0.20931306097E+03  0.00000000000E+00 0.  1.
         23    2    1    2    0    0 -0.77846858638E+02 -0.44570389423E+02 -0.11683226716E+03  0.17342658429E+03  0.91544243264E+02 0.  0.
          5    1    1    2  502    0  0.94768818452E+00  0.12715255208E+02  0.64250462959E+02  0.65636653010E+02  0.41800000000E+01 0. -1.
         -5    1    1    2    0  502  0.76899170453E+02  0.31855134215E+02 -0.36141173028E+02  0.90839907420E+02  0.41800000000E+01 0. -1.
        -11    1    3    3    0    0  0.11301648048E+02 -0.34190216648E+02 -0.49568301822E+02  0.61267566530E+02  0.00000000000E+00 0. -1.
         11    1    3    3    0    0 -0.89148506686E+02 -0.10380172775E+02 -0.67263965337E+02  0.11215901776E+03  0.00000000000E+00 0.  1.
</event>
<event>
 7    1  0.5831876E-006  0.1094502E+03  0.7561462E-02  0.1261591E+00
          2   -1    0    0  501    0  0.00000000000E+00  0.00000000000E+00  0.32596226695E+03  0.32596226695E+03  0.00000000000E+00 0. -1.
         -2   -1    0    0    0  501 -0.00000000000E+00 -0.00000000000E+00 -0.44754552719E+02  0.44754552719E+02  0.00000000000E+00 0.  1.
         23    2    1    2    0    0  0.33301362149E+02 -0.22787511781E+02  0.73109244376E+02  0.12458449284E+03  0.92455842588E+02 0.  0.
          5    1    1    2  502    0 -0.79834783915E+02  0.42072521013E+01  0.14292629298E+03  0.16381908105E+03  0.41800000000E+01 0. -1.
         -5    1    1    2    0  502  0.46533421767E+02  0.18580259679E+02  0.65172176875E+02  0.82313245773E+02  0.41800000000E+01 0. -1.
        -11    1    3    3    0    0  0.31599810489E+02  0.25280436885E+02  0.43903083530E+01  0.40705322987E+02  0.00000000000E+00 0.  1.
         11    1    3    3    0    0  0.17015516595E+01 -0.48067948666E+02  0.68718936023E+02  0.83879169852E+02  0.00000000000E+00 0. -1.
</event>
<event>
 7    1  0.5831876E-006  0.1446523E+03  0.7561462E-02  0.1207203E+00
          1   -1    0    0  501    0  0.00000000000E+00  0.00000000000E+00  0.86577167122E+03  0.86577167122E+03  0.00000000000E+00 0. -1.
         -1   -1    0    0    0  501 -0.00000000000E+00 -0.00000000000E+00 -0.39940087661E+02  0.39940087661E+02  0.00000000000E+00 0.  1.
         23    2    1    2    0    0 -0.11174222220E+03 -0.55658173677E+02  0.18640613699E+03  0.24231401129E+03  0.91567874514E+02 0.  0.
          5    1    1    2  502    0  0.48812392459E+02 -0.71678117359E+01  0.46442154659E+03  0.46705339365E+03  0.41800000000E+01 0.  1.
         -5    1    1    2    0  502  0.62929829741E+02  0.62825985413E+02  0.17500389998E+03  0.19634435394E+03  0.41800000000E+01 0.  1.
        -11    1    3    3    0    0 -0.90533428738E+01  0.20839183038E+02  0.51622804078E+02  0.56401670789E+02  0.00000000000E+00 0. -1.
         11    1    3    3    0    0 -0.10268887933E+03 -0.76497356715E+02  0.13478333291E+03  0.18591234050E+03  0.00000000000E+00 0.  1.
</event>
<event>
 7    1  0.5831876E-006  0.1660157E+03  0.7561462E-02  0.1182068E+00
         -1   -1    0    0    0  501 -0.00000000000E+00  0.00000000000E+00  0.34940600197E+02  0.34940600197E+02  0.00000000000E+00 0.  1.
          1   -1    0    0  501    0  0.00000000000E+00 -0.00000000000E+00 -0.10718885376E+04  0.10718885376E+04  0.00000000000E+00 0. -1.
         23    2    1    2    0    0  0.19784571896E+02  0.60242795093E+01 -0.12812210340E+03  0.15992209386E+03  0.93445607144E+02 0.  0.
          5    1    1    2  502    0 -0.12639958263E+03 -0.42826464537E+02 -0.66435773768E+03  0.67764270569E+03  0.41800000000E+01 0. -1.
         -5    1    1    2    0  502  0.10661501073E+03  0.36802185027E+02 -0.24446809629E+03  0.26926433823E+03  0.41800000000E+01 0.  1.
        -11    1    3    3    0    0  0.28821588263E+02  0.40664731634E+02 -0.37165486863E+02  0.62173770697E+02  0.00000000000E+00 0.  1.
         11    1    3    3    0    0 -0.90370163671E+01 -0.34640452125E+02 -0.90956616539E+02  0.97748323159E+02  0.00000000000E+00 0. -1.
</event>
<event>
 7    1  0.5831876E-006  0.1004752E+03  0.7561462E-02  0.1279300E+00
         -2   -1    0    0    0  501 -0.00000000000E+00  0.00000000000E+00  0.24678115216E+02  0.24678115216E+02  0.00000000000E+00 0. -1.
          2   -1    0    0  501    0  0.00000000000E+00 -0.00000000000E+00 -0.54360422604E+03  0.54360422604E+03  0.00000000000E+00 0.  1.
         23    2    1    2    0    0  0.10457983948E+02 -0.10976295745E+02 -0.13156404285E+03  0.16096620243E+03  0.91494111603E+02 0.  0.
          5    1    1    2  502    0  0.30827571469E+02 -0.35778196692E+02 -0.27203569723E+03  0.27613640015E+03  0.41800000000E+01 0. -1.
         -5    1    1    2    0  502 -0.41285555417E+02  0.46754492437E+02 -0.11532637076E+03  0.13117973868E+03  0.41800000000E+01 0. -1.
        -11    1    3    3    0    0 -0.22637629350E+02 -0.40679801498E+02 -0.51821931902E+02  0.69662193036E+02  0.00000000000E+00 0.  1.
         11    1    3    3    0    0  0.33095613298E+02  0.29703505753E+02 -0.79742110943E+02  0.91304009393E+02  0.00000000000E+00 0. -1.
</event>
<event>
 7    1  0.5831876E-006  0.1354309E+03  0.7561462E-02  0.1219613E+00
          2   -1    0    0  501    0  0.00000000000E+00  0.00000000000E+00  0.13286123326E+04  0.13286123326E+04  0.00000000000E+00 0. -1.
         -2   -1    0    0    0  501 -0.00000000000E+00 -0.00000000000E+00 -0.14020158252E+02  0.14020158252E+02  0.00000000000E+00 0.  1.
         23    2    1    2    0    0 -0.83103674268E+01 -0.82005408132E+02  0.63896507088E+03  0.65059983208E+03  0.90608115087E+02 0.  0.
          5    1    1    2  502    0  0.19155861021E+02 -0.30122610088E+02  0.20220168988E+03  0.20537116263E+03  0.41800000000E+01 0. -1.
         -5    1    1    2    0  502 -0.10845493594E+02  0.11212801822E+03  0.47342541357E+03  0.48666149613E+03  0.41800000000E+01 0. -1.
        -11    1    3    3    0    0 -0.43639286034E+02 -0.74090093903E+02  0.46974201782E+03  0.47754716271E+03  0.00000000000E+00 0. -1.
         11    1    3    3    0    0  0.35328918607E+02 -0.79153142293E+01  0.16922305306E+03  0.17305266937E+03  0.00000000000E+00 0.  1.
</event>
<event>
 7    1  0.5831876E-006  0.6156450E+02  0.7561462E-02  0.1391381E+00
          1   -1    0    0  501    0  0.00000000000E+00  0.00000000000E+00  0.30877034999E+03  0.30877034999E+03  0.00000000000E+00 0. -1.
         -1   -1    0    0    0  501 -0.00000000000E+00 -0.00000000000E+00 -0.63774222548E+02  0.63774222548E+02  0.00000000000E+00 0.  1.
         23    2    1    2    0    0 -0.45163896171E+02  0.16943782026E+01  0.13101590369E+02  0.10521554502E+03  0.94106380279E+02 0.  0.
          5    1    1    2  502    0  0.16001915673E+02  0.66408381020E+01  0.23579277912E+03  0.23646536558E+03  0.41800000000E+01 0. -1.
         -5    1    1    2    0  502  0.29161980497E+02 -0.83352163046E+01 -0.38982420390E+01  0.30863661940E+02  0.41800000000E+01 0. -1.
        -11    1    3    3    0    0 -0.45975965117E+02 -0.22009365969E+02 -0.27706291414E+02  0.58015861131E+02  0.00000000000E+00 0.  1.
         11    1    3    3    0    0  0.81206894628E+00  0.23703744172E+02  0.40807881784E+02  0.47199683891E+02  0.00000000000E+00 0. -1.
</event>
<event>
 7    1  0.5831876E-006  0.1157607E+03  0.7561462E-02  0.1250259E+00
          1   -1    0    0  501    0  0.00000000000E+00  0.00000000000E+00  0.28142059706E+03  0.28142059706E+03  0.00000000000E+00 0. -1.
         -1   -1    0    0    0  501 -0.00000000000E+00 -0.00000000000E+00 -0.62466930046E+02  0.62466930046E+02  0.00000000000E+00 0.  1.
         23    2    1    2    0    0  0.30125207556E+01  0.47333240365E+02  0.25028676773E+02  0.10829576848E+03  0.94085216080E+02 0.  0.
          5    1    1    2  502    0 -0.18134958077E+02 -0.85469589403E+02  0.99066577072E+02  0.13215743078E+03  0.41800000000E+01 0.  1.
         -5    1    1    2    0  502  0.15122437322E+02  0.38136349038E+02  0.94858413172E+02  0.10343432785E+03  0.41800000000E+01 0.  1.
        -11    1    3    3    0    0  0.40472105707E+02 -0.24068570473E+01  0.21587970055E+02  0.45932828699E+02  0.00000000000E+00 0. -1.
         11    1    3    3    0    0 -0.37459584951E+02  0.49740097412E+02  0.34407067176E+01  0.62362939780E+02  0.00000000000E+00 0.  1.
</event>
<event>
 7    1  0.5831876E-006  0.8950324E+02  0.7561462E-02  0.1304059E+00
         -2   -1    0    0    0  501 -0.00000000000E+00  0.00000000000E+00  0.20851872028E+03  0.20851872028E+03  0.00000000000E+00 0.  1.
          2   -1    0    0  501    0  0.00000000000E+00 -0.00000000000E+00 -0.63051887865E+02  0.63051887865E+02  0.00000000000E+00 0. -1.
         23    2    1    2    0    0 -0.35733513482E+02  0.35319763136E+01  0.73667002795E+02  0.12294551387E+03  0.91648312795E+02 0.  0.
          5    1    1    2  502    0 -0.17423911123E+02 -0.20258578531E+02  0.86674254130E+02  0.90795932794E+02  0.41800000000E+01 0.  1.
         -5    1    1    2    0  502  0.53157424605E+02  0.16726602217E+02 -0.14874424512E+02  0.57829161476E+02  0.41800000000E+01 0.  1.
        -11    1    3    3    0    0 -0.13855599202E+02 -0.42720613807E+02  0.21211471607E+02  0.49668450761E+02  0.00000000000E+00 0. -1.
         11    1    3    3    0    0 -0.21877914280E+02  0.46252590120E+02  0.52455531188E+02  0.73277063112E+02  0.00000000000E+00 0.  1.
</event>
<event>
 7    1  0.6924264E-006  0.3753518E+03  0.7561462E-02  0.1052665E+00
          2   -1    0    0  501    0  0.00000000000E+00  0.00000000000E+00  0.50907460373E+03  0.50907460373E+03  0.00000000000E+00 0. -1.
         -2   -1    0    0    0  501 -0.00000000000E+00 -0.00000000000E+00 -0.37140325880E+03  0.37140325880E+03  0.00000000000E+00 0.  1.
         23    2    1    2    0    0 -0.29811981124E+02  0.37398221238E+03 -0.12491128681E+03  0.40576911467E+03  0.91073022606E+02 0.  0.
          5    1    1    2  502    0  0.20435591295E+01 -0.28368596745E+02  0.75324404170E+02  0.80623766216E+02  0.41800000000E+01 0.  1.
         -5    1    1    2    0  502  0.27768421994E+02 -0.34561361564E+03  0.18725822757E+03  0.39408498166E+03  0.41800000000E+01 0.  1.
        -11    1    3    3    0    0 -0.17891735675E+02  0.19230616037E+03 -0.16430469437E+02  0.19383429482E+03  0.00000000000E+00 0. -1.
         11    1    3    3    0    0 -0.11920245449E+02  0.18167605202E+03 -0.10848081737E+03  0.21193481985E+03  0.00000000000E+00 0.  1.
</event>
<event>
 7    1  0.5831876E-006  0.2458251E+03  0.7561462E-02  0.1115972E+00
          1   -1    0    0  501    0  0.00000000000E+00  0.00000000000E+00  0.62126207590E+03  0.62126207590E+03  0.00000000000E+00 0. -1.
         -1   -1    0    0    0  501 -0.00000000000E+00 -0.00000000000E+00 -0.10800214693E+03  0.10800214693E+03  0.00000000000E+00 0.  1.
         23    2    1    2    0    0 -0.67043928387E+02 -0.21875616564E+03  0.21883837967E+03  0.33597100515E+03  0.11241499699E+03 0.  0.
          5    1    1    2  502    0  0.76864875690E+02  0.16699442755E+03  0.28565132561E+03  0.33971973769E+03  0.41800000000E+01 0.  1.
         -5    1    1    2    0  502 -0.98209473026E+01  0.51761738083E+02  0.87702236788E+01  0.53573479994E+02  0.41800000000E+01 0.  1.
        -11    1    3    3    0    0 -0.81741524493E+02 -0.76665823919E+02  0.97461694017E+02  0.14851971985E+03  0.00000000000E+00 0.  1.
         11    1    3    3    0    0  0.14697596106E+02 -0.14209034172E+03  0.12137668566E+03  0.18745128530E+03  0.00000000000E+00 0. -1.
</event>
<event>
 7    1  0.5831876E-006  0.1249491E+03  0.7561462E-02  0.1235149E+00
         -2   -1    0    0    0  501 -0.00000000000E+00  0.00000000000E+00  0.59170053163E+02  0.59170053163E+02  0.00000000000E+00 0.  1.
          2   -1    0    0  501    0  0.00000000000E+00 -0.00000000000E+00 -0.45145884855E+03  0.45145884855E+03  0.00000000000E+00 0. -1.
         23    2    1    2    0    0  0.31113790301E+02  0.61501959728E+02 -0.24740921113E+02  0.11630848143E+03  0.90360337974E+02 0.  0.
          5    1    1    2  502    0  0.28852372681E+01 -0.94785256420E+02 -0.25250785768E+03  0.26975963378E+03  0.41800000000E+01 0. -1.
         -5    1    1    2    0  502 -0.33999027569E+02  0.33283296691E+02 -0.11504001659E+03  0.12456078649E+03  0.41800000000E+01 0. -1.
        -11    1    3    3    0    0  0.29190436430E+02  0.81786581902E+02 -0.34839391435E+02  0.93567674727E+02  0.00000000000E+00 0. -1.
         11    1    3    3    0    0  0.19233538706E+01 -0.20284622174E+02  0.10098470322E+02  0.22740806707E+02  0.00000000000E+00 0.  1.
</event>
<event>
 7    1  0.5831876E-006  0.1085792E+03  0.7561462E-02  0.1263224E+00
         -3   -1    0    0    0  501 -0.00000000000E+00  0.00000000000E+00  0.40794530776E+03  0.40794530776E+03  0.00000000000E+00 0.  1.
          3   -1    0    0  501    0  0.00000000000E+00 -0.00000000000E+00 -0.32038642353E+02  0.32038642353E+02  0.00000000000E+00 0. -1.
         23    2    1    2    0    0 -0.14001546482E+02 -0.94843769895E+00  0.21649421898E+03  0.23536841587E+03  0.91277606783E+02 0.  0.
          5    1    1    2  502    0 -0.16771507876E+01  0.62015562186E+02  0.10077194751E+03  0.11841115063E+03  0.41800000000E+01 0. -1.
         -5    1    1    2    0  502  0.15678697270E+02 -0.61067124487E+02  0.58640498921E+02  0.86204383618E+02  0.41800000000E+01 0.  1.
        -11    1    3    3    0    0 -0.14974903338E+02 -0.45156410529E+02  0.12505163618E+03  0.13379559355E+03  0.00000000000E+00 0.  1.
         11    1    3    3    0    0  0.97335685591E+00  0.44207972830E+02  0.91442582800E+02  0.10157282232E+03  0.00000000000E+00 0. -1.
</event>
<event>
 7    1  0.5831876E-006  0.8049346E+02  0.7561462E-02  0.1327657E+00
          3   -1    0    0  501    0  0.00000000000E+00  0.00000000000E+00  0.11319360395E+03  0.11319360395E+03  0.00000000000E+00 0. -1.
         -3   -1    0    0    0  501 -0.00000000000E+00 -0.00000000000E+00 -0.11829624433E+03  0.11829624433E+03  0.00000000000E+00 0.  1.
         23    2    1    2    0    0  0.19200453731E+02 -0.70760929378E+00 -0.31937645597E+02  0.10211684463E+03  0.95071965458E+02 0.  0.
          5    1    1    2  502    0  0.38942293365E+02 -0.13773203297E+02  0.50005728515E+02  0.64994219942E+02  0.41800000000E+01 0. -1.
         -5    1    1    2    0  502 -0.58142747096E+02  0.14480812590E+02 -0.23170723304E+02  0.64378783706E+02  0.41800000000E+01 0. -1.
        -11    1    3    3    0    0  0.28808920078E+01 -0.27707308269E+02  0.24735841153E+02  0.37253943520E+02  0.00000000000E+00 0. -1.
         11    1    3    3    0    0  0.16319561723E+02  0.26999698975E+02 -0.56673486750E+02  0.64862901107E+02  0.00000000000E+00 0.  1.
</event>
<event>
 7    1  0.5831876E-006  0.8708078E+02  0.7561462E-02  0.1310079E+00
          1   -1    0    0  501    0  0.00000000000E+00  0.00000000000E+00  0.37694362998E+03  0.37694362998E+03  0.00000000000E+00 0. -1.
         -1   -1    0    0    0  501 -0.00000000000E+00 -0.00000000000E+00 -0.33843354060E+02  0.33843354060E+02  0.00000000000E+00 0.  1.
         23    2    1    2    0    0  0.10228439726E+02 -0.22660808495E+02  0.10162513326E+03  0.13768132555E+03  0.89500538966E+02 0.  0.
          5    1    1    2  502    0  0.14202396959E+02 -0.25061098932E+02  0.37188889615E+01  0.29343982248E+02  0.41800000000E+01 0. -1.
         -5    1    1    2    0  502 -0.24430836685E+02  0.47721907427E+02  0.23775625371E+03  0.24376167625E+03  0.41800000000E+01 0. -1.
        -11    1    3    3    0    0  0.15299358695E+02 -0.55746312322E+02  0.76210195036E+02  0.95654145448E+02  0.00000000000E+00 0.  1.
         11    1    3    3    0    0 -0.50709189691E+01  0.33085503827E+02  0.25414938222E+02  0.42027180104E+02  0.00000000000E+00 0. -1.
</event>
<event>
 7    1  0.5831876E-006  0.2806975E+03  0.7561462E-02  0.1095309E+00
          2   -1    0    0  501    0  0.00000000000E+00  0.00000000000E+00  0.22374860968E+04  0.22374860968E+04  0.00000000000E+00 0. -1.
         -2   -1    0    0    0  501 -0.00000000000E+00 -0.00000000000E+00 -0.86744723642E+02  0.86744723642E+02  0.00000000000E+00 0.  1.
         23    2    1    2    0    0  0.26447110262E+03 -0.66489691804E+02  0.19923574963E+03  0.34979731637E+03  0.91090259452E+02 0.  0.
          5    1    1    2  502    0 -0.14929511745E+03  0.85138798161E+02  0.88392784893E+03  0.90049073375E+03  0.41800000000E+01 0. -1.
         -5    1    1    2    0  502 -0.11517598518E+03 -0.18649106357E+02  0.10675777746E+04  0.10739427704E+04  0.41800000000E+01 0. -1.
        -11    1    3    3    0    0  0.21264212016E+03 -0.51881719771E+02  0.10852424824E+03  0.24430697200E+03  0.00000000000E+00 0.  1.
         11    1    3    3    0    0  0.51828982464E+02 -0.14607972033E+02  0.90711501384E+02  0.10549034436E+03  0.00000000000E+00 0. -1.
</event>
<event>
 7    1  0.5831876E-006  0.1197212E+03  0.7561462E-02  0.1243558E+00
         -2   -1    0    0    0  501 -0.00000000000E+00  0.00000000000E+00  0.46600660800E+02  0.46600660800E+02  0.00000000000E+00 0.  1.
          2   -1    0    0  501    0  0.00000000000E+00 -0.00000000000E+00 -0.44929555943E+03  0.44929555943E+03  0.00000000000E+00 0. -1.
         23    2    1    2    0    0  0.85527878924E+02 -0.25604093671E+01 -0.11145516645E+03  0.16758154401E+03  0.91322209760E+02 0.  0.
          5    1    1    2  502    0 -0.94446260099E+02 -0.13488424553E+02 -0.29414795515E+03  0.30926125778E+03  0.41800000000E+01 0.  1.
         -5    1    1    2    0  502  0.89183811752E+01  0.16048833920E+02  0.29082229815E+01  0.19053418430E+02  0.41800000000E+01 0.  1.
        -11    1    3    3    0    0 -0.14503892171E+01  0.31627083567E+02 -0.29784136838E+02  0.43468044021E+02  0.00000000000E+00 0.  1.
         11    1    3    3    0    0  0.86978268141E+02 -0.34187492934E+02 -0.81671029617E+02  0.12411349999E+03  0.00000000000E+00 0. -1.
</event>
<event>
 7    1  0.5831876E-006  0.1290146E+03  0.7561462E-02  0.1228925E+00
         -1   -1    0    0    0  501 -0.00000000000E+00  0.00000000000E+00  0.49547756943E+03  0.49547756943E+03  0.00000000000E+00 0.  1.
          1   -1    0    0  501    0  0.00000000000E+00 -0.00000000000E+00 -0.48439930181E+02  0.48439930181E+02  0.00000000000E+00 0. -1.
         23    2    1    2    0    0 -0.39052630193E+02 -0.10132402452E+03  0.24186907637E+03  0.28022516947E+03  0.90740452002E+02 0.  0.
          5    1    1    2  502    0  0.59650467029E+02  0.95214764046E+02  0.21266425027E+03  0.24055682333E+03  0.41800000000E+01 0.  1.
         -5    1    1    2    0  502 -0.20597836835E+02  0.61092604729E+01 -0.74956873924E+01  0.23135506809E+02  0.41800000000E+01 0.  1.
        -11    1    3    3    0    0 -0.80722767938E+01 -0.90546493549E+02  0.10230430599E+03  0.13685759084E+03  0.00000000000E+00 0. -1.
         11    1    3    3    0    0 -0.30980353399E+02 -0.10777530970E+02  0.13956477037E+03  0.14336757862E+03  0.00000000000E+00 0.  1.
</event>
<event>
 7    1  0.5831876E-006  0.9364756E+02  0.7561462E-02  0.1294251E+00
         -1   -1    0    0    0  501 -0.00000000000E+00  0.00000000000E+00  0.40034269011E+02  0.40034269011E+02  0.00000000000E+00 0.  1.
          1   -1    0    0  501    0  0.00000000000E+00 -0.00000000000E+00 -0.30723840842E+03  0.30723840842E+03  0.00000000000E+00 0. -1.
         23    2    1    2    0    0  0.15958945905E+02 -0.15830910081E+02 -0.10970487342E+03  0.14499878102E+03  0.92109617189E+02 0.  0.
          5    1    1    2  502    0 -0.11909085215E+02 -0.49110411127E+02 -0.29599308299E+02  0.58713288474E+02  0.41800000000E+01 0. -1.
         -5    1    1    2    0  502 -0.40498606895E+01  0.64941321208E+02 -0.12789995769E+03  0.14356060793E+03  0.41800000000E+01 0. -1.
        -11    1    3    3    0    0  0.80468608547E+01  0.26823846593E+02 -0.10736588216E+01  0.28025407382E+02  0.00000000000E+00 0.  1.
         11    1    3    3    0    0  0.79120850500E+01 -0.42654756674E+02 -0.10863121460E+03  0.11697337364E+03  0.00000000000E+00 0. -1.
</event>
<event>
 7    1  0.5831876E-006  0.1026192E+03  0.7561462E-02  0.1274883E+00
         -3   -1    0    0    0  501 -0.00000000000E+00  0.00000000000E+00  0.16590718632E+02  0.16590718632E+02  0.00000000000E+00 0.  1.
          3   -1    0    0  501    0  0.00000000000E+00 -0.00000000000E+00 -0.79217986143E+03  0.79217986143E+03  0.00000000000E+00 0. -1.
         23    2    1    2    0    0  0.22513676178E+00  0.12602066150E+01 -0.20647108936E+03  0.22606683822E+03  0.92055775441E+02 0.  0.
          5    1    1    2  502    0 -0.59015850462E+02 -0.34550576583E+01 -0.38025112721E+03  0.38484178590E+03  0.41800000000E+01 0.  1.
         -5    1    1    2    0  502  0.58790713700E+02  0.21948510433E+01 -0.18886692622E+03  0.19786195594E+03  0.41800000000E+01 0.  1.
        -11    1    3    3    0    0  0.34509151670E+02  0.27251092087E+02 -0.14123477335E+03  0.14792148178E+03  0.00000000000E+00 0. -1.
         11    1    3    3    0    0 -0.34284014909E+02 -0.25990885472E+02 -0.65236316015E+02  0.78145356440E+02  0.00000000000E+00 0.  1.
</event>
<event>
 7    1  0.5831876E-006  0.9373744E+02  0.7561462E-02  0.1294045E+00
         -1   -1    0    0    0  501 -0.00000000000E+00  0.00000000000E+00  0.61695095328E+03  0.61695095328E+03  0.00000000000E+00 0.  1.
          1   -1    0    0  501    0  0.00000000000E+00 -0.00000000000E+00 -0.22159110436E+02  0.22159110436E+02  0.00000000000E+00 0. -1.
         23    2    1    2    0    0  0.19050947381E+02 -0.44430224061E+02  0.26525571782E+03  0.28333517011E+03  0.87070312846E+02 0.  0.
          5    1    1    2  502    0  0.22738059225E+02  0.59218573578E+02  0.79433944009E+02  0.10174027057E+03  0.41800000000E+01 0.  1.
         -5    1    1    2    0  502 -0.41789006606E+02 -0.14788349516E+02  0.25010218101E+03  0.25403462304E+03  0.41800000000E+01 0.  1.
        -11    1    3    3    0    0  0.27232083589E+02 -0.57691916956E+02  0.25866574597E+03  0.26641680089E+03  0.00000000000E+00 0.  1.
         11    1    3    3    0    0 -0.81811362074E+01  0.13261692894E+02  0.65899718495E+01  0.16918369219E+02  0.00000000000E+00 0. -1.
</event>
<event>
 7    1  0.5831876E-006  0.1064085E+03  0.7561462E-02  0.1267369E+00
          2   -1    0    0  501    0  0.00000000000E+00  0.00000000000E+00  0.24972545512E+03  0.24972545512E+03  0.00000000000E+00 0. -1.
         -2   -1    0    0    0  501 -0.00000000000E+00 -0.00000000000E+00 -0.69181130546E+02  0.69181130546E+02  0.00000000000E+00 0.  1.
         23    2    1    2    0    0 -0.13124492435E+02  0.50255672062E+02  0.17900901503E+02  0.10725101030E+03  0.92111085428E+02 0.  0.
          5    1    1    2  502    0  0.64542603867E+02 -0.47188254332E+02  0.12192957656E+03  0.14586559944E+03  0.41800000000E+01 0. -1.
         -5    1    1    2    0  502 -0.51418111432E+02 -0.30674177305E+01  0.40713846514E+02  0.65789975929E+02  0.41800000000E+01 0. -1.
        -11    1    3    3    0    0  0.25172789104E+02  0.22691822550E+02 -0.26066884713E+02  0.42755942284E+02  0.00000000000E+00 0. -1.
         11    1    3    3    0    0 -0.38297281539E+02  0.27563849512E+02  0.43967786216E+02  0.64495068012E+02  0.00000000000E+00 0.  1.
</event>
<event>
 7    1  0.5831876E-006  0.1117931E+03  0.7561462E-02  0.1257285E+00
         -2   -1    0    0    0  501 -0.00000000000E+00  0.00000000000E+00  0.10059903194E+02  0.10059903194E+02  0.00000000000E+00 0.  1.
          2   -1    0    0  501    0  0.00000000000E+00 -0.00000000000E+00 -0.16965730419E+04  0.16965730419E+04  0.00000000000E+00 0. -1.
         23    2    1    2    0    0 -0.44835941005E+02 -0.22015980951E+02 -0.40155881411E+03  0.41463639155E+03  0.90437221206E+02 0.  0.
          5    1    1    2  502    0  0.58716658133E+02  0.59537763580E+02 -0.59389958628E+03  0.59977210857E+03  0.41800000000E+01 0. -1.
         -5    1    1    2    0  502 -0.13880717129E+02 -0.37521782629E+02 -0.69105473833E+03  0.69222444499E+03  0.41800000000E+01 0. -1.
        -11    1    3    3    0    0 -0.69508992707E+02 -0.50479007773E+01 -0.22467072496E+03  0.23523162207E+03  0.00000000000E+00 0.  1.
         11    1    3    3    0    0  0.24673051703E+02 -0.16968080174E+02 -0.17688808915E+03  0.17940476947E+03  0.00000000000E+00 0. -1.
</event>
<event>
 7    1  0.5831876E-006  0.1004926E+03  0.7561462E-02  0.1279263E+00
          1   -1    0    0  501    0  0.00000000000E+00  0.00000000000E+00  0.10401185702E+04  0.10401185702E+04  0.00000000000E+00 0. -1.
         -1   -1    0    0    0  501 -0.00000000000E+00 -0.00000000000E+00 -0.16704012416E+02  0.16704012416E+02  0.00000000000E+00 0.  1.
         23    2    1    2    0    0 -0.34316524392E+02 -0.58825003487E+02  0.30772975634E+03  0.32710289041E+03  0.87525385450E+02 0.  0.
          5    1    1    2  502    0 -0.56763516840E+01  0.66979229997E+02  0.17550287686E+03  0.18798183531E+03  0.41800000000E+01 0. -1.
         -5    1    1    2    0  502  0.39992876076E+02 -0.81542265105E+01  0.54018192459E+03  0.54173785690E+03  0.41800000000E+01 0. -1.
        -11    1    3    3    0    0 -0.26175358868E+02  0.63425214239E+01  0.24668192420E+02  0.36522550666E+02  0.00000000000E+00 0.  1.
         11    1    3    3    0    0 -0.81411655245E+01 -0.65167524911E+02  0.28306156392E+03  0.29058033975E+03  0.00000000000E+00 0. -1.
</event>
<event>
 7    1  0.5831876E-006  0.1911073E+03  0.7561462E-02  0.1157466E+00
          1   -1    0    0  501    0  0.00000000000E+00  0.00000000000E+00  0.35609014493E+03  0.35609014493E+03  0.00000000000E+00 0. -1.
         -1   -1    0    0    0  501 -0.00000000000E+00 -0.00000000000E+00 -0.12268470475E+03  0.12268470475E+03  0.00000000000E+00 0.  1.
         23    2    1    2    0    0  0.16852023732E+03 -0.54511757946E+02  0.81930012729E+02  0.21426540626E+03  0.88467707065E+02 0.  0.
          5    1    1    2  502    0 -0.57650084407E+02 -0.27201913953E+02  0.60448943647E+01  0.64167667113E+02  0.41800000000E+01 0. -1.
         -5    1    1    2    0  502 -0.11087015291E+03  0.81713671898E+02  0.14543053308E+03  0.20034177631E+03  0.41800000000E+01 0. -1.
        -11    1    3    3    0    0  0.28840957976E+02 -0.24107712952E+02 -0.16140842129E+02  0.40908550028E+02  0.00000000000E+00 0.  1.
         11    1    3    3    0    0  0.13967927934E+03 -0.30404044993E+02  0.98070854858E+02  0.17335685623E+03  0.00000000000E+00 0. -1.
</event>
<event>
 7    1  0.5831876E-006  0.1109542E+03  0.7561462E-02  0.1258813E+00
         -4   -1    0    0    0  501 -0.00000000000E+00  0.00000000000E+00  0.42057140478E+03  0.42057140478E+03  0.00000000000E+00 0.  1.
          4   -1    0    0  501    0  0.00000000000E+00 -0.00000000000E+00 -0.42257310425E+02  0.42257310425E+02  0.00000000000E+00 0. -1.
         23    2    1    2    0    0  0.37936082521E+02  0.32555652778E+02  0.27345645535E+03  0.29212025012E+03  0.89759627189E+02 0.  0.
          5    1    1    2  502    0  0.42403044005E+02 -0.32753199673E+01  0.11954494733E+02  0.44374860068E+02  0.41800000000E+01 0. -1.
         -5    1    1    2    0  502 -0.80339126526E+02 -0.29280332811E+02  0.92903144269E+02  0.12633360501E+03  0.41800000000E+01 0. -1.
        -11    1    3    3    0    0  0.32393075583E+02 -0.21722969143E+02  0.58225867604E+02  0.70081740791E+02  0.00000000000E+00 0. -1.
         11    1    3    3    0    0  0.55430069379E+01  0.54278621922E+02  0.21523058775E+03  0.22203850933E+03  0.00000000000E+00 0.  1.
</event>
<event>
 7    1  0.5831876E-006  0.1145579E+03  0.7561462E-02  0.1252355E+00
          2   -1    0    0  501    0  0.00000000000E+00  0.00000000000E+00  0.19197334320E+03  0.19197334320E+03  0.00000000000E+00 0. -1.
         -2   -1    0    0    0  501 -0.00000000000E+00 -0.00000000000E+00 -0.80013268969E+02  0.80013268969E+02  0.00000000000E+00 0.  1.
         23    2    1    2    0    0 -0.16998644428E+02  0.57933929658E+02  0.39449513450E+02  0.11530295203E+03  0.89962283860E+02 0.  0.
          5    1    1    2  502    0 -0.47916695826E+02 -0.55993042321E+02  0.38167202390E+02  0.83098966694E+02  0.41800000000E+01 0. -1.
         -5    1    1    2    0  502  0.64915340254E+02 -0.19408873373E+01  0.34343358391E+02  0.73584693446E+02  0.41800000000E+01 0. -1.
        -11    1    3    3    0    0 -0.39625833093E+02  0.16322098056E+02  0.50933663535E+02  0.66564672420E+02  0.00000000000E+00 0. -1.
         11    1    3    3    0    0  0.22627188665E+02  0.41611831602E+02 -0.11484150085E+02  0.48738279610E+02  0.00000000000E+00 0.  1.
</event>
<event>
 7    1  0.5831876E-006  0.1448773E+03  0.7561462E-02  0.1206913E+00
         -1   -1    0    0    0  501 -0.00000000000E+00  0.00000000000E+00  0.25141504862E+03  0.25141504862E+03  0.00000000000E+00 0.  1.
          1   -1    0    0  501    0  0.00000000000E+00 -0.00000000000E+00 -0.32504163716E+03  0.32504163716E+03  0.00000000000E+00 0. -1.
         23    2    1    2    0    0  0.14198821116E+03  0.16013868373E+02  0.18698789938E+03  0.25396531482E+03  0.95481990596E+02 0.  0.
          5    1    1    2  502    0 -0.18827265149E+02  0.26057637277E+01 -0.16306881083E+03  0.16422595831E+03  0.41800000000E+01 0.  1.
         -5    1    1    2    0  502 -0.12316094602E+03 -0.18619632101E+02 -0.97545677087E+02  0.15826541265E+03  0.41800000000E+01 0.  1.
        -11    1    3    3    0    0  0.12055106122E+03  0.30070805934E+01  0.19355391246E+03  0.22804542952E+03  0.00000000000E+00 0.  1.
         11    1    3    3    0    0  0.21437149947E+02  0.13006787780E+02 -0.65660130862E+01  0.25919885302E+02  0.00000000000E+00 0. -1.
</event>
<event>
 7    1  0.5831876E-006  0.1263265E+03  0.7561462E-02  0.1233011E+00
         -1   -1    0    0    0  501 -0.00000000000E+00  0.00000000000E+00  0.39496858277E+02  0.39496858277E+02  0.00000000000E+00 0.  1.
          1   -1    0    0  501    0  0.00000000000E+00 -0.00000000000E+00 -0.60540700666E+03  0.60540700666E+03  0.00000000000E+00 0. -1.
         23    2    1    2    0    0  0.90496141509E+02  0.45334180682E+02 -0.17627476966E+03  0.22334938966E+03  0.92560336402E+02 0.  0.
          5    1    1    2  502    0 -0.19894017641E+02 -0.49844188240E+02 -0.31129536785E+03  0.31591532645E+03  0.41800000000E+01 0.  1.
         -5    1    1    2    0  502 -0.70602123868E+02  0.45100075584E+01 -0.78340010876E+02  0.10563914884E+03  0.41800000000E+01 0.  1.
        -11    1    3    3    0    0  0.89735608226E+02  0.74311784627E+01 -0.82188388709E+02  0.12191239902E+03  0.00000000000E+00 0.  1.
         11    1    3    3    0    0  0.76053328252E+00  0.37903002219E+02 -0.94086380951E+02  0.10143699063E+03  0.00000000000E+00 0. -1.
</event>
<event>
 7    1  0.5831876E-006  0.1157642E+03  0.7561462E-02  0.1250253E+00
          2   -1    0    0  501    0  0.00000000000E+00  0.00000000000E+00  0.83889948949E+03  0.83889948949E+03  0.00000000000E+00 0. -1.
         -2   -1    0    0    0  501 -0.00000000000E+00 -0.00000000000E+00 -0.17287484851E+02  0.17287484851E+02  0.00000000000E+00 0.  1.
         23    2    1    2    0    0  0.13940345974E+00 -0.48819356188E+02  0.29142143696E+03  0.30925659696E+03  0.91267956435E+02 0.  0.
          5    1    1    2  502    0  0.59300043071E+02  0.41088504882E+02  0.33478051201E+03  0.34249120276E+03  0.41800000000E+01 0.  1.
         -5    1    1    2    0  502 -0.59439446531E+02  0.77308513066E+01  0.19541005566E+03  0.20443917462E+03  0.41800000000E+01 0.  1.
        -11    1    3    3    0    0 -0.42415333325E+02 -0.33138808383E+02  0.11305017093E+03  0.12521015242E+03  0.00000000000E+00 0.  1.
         11    1    3    3    0    0  0.42554736785E+02 -0.15680547805E+02  0.17837126603E+03  0.18404644454E+03  0.00000000000E+00 0. -1.
</event>
<event>
 7    1  0.5831876E-006  0.1135230E+03  0.7561462E-02  0.1254181E+00
         -1   -1    0    0    0  501 -0.00000000000E+00  0.00000000000E+00  0.28501878592E+02  0.28501878592E+02  0.00000000000E+00 0.  1.
          1   -1    0    0  501    0  0.00000000000E+00 -0.00000000000E+00 -0.52668752879E+03  0.52668752879E+03  0.00000000000E+00 0. -1.
         23    2    1    2    0    0  0.52849259014E+02  0.27184890405E+01 -0.16831249001E+03  0.19844863985E+03  0.90842357981E+02 0.  0.
          5    1    1    2  502    0 -0.84826927606E+02  0.14729723090E+02 -0.29014242268E+03  0.30267585009E+03  0.41800000000E+01 0. -1.
         -5    1    1    2    0  502  0.31977668592E+02 -0.17448212131E+02 -0.39730737506E+02  0.54064917441E+02  0.41800000000E+01 0. -1.
        -11    1    3    3    0    0  0.13945259794E+02 -0.42383350927E+02 -0.85482871495E+02  0.96426863610E+02  0.00000000000E+00 0. -1.
         11    1    3    3    0    0  0.38903999220E+02  0.45101839967E+02 -0.82829618519E+02  0.10202177624E+03  0.00000000000E+00 0.  1.
</event>
<event>
 7    1  0.5831876E-006  0.9999218E+02  0.7561462E-02  0.1280312E+00
          1   -1    0    0  501    0  0.00000000000E+00  0.00000000000E+00  0.57659868275E+02  0.57659868275E+02  0.00000000000E+00 0. -1.
         -1   -1    0    0    0  501 -0.00000000000E+00 -0.00000000000E+00 -0.32050549941E+03  0.32050549941E+03  0.00000000000E+00 0.  1.
         23    2    1    2    0    0 -0.55412287123E+02 -0.62357978923E+02 -0.11719914592E+03  0.16883455327E+03  0.88376622899E+02 0.  0.
          5    1    1    2  502    0  0.21469384489E+02 -0.17149745716E+02  0.11377900582E+02  0.30032936422E+02  0.41800000000E+01 0.  1.
         -5    1    1    2    0  502  0.33942902634E+02  0.79507724639E+02 -0.15702438580E+03  0.17929787799E+03  0.41800000000E+01 0.  1.
        -11    1    3    3    0    0 -0.10026185515E+02 -0.24724349717E+02 -0.10537667390E+03  0.10870170775E+03  0.00000000000E+00 0.  1.
         11    1    3    3    0    0 -0.45386101608E+02 -0.37633629206E+02 -0.11822472019E+02  0.60132845526E+02  0.00000000000E+00 0. -1.
</event>
<event>
 7    1  0.5831876E-006  0.1083466E+03  0.7561462E-02  0.1263663E+00
          2   -1    0    0  501    0  0.00000000000E+00  0.00000000000E+00  0.10475485427E+04  0.10475485427E+04  0.00000000000E+00 0. -1.
         -2   -1    0    0    0  501 -0.00000000000E+00 -0.00000000000E+00 -0.19953173674E+02  0.19953173674E+02  0.00000000000E+00 0.  1.
         23    2    1    2    0    0 -0.56836988291E+02  0.78098622439E+02  0.45353977434E+03  0.47208559079E+03  0.88524799071E+02 0.  0.
          5    1    1    2  502    0  0.54749203761E+01 -0.38066649240E+02  0.47638291974E+03  0.47795104682E+03  0.41800000000E+01 0.  1.
         -5    1    1    2    0  502  0.51362067914E+02 -0.40031973200E+02  0.97672674921E+02  0.11746507875E+03  0.41800000000E+01 0.  1.
        -11    1    3    3    0    0 -0.25551227466E+00  0.49235463162E+02  0.85993952721E+02  0.99091654663E+02  0.00000000000E+00 0.  1.
         11    1    3    3    0    0 -0.56581476016E+02  0.28863159277E+02  0.36754582162E+03  0.37299393612E+03  0.00000000000E+00 0. -1.
</event>
<event>
 7    1  0.5831876E-006  0.9123602E+02  0.7561462E-02  0.1299886E+00
          2   -1    0    0  501    0  0.00000000000E+00  0.00000000000E+00  0.30666068042E+04  0.30666068042E+04  0.00000000000E+00 0.  1.
         -2   -1    0    0    0  501 -0.00000000000E+00 -0.00000000000E+00 -0.92512621397E+01  0.92512621397E+01  0.00000000000E+00 0. -1.
         23    2    1    2    0    0 -0.25873522149E+02 -0.61757780421E+02  0.44944821601E+03  0.46409401413E+03  0.94319099238E+02 0.  0.
          5    1    1    2  502    0  0.24291305895E+02  0.16151832152E+02  0.12472980574E+03  0.12816374708E+03  0.41800000000E+01 0.  1.
         -5    1    1    2    0  502  0.15822162543E+01  0.45605948268E+02  0.24831775203E+04  0.24836003052E+04  0.41800000000E+01 0.  1.
        -11    1    3    3    0    0  0.27612705791E+02 -0.41786075505E+02  0.12500171470E+03  0.13466241608E+03  0.00000000000E+00 0. -1.
         11    1    3    3    0    0 -0.53486227940E+02 -0.19971704916E+02  0.32444650131E+03  0.32943159804E+03  0.00000000000E+00 0.  1.
</event>
<event>
 7    1  0.5831876E-006  0.7105395E+02  0.7561462E-02  0.1356545E+00
          1   -1    0    0  501    0  0.00000000000E+00  0.00000000000E+00  0.21165792925E+03  0.21165792925E+03  0.00000000000E+00 0. -1.
         -1   -1    0    0    0  501 -0.00000000000E+00 -0.00000000000E+00 -0.83658983421E+02  0.83658983421E+02  0.00000000000E+00 0.  1.
         23    2    1    2    0    0  0.22398974947E+01  0.11387762790E+02 -0.26794206184E+02  0.95959634465E+02  0.91409100639E+02 0.  0.
          5    1    1    2  502    0  0.20356748106E+02 -0.21493694219E+02 -0.10863088453E+02  0.31809671098E+02  0.41800000000E+01 0.  1.
         -5    1    1    2    0  502 -0.22596645601E+02  0.10105931429E+02  0.16565624046E+03  0.16754760711E+03  0.41800000000E+01 0.  1.
        -11    1    3    3    0    0 -0.26917963098E+01 -0.37687827607E+02  0.37110123296E+01  0.37965638801E+02  0.00000000000E+00 0. -1.
         11    1    3    3    0    0  0.49316938045E+01  0.49075590396E+02 -0.30505218513E+02  0.57993995664E+02  0.00000000000E+00 0.  1.
</event>
<event>
 7    1  0.5831876E-006  0.1520053E+03  0.7561462E-02  0.1198030E+00
         -2   -1    0    0    0  501 -0.00000000000E+00  0.00000000000E+00  0.72155468954E+02  0.72155468954E+02  0.00000000000E+00 0.  1.
          2   -1    0    0  501    0  0.00000000000E+00 -0.00000000000E+00 -0.43794132980E+03  0.43794132980E+03  0.00000000000E+00 0. -1.
         23    2    1    2    0    0 -0.17904595342E+02  0.11267493230E+03 -0.52309466292E+02  0.15381971984E+03  0.88926998400E+02 0.  0.
          5    1    1    2  502    0  0.20395128582E+01  0.26788281659E+02 -0.71659370375E+02  0.76644043536E+02  0.41800000000E+01 0.  1.
         -5    1    1    2    0  502  0.15865082484E+02 -0.13946321396E+03 -0.24181702418E+03  0.27963303537E+03  0.41800000000E+01 0.  1.
        -11    1    3    3    0    0 -0.40747497330E+02  0.29935122906E+02  0.46964559649E+01  0.50779196732E+02  0.00000000000E+00 0.  1.
         11    1    3    3    0    0  0.22842901989E+02  0.82739809398E+02 -0.57005922257E+02  0.10304052311E+03  0.00000000000E+00 0. -1.
</event>
<event>
 7    1  0.5831876E-006  0.1599886E+03  0.7561462E-02  0.1188710E+00
          1   -1    0    0  501    0  0.00000000000E+00  0.00000000000E+00  0.15254221864E+03  0.15254221864E+03  0.00000000000E+00 0. -1.
         -1   -1    0    0    0  501 -0.00000000000E+00 -0.00000000000E+00 -0.18259747718E+03  0.18259747718E+03  0.00000000000E+00 0.  1.
         23    2    1    2    0    0  0.90365572505E+02 -0.85801464885E+02 -0.36592728173E+02  0.15845207046E+03  0.90775562831E+02 0.  0.
          5    1    1    2  502    0 -0.11435983668E+02 -0.28190351902E+02  0.21030742033E+02  0.37218841644E+02  0.41800000000E+01 0. -1.
         -5    1    1    2    0  502 -0.78929588837E+02  0.11399181679E+03 -0.14493272399E+02  0.13946878372E+03  0.41800000000E+01 0. -1.
        -11    1    3    3    0    0  0.95226857874E+01 -0.66845618532E+02 -0.33462619319E+02  0.75357581922E+02  0.00000000000E+00 0.  1.
         11    1    3    3    0    0  0.80842886718E+02 -0.18955846353E+02 -0.31301088539E+01  0.83094488537E+02  0.00000000000E+00 0. -1.
</event>
<event>
 7    1  0.7677972E-006  0.2183418E+03  0.7561462E-02  0.1135125E+00
         -2   -1    0    0    0  501 -0.00000000000E+00  0.00000000000E+00  0.23579458253E+03  0.23579458253E+03  0.00000000000E+00 0.  1.
          2   -1    0    0  501    0  0.00000000000E+00 -0.00000000000E+00 -0.23157633695E+03  0.23157633695E+03  0.00000000000E+00 0. -1.
         23    2    1    2    0    0 -0.31915051807E+02  0.19623575705E+03  0.59832178838E+02  0.22598371430E+03  0.89228395864E+02 0.  0.
          5    1    1    2  502    0 -0.46827835057E+02 -0.85348306407E+02 -0.10343656152E+02  0.97987974595E+02  0.41800000000E+01 0. -1.
         -5    1    1    2    0  502  0.78742886865E+02 -0.11088745064E+03 -0.45270277104E+02  0.14339923058E+03  0.41800000000E+01 0. -1.
        -11    1    3    3    0    0 -0.78735898439E+01  0.15675445609E+03  0.89024590732E+01  0.15720434694E+03  0.00000000000E+00 0.  1.
         11    1    3    3    0    0 -0.24041461963E+02  0.39481300963E+02  0.50929719764E+02  0.68779367360E+02  0.00000000000E+00 0. -1.
</event>
<event>
 7    1  0.5831876E-006  0.1526959E+03  0.7561462E-02  0.1197199E+00
          1   -1    0    0  501    0  0.00000000000E+00  0.00000000000E+00  0.42917445942E+02  0.42917445942E+02  0.00000000000E+00 0. -1.
         -1   -1    0    0    0  501 -0.00000000000E+00 -0.00000000000E+00 -0.87022282211E+03  0.87022282211E+03  0.00000000000E+00 0.  1.
         23    2    1    2    0    0  0.38727564805E+02  0.10918096363E+03 -0.64740725697E+03  0.66528916783E+03  0.10026571377E+03 0.  0.
          5    1    1    2  502    0  0.52361789271E+01 -0.11530450453E+03 -0.16384937638E+03  0.20046604919E+03  0.41800000000E+01 0.  1.
         -5    1    1    2    0  502 -0.43963743733E+02  0.61235408967E+01 -0.16048742818E+02  0.47385051041E+02  0.41800000000E+01 0.  1.
        -11    1    3    3    0    0  0.17570005498E+02 -0.12652316340E+02 -0.40619827810E+02  0.46029953436E+02  0.00000000000E+00 0. -1.
         11    1    3    3    0    0  0.21157559307E+02  0.12183327997E+03 -0.60678742916E+03  0.61925921439E+03  0.00000000000E+00 0.  1.
</event>
<event>
 7    1  0.5831876E-006  0.8599412E+02  0.7561462E-02  0.1312853E+00
         -1   -1    0    0    0  501 -0.00000000000E+00  0.00000000000E+00  0.93110544042E+02  0.93110544042E+02  0.00000000000E+00 0.  1.
          1   -1    0    0  501    0  0.00000000000E+00 -0.00000000000E+00 -0.14322784710E+03  0.14322784710E+03  0.00000000000E+00 0. -1.
         23    2    1    2    0    0  0.37315495653E+02 -0.14156052181E+02 -0.50184137572E+01  0.97501849042E+02  0.88817712540E+02 0.  0.
          5    1    1    2  502    0  0.18087786512E+02 -0.35779654573E+02  0.14948414194E+02  0.42991617662E+02  0.41800000000E+01 0.  1.
         -5    1    1    2    0  502 -0.55403282165E+02  0.49935706754E+02 -0.60047303493E+02  0.95844924438E+02  0.41800000000E+01 0.  1.
        -11    1    3    3    0    0  0.45009188622E+02 -0.54190190344E+01 -0.40109108752E+02  0.60530433937E+02  0.00000000000E+00 0. -1.
         11    1    3    3    0    0 -0.76936929690E+01 -0.87370331466E+01  0.35090694994E+02  0.36971415106E+02  0.00000000000E+00 0.  1.
</event>
<event>
 7    1  0.5831876E-006  0.2223561E+03  0.7561462E-02  0.1132139E+00
          1   -1    0    0  501    0  0.00000000000E+00  0.00000000000E+00  0.25512141244E+04  0.25512141244E+04  0.00000000000E+00 0. -1.
         -1   -1    0    0    0  501 -0.00000000000E+00 -0.00000000000E+00 -0.23845828833E+02  0.23845828833E+02  0.00000000000E+00 0.  1.
         23    2    1    2    0    0 -0.19557106259E+03 -0.70279665091E+02  0.83529576675E+03  0.86569054439E+03  0.92270411526E+02 0.  0.
          5    1    1    2  502    0  0.11476697028E+03  0.85457310605E+02  0.13482734433E+04  0.13558514520E+04  0.41800000000E+01 0.  1.
         -5    1    1    2    0  502  0.80804092306E+02 -0.15177645515E+02  0.34379908546E+03  0.35351795686E+03  0.41800000000E+01 0.  1.
        -11    1    3    3    0    0 -0.13588958223E+03 -0.12987416389E+02  0.40137077090E+03  0.42394946311E+03  0.00000000000E+00 0.  1.
         11    1    3    3    0    0 -0.59681480356E+02 -0.57292248702E+02  0.43392499585E+03  0.44174108127E+03  0.00000000000E+00 0. -1.
</event>
<event>
 7    1  0.5831876E-006  0.7395421E+02  0.7561462E-02  0.1347140E+00
         -2   -1    0    0    0  501 -0.00000000000E+00  0.00000000000E+00  0.64283548237E+02  0.64283548237E+02  0.00000000000E+00 0.  1.
          2   -1    0    0  501    0  0.00000000000E+00 -0.00000000000E+00 -0.21740179776E+03  0.21740179776E+03  0.00000000000E+00 0. -1.
         23    2    1    2    0    0  0.36422563208E+02 -0.11967439310E+02 -0.35303950802E+02  0.10563018891E+03  0.91877881735E+02 0.  0.
          5    1    1    2  502    0 -0.73762620307E+01  0.31460180259E+02 -0.13355274590E+03  0.13746985314E+03  0.41800000000E+01 0. -1.
         -5    1    1    2    0  502 -0.29046301177E+02 -0.19492740949E+02  0.15738447178E+02  0.38585303956E+02  0.41800000000E+01 0. -1.
        -11    1    3    3    0    0  0.40504502955E+02 -0.36923583344E+02  0.80933055228E+01  0.55402773946E+02  0.00000000000E+00 0.  1.
         11    1    3    3    0    0 -0.40819397472E+01  0.24956144034E+02 -0.43397256325E+02  0.50227414961E+02  0.00000000000E+00 0. -1.
</event>
<event>
 7    1  0.5831876E-006  0.1887120E+03  0.7561462E-02  0.1159628E+00
          1   -1    0    0  501    0  0.00000000000E+00  0.00000000000E+00  0.43415450572E+03  0.43415450572E+03  0.00000000000E+00 0. -1.
         -1   -1    0    0    0  501 -0.00000000000E+00 -0.00000000000E+00 -0.10091225224E+03  0.10091225224E+03  0.00000000000E+00 0.  1.
         23    2    1    2    0    0  0.98710119979E+02 -0.12992073903E+03  0.72086067129E+02  0.20269488358E+03  0.96258654358E+02 0.  0.
          5    1    1    2  502    0 -0.10961636037E+02  0.11599186224E+03  0.15223674852E+03  0.19174923617E+03  0.41800000000E+01 0.  1.
         -5    1    1    2    0  502 -0.87748483943E+02  0.13928876785E+02  0.10891943783E+03  0.14062263822E+03  0.41800000000E+01 0.  1.
        -11    1    3    3    0    0  0.47000295969E+02 -0.10383764212E+03  0.86413239594E+02  0.14303332381E+03  0.00000000000E+00 0. -1.
         11    1    3    3    0    0  0.51709824010E+02 -0.26083096906E+02 -0.14327172465E+02  0.59661559770E+02  0.00000000000E+00 0.  1.
</event>
<event>
 7    1  0.5831876E-006  0.1163134E+03  0.7561462E-02  0.1249306E+00
         -1   -1    0    0    0  501 -0.00000000000E+00  0.00000000000E+00  0.72908582816E+02  0.72908582816E+02  0.00000000000E+00 0.  1.
          1   -1    0    0  501    0  0.00000000000E+00 -0.00000000000E+00 -0.32907324632E+03  0.32907324632E+03  0.00000000000E+00 0. -1.
         23    2    1    2    0    0  0.19145467193E+02 -0.83899266861E+02 -0.27643277016E+02  0.12762134328E+03  0.90096729148E+02 0.  0.
          5    1    1    2  502    0  0.22348694401E+02  0.79683437584E+02 -0.64331148414E+02  0.10490416304E+03  0.41800000000E+01 0.  1.
         -5    1    1    2    0  502 -0.41494161594E+02  0.42158292771E+01 -0.16419023808E+03  0.16945632282E+03  0.41800000000E+01 0.  1.
        -11    1    3    3    0    0 -0.23058450160E+02 -0.16613411530E+02 -0.38075717344E+02  0.47512712169E+02  0.00000000000E+00 0. -1.
         11    1    3    3    0    0  0.42203917354E+02 -0.67285855332E+02  0.10432440327E+02  0.80108631114E+02  0.00000000000E+00 0.  1.
</event>
<event>
 7    1  0.5831876E-006  0.1017534E+03  0.7561462E-02  0.1276651E+00
          1   -1    0    0  501    0  0.00000000000E+00  0.00000000000E+00  0.92079924037E+02  0.92079924037E+02  0.00000000000E+00 0. -1.
         -1   -1    0    0    0  501 -0.00000000000E+00 -0.00000000000E+00 -0.16293672683E+03  0.16293672683E+03  0.00000000000E+00 0.  1.
         23    2    1    2    0    0  0.54219691767E+02 -0.62873476914E+00 -0.46456962084E+02  0.11651271954E+03  0.92069507472E+02 0.  0.
          5    1    1    2  502    0 -0.80729702489E+02  0.27442469062E+02 -0.43739328808E+02  0.95921714209E+02  0.41800000000E+01 0.  1.
         -5    1    1    2    0  502  0.26510010722E+02 -0.26813734293E+02  0.19339488094E+02  0.42582217121E+02  0.41800000000E+01 0.  1.
        -11    1    3    3    0    0  0.15800075920E+02 -0.28602245961E+02 -0.58926061343E+02  0.67379608032E+02  0.00000000000E+00 0.  1.
         11    1    3    3    0    0  0.38419615847E+02  0.27973511192E+02  0.12469099259E+02  0.49133111509E+02  0.00000000000E+00 0. -1.
</event>
<event>
 7    1  0.5831876E-006  0.1679649E+03  0.7561462E-02  0.1179987E+00
         -1   -1    0    0    0  501 -0.00000000000E+00  0.00000000000E+00  0.11521623949E+03  0.11521623949E+03  0.00000000000E+00 0.  1.
          1   -1    0    0  501    0  0.00000000000E+00 -0.00000000000E+00 -0.30472583748E+03  0.30472583748E+03  0.00000000000E+00 0. -1.
         23    2    1    2    0    0 -0.25545790602E+02  0.14968784085E+03 -0.10533948175E+03  0.20595001757E+03  0.90884356205E+02 0.  0.
          5    1    1    2  502    0 -0.54661293664E+01 -0.14325033899E+03 -0.10330874914E+03  0.17675041228E+03  0.41800000000E+01 0. -1.
         -5    1    1    2    0  502  0.31011919968E+02 -0.64375018605E+01  0.19138632912E+02  0.37241647118E+02  0.41800000000E+01 0. -1.
        -11    1    3    3    0    0 -0.33601299902E+02  0.48180907695E+02  0.96092873297E+00  0.58748366832E+02  0.00000000000E+00 0.  1.
         11    1    3    3    0    0  0.80555092998E+01  0.10150693316E+03 -0.10630041049E+03  0.14720165073E+03  0.00000000000E+00 0. -1.
</event>
<event>
 7    1  0.5831876E-006  0.1096670E+03  0.7561462E-02  0.1261188E+00
          4   -1    0    0  501    0  0.00000000000E+00  0.00000000000E+00  0.24353946073E+03  0.24353946073E+03  0.00000000000E+00 0. -1.
         -4   -1    0    0    0  501 -0.00000000000E+00 -0.00000000000E+00 -0.51654267584E+02  0.51654267584E+02  0.00000000000E+00 0.  1.
         23    2    1    2    0    0 -0.14444854665E+02 -0.25636272286E+02  0.63240374843E+02  0.11336226934E+03  0.89363229666E+02 0.  0.
          5    1    1    2  502    0  0.63027199443E+02 -0.14900509760E+02  0.70051683513E+02  0.95494313044E+02  0.41800000000E+01 0. -1.
         -5    1    1    2    0  502 -0.48582344778E+02  0.40536782046E+02  0.58593134786E+02  0.86337145927E+02  0.41800000000E+01 0. -1.
        -11    1    3    3    0    0  0.35773302648E+02 -0.28765613306E+01  0.11328181978E+02  0.37634179869E+02  0.00000000000E+00 0.  1.
         11    1    3    3    0    0 -0.50218157314E+02 -0.22759710955E+02  0.51912192865E+02  0.75728089470E+02  0.00000000000E+00 0. -1.
</event>
<event>
 7    1  0.5831876E-006  0.1189994E+03  0.7561462E-02  0.1244757E+00
          1   -1    0    0  501    0  0.00000000000E+00  0.00000000000E+00  0.68560365554E+03  0.68560365554E+03  0.00000000000E+00 0. -1.
         -1   -1    0    0    0  501 -0.00000000000E+00 -0.00000000000E+00 -0.27316021348E+02  0.27316021348E+02  0.00000000000E+00 0.  1.
         23    2    1    2    0    0  0.25416404093E+02  0.35142228739E+02  0.15631863126E+03  0.19378453546E+03  0.10599982012E+03 0.  0.
          5    1    1    2  502    0 -0.28770224082E+02  0.41295487388E+02  0.27449273732E+03  0.27909994323E+03  0.41800000000E+01 0.  1.
         -5    1    1    2    0  502  0.33538199894E+01 -0.76437716126E+02  0.22747626561E+03  0.24003519819E+03  0.41800000000E+01 0.  1.
        -11    1    3    3    0    0  0.18883082731E+02 -0.35349571576E+02  0.81269836070E+02  0.90614288492E+02  0.00000000000E+00 0. -1.
         11    1    3    3    0    0  0.65333213615E+01  0.70491800315E+02  0.75048795191E+02  0.10317024697E+03  0.00000000000E+00 0.  1.
</event>
<event>
 7    1  0.5831876E-006  0.1265065E+03  0.7561462E-02  0.1232733E+00
          2   -1    0    0  501    0  0.00000000000E+00  0.00000000000E+00  0.73231615557E+03  0.73231615557E+03  0.00000000000E+00 0. -1.
         -2   -1    0    0    0  501 -0.00000000000E+00 -0.00000000000E+00 -0.23167032091E+02  0.23167032091E+02  0.00000000000E+00 0.  1.
         23    2    1    2    0    0 -0.25275796937E+02 -0.59161849504E+02  0.23618734799E+03  0.26204556933E+03  0.93511639425E+02 0.  0.
          5    1    1    2  502    0 -0.97480352734E+01  0.91344678174E+02  0.33765143184E+03  0.34994976246E+03  0.41800000000E+01 0.  1.
         -5    1    1    2    0  502  0.35023832210E+02 -0.32182828670E+02  0.13531034365E+03  0.14348785587E+03  0.41800000000E+01 0.  1.
        -11    1    3    3    0    0  0.21730992428E+02 -0.62511153315E+02  0.13024818975E+03  0.14609747176E+03  0.00000000000E+00 0. -1.
         11    1    3    3    0    0 -0.47006789365E+02  0.33493038109E+01  0.10593915824E+03  0.11594809757E+03  0.00000000000E+00 0.  1.
</event>
<event>
 7    1  0.6037068E-006  0.1810849E+03  0.7561462E-02  0.1166757E+00
         -2   -1    0    0    0  501 -0.00000000000E+00  0.00000000000E+00  0.20403727336E+03  0.20403727336E+03  0.00000000000E+00 0.  1.
          2   -1    0    0  501    0  0.00000000000E+00 -0.00000000000E+00 -0.24924231435E+03  0.24924231435E+03  0.00000000000E+00 0. -1.
         23    2    1    2    0    0  0.13376747318E+03  0.10014021162E+03  0.83411949445E+02  0.20810278835E+03  0.91800971377E+02 0.  0.
          5    1    1    2  502    0 -0.66132084185E+02 -0.96789139124E+00  0.38240924822E+01  0.66381363768E+02  0.41800000000E+01 0. -1.
         -5    1    1    2    0  502 -0.67635388993E+02 -0.99172320229E+02 -0.13244108292E+03  0.17879543559E+03  0.41800000000E+01 0. -1.
        -11    1    3    3    0    0  0.12000003068E+03  0.61656089506E+02  0.25629359583E+02  0.13732568881E+03  0.00000000000E+00 0. -1.
         11    1    3    3    0    0  0.13767442503E+02  0.38484122114E+02  0.57782589862E+02  0.70777099539E+02  0.00000000000E+00 0.  1.
</event>
<event>
 7    1  0.5831876E-006  0.2089591E+03  0.7561462E-02  0.1142393E+00
          1   -1    0    0  501    0  0.00000000000E+00  0.00000000000E+00  0.10267255703E+03  0.10267255703E+03  0.00000000000E+00 0. -1.
         -1   -1    0    0    0  501 -0.00000000000E+00 -0.00000000000E+00 -0.42683410155E+03  0.42683410155E+03  0.00000000000E+00 0.  1.
         23    2    1    2    0    0  0.49057907203E+02  0.17103953386E+03 -0.16431774074E+03  0.25958145100E+03  0.93386344698E+02 0.  0.
          5    1    1    2  502    0 -0.90630764300E+02 -0.10050360045E+03 -0.10402939023E+03  0.17074687573E+03  0.41800000000E+01 0.  1.
         -5    1    1    2    0  502  0.41572857097E+02 -0.70535933413E+02 -0.55814413544E+02  0.99178331852E+02  0.41800000000E+01 0.  1.
        -11    1    3    3    0    0  0.73987695997E+02  0.15240209270E+03 -0.14462518038E+03  0.22274878186E+03  0.00000000000E+00 0.  1.
         11    1    3    3    0    0 -0.24929788794E+02  0.18637441160E+02 -0.19692560362E+02  0.36832669139E+02  0.00000000000E+00 0. -1.
</event>
<event>
 7    1  0.5831876E-006  0.7561575E+02  0.7561462E-02  0.1341975E+00
         -1   -1    0    0    0  501 -0.00000000000E+00  0.00000000000E+00  0.97869474521E+02  0.97869474521E+02  0.00000000000E+00 0.  1.
          1   -1    0    0  501    0  0.00000000000E+00 -0.00000000000E+00 -0.11654351018E+03  0.11654351018E+03  0.00000000000E+00 0. -1.
         23    2    1    2    0    0 -0.31220579158E+02 -0.53444632541E+01 -0.30204058699E+00  0.94476516034E+02  0.89008050215E+02 0.  0.
          5    1    1    2  502    0  0.57534256237E+02 -0.26128209299E+02  0.17042308772E+02  0.65580383120E+02  0.41800000000E+01 0. -1.
         -5    1    1    2    0  502 -0.26313677079E+02  0.31472672553E+02 -0.35414303839E+02  0.54356085542E+02  0.41800000000E+01 0.  1.
        -11    1    3    3    0    0 -0.27004961932E+02  0.11465152978E+02  0.40579118214E+02  0.50073770946E+02  0.00000000000E+00 0.  1.
         11    1    3    3    0    0 -0.42156172263E+01 -0.16809616233E+02 -0.40881158801E+02  0.44402745088E+02  0.00000000000E+00 0. -1.
</event>
<event>
 7    1  0.5831876E-006  0.1074896E+03  0.7561462E-02  0.1265291E+00
         -1   -1    0    0    0  501 -0.00000000000E+00  0.00000000000E+00  0.27035656435E+02  0.27035656435E+02  0.00000000000E+00 0.  1.
          1   -1    0    0  501    0  0.00000000000E+00 -0.00000000000E+00 -0.51816366553E+03  0.51816366553E+03  0.00000000000E+00 0. -1.
         23    2    1    2    0    0 -0.31197420730E+02  0.32770682773E+02 -0.17754698366E+03  0.20457189025E+03  0.90991923612E+02 0.  0.
          5    1    1    2  502    0  0.11981166368E+02 -0.70125569959E+02 -0.99288307988E+02  0.12221613810E+03  0.41800000000E+01 0. -1.
         -5    1    1    2    0  502  0.19216254362E+02  0.37354887186E+02 -0.21429271745E+03  0.21841129362E+03  0.41800000000E+01 0. -1.
        -11    1    3    3    0    0 -0.51784114244E+02 -0.11170318877E+02 -0.97639141051E+02  0.11108452807E+03  0.00000000000E+00 0.  1.
         11    1    3    3    0    0  0.20586693514E+02  0.43941001649E+02 -0.79907842611E+02  0.93487362175E+02  0.00000000000E+00 0. -1.
</event>
<event>
 7    1  0.5831876E-006  0.1273907E+03  0.7561462E-02  0.1231380E+00
         -2   -1    0    0    0  501 -0.00000000000E+00  0.00000000000E+00  0.35325560242E+02  0.35325560242E+02  0.00000000000E+00 0.  1.
          2   -1    0    0  501    0  0.00000000000E+00 -0.00000000000E+00 -0.64532320324E+03  0.64532320324E+03  0.00000000000E+00 0. -1.
         23    2    1    2    0    0 -0.21461925538E+02  0.95777490805E+02 -0.19823923104E+03  0.23925916327E+03  0.91171335919E+02 0.  0.
          5    1    1    2  502    0  0.25864610422E+02  0.24137737025E+02 -0.13672489950E+03  0.14128969872E+03  0.41800000000E+01 0. -1.
         -5    1    1    2    0  502 -0.44026848841E+01 -0.11991522783E+03 -0.27503351246E+03  0.30009990149E+03  0.41800000000E+01 0. -1.
        -11    1    3    3    0    0 -0.97044796900E+01  0.71031085091E+02 -0.19933994698E+03  0.21183957713E+03  0.00000000000E+00 0. -1.
         11    1    3    3    0    0 -0.11757445848E+02  0.24746405715E+02  0.11007159415E+01  0.27419586143E+02  0.00000000000E+00 0.  1.
</event>
<event>
 7    1  0.5831876E-006  0.1006185E+03  0.7561462E-02  0.1279001E+00
          1   -1    0    0  501    0  0.00000000000E+00  0.00000000000E+00  0.15736381982E+03  0.15736381982E+03  0.00000000000E+00 0. -1.
         -1   -1    0    0    0  501 -0.00000000000E+00 -0.00000000000E+00 -0.10700842752E+03  0.10700842752E+03  0.00000000000E+00 0.  1.
         23    2    1    2    0    0 -0.23792410870E+02 -0.13546488126E+02 -0.44770753330E+02  0.10485862445E+03  0.90781741627E+02 0.  0.
          5    1    1    2  502    0  0.61139325103E+02 -0.10950879323E+02  0.96709660415E+01  0.62999514412E+02  0.41800000000E+01 0. -1.
         -5    1    1    2    0  502 -0.37346914233E+02  0.24497367449E+02  0.85455179597E+02  0.96514108474E+02  0.41800000000E+01 0. -1.
        -11    1    3    3    0    0  0.13155324424E+02  0.32514996525E+02 -0.22901368120E+02  0.41889858218E+02  0.00000000000E+00 0.  1.
         11    1    3    3    0    0 -0.36947735294E+02 -0.46061484651E+02 -0.21869385210E+02  0.62968766235E+02  0.00000000000E+00 0. -1.
</event>
<event>
 7    1  0.5831876E-006  0.1168651E+03  0.7561462E-02  0.1248360E+00
         -2   -1    0    0    0  501 -0.00000000000E+00  0.00000000000E+00  0.20486123257E+03  0.20486123257E+03  0.00000000000E+00 0.  1.
          2   -1    0    0  501    0  0.00000000000E+00 -0.00000000000E+00 -0.10805285324E+03  0.10805285324E+03  0.00000000000E+00 0. -1.
         23    2    1    2    0    0  0.56101784930E+02  0.70647982045E+02  0.90405167265E+02  0.15855344973E+03  0.93955066456E+02 0.  0.
          5    1    1    2  502    0 -0.11653558899E+01 -0.73222367944E+02  0.45894113775E+02  0.86525229273E+02  0.41800000000E+01 0.  1.
         -5    1    1    2    0  502 -0.54936429040E+02  0.25743858988E+01 -0.39490901713E+02  0.67835406806E+02  0.41800000000E+01 0.  1.
        -11    1    3    3    0    0  0.66174868961E+02  0.52512560052E+02  0.22319649200E+02  0.87377622911E+02  0.00000000000E+00 0. -1.
         11    1    3    3    0    0 -0.10073084031E+02  0.18135421993E+02  0.68085518065E+02  0.71175826816E+02  0.00000000000E+00 0.  1.
</event>
<event>
 7    1  0.5831876E-006  0.2328660E+03  0.7561462E-02  0.1124639E+00
         -1   -1    0    0    0  501 -0.00000000000E+00  0.00000000000E+00  0.11750773587E+03  0.11750773587E+03  0.00000000000E+00 0.  1.
          1   -1    0    0  501    0  0.00000000000E+00 -0.00000000000E+00 -0.57748605924E+03  0.57748605924E+03  0.00000000000E+00 0. -1.
         23    2    1    2    0    0  0.19243889203E+03  0.10575122079E+03 -0.34111339998E+03  0.41572249504E+03  0.90833877860E+02 0.  0.
          5    1    1    2  502    0 -0.52185220345E+02 -0.87844267608E+02 -0.14062658211E+02  0.10322375371E+03  0.41800000000E+01 0.  1.
         -5    1    1    2    0  502 -0.14025367169E+03 -0.17906953182E+02 -0.10480226518E+03  0.17604754636E+03  0.41800000000E+01 0.  1.
        -11    1    3    3    0    0  0.17246608302E+03  0.10523548288E+03 -0.34026340373E+03  0.39572495571E+03  0.00000000000E+00 0. -1.
         11    1    3    3    0    0  0.19972809016E+02  0.51573790571E+00 -0.84999624675E+00  0.19997539328E+02  0.00000000000E+00 0.  1.
</event>
<event>
 7    1  0.5831876E-006  0.1677481E+03  0.7561462E-02  0.1180217E+00
          2   -1    0    0  501    0  0.00000000000E+00  0.00000000000E+00  0.97831012795E+03  0.97831012795E+03  0.00000000000E+00 0. -1.
         -2   -1    0    0    0  501 -0.00000000000E+00 -0.00000000000E+00 -0.35085182232E+02  0.35085182232E+02  0.00000000000E+00 0.  1.
         23    2    1    2    0    0  0.84092875669E+02 -0.99361073173E+02  0.26866689999E+03  0.31253143940E+03  0.92464927755E+02 0.  0.
          5    1    1    2  502    0 -0.12975423002E+02  0.10973509611E+03  0.30664734015E+03  0.32597579134E+03  0.41800000000E+01 0. -1.
         -5    1    1    2    0  502 -0.71117452667E+02 -0.10374022933E+02  0.36791070558E+03  0.37488807944E+03  0.41800000000E+01 0.  1.
        -11    1    3    3    0    0 -0.67250994867E+01  0.91941019622E+01  0.55493373231E+02  0.56650445246E+02  0.00000000000E+00 0. -1.
         11    1    3    3    0    0  0.90817975156E+02 -0.10855517514E+03  0.21317352676E+03  0.25588099416E+03  0.00000000000E+00 0.  1.
</event>
<event>
 7    1  0.5831876E-006  0.1162688E+03  0.7561462E-02  0.1249382E+00
          2   -1    0    0  501    0  0.00000000000E+00  0.00000000000E+00  0.13514972164E+04  0.13514972164E+04  0.00000000000E+00 0. -1.
         -2   -1    0    0    0  501 -0.00000000000E+00 -0.00000000000E+00 -0.26901259398E+02  0.26901259398E+02  0.00000000000E+00 0.  1.
         23    2    1    2    0    0 -0.10419875801E+02 -0.94437926650E+02  0.18382946877E+03  0.22686801220E+03  0.92998524547E+02 0.  0.
          5    1    1    2  502    0  0.33032953428E+02  0.52369900108E+02  0.19692389664E+03  0.20647100503E+03  0.41800000000E+01 0.  1.
         -5    1    1    2    0  502 -0.22613077626E+02  0.42068026543E+02  0.94384259162E+03  0.94505945861E+03  0.41800000000E+01 0.  1.
        -11    1    3    3    0    0 -0.38886975458E+00 -0.10669604649E+03  0.11767849303E+03  0.15884717586E+03  0.00000000000E+00 0.  1.
         11    1    3    3    0    0 -0.10031006047E+02  0.12258119843E+02  0.66150975744E+02  0.68020836339E+02  0.00000000000E+00 0. -1.
</event>
<event>
 7    1  0.5831876E-006  0.6682974E+02  0.7561462E-02  0.1371218E+00
         -2   -1    0    0    0  501 -0.00000000000E+00  0.00000000000E+00  0.12542322666E+03  0.12542322666E+03  0.00000000000E+00 0.  1.
          2   -1    0    0  501    0  0.00000000000E+00 -0.00000000000E+00 -0.98954554824E+02  0.98954554824E+02  0.00000000000E+00 0. -1.
         23    2    1    2    0    0  0.17604526749E+02  0.15230575945E+02  0.45635892575E+02  0.10638920359E+03  0.93242362388E+02 0.  0.
          5    1    1    2  502    0  0.91767477433E+01  0.21888647428E+02 -0.54777994885E+02  0.59845022424E+02  0.41800000000E+01 0. -1.
         -5    1    1    2    0  502 -0.26781274492E+02 -0.37119223373E+02  0.35610774142E+02  0.58143555466E+02  0.41800000000E+01 0.  1.
        -11    1    3    3    0    0 -0.15319663481E+02  0.24941690389E+02  0.61849528232E+02  0.68426194920E+02  0.00000000000E+00 0. -1.
         11    1    3    3    0    0  0.32924190230E+02 -0.97111144441E+01 -0.16213635658E+02  0.37963008670E+02  0.00000000000E+00 0.  1.
</event>
<event>
 7    1  0.5831876E-006  0.1419038E+03  0.7561462E-02  0.1210790E+00
          1   -1    0    0  501    0  0.00000000000E+00  0.00000000000E+00  0.46797900776E+03  0.46797900776E+03  0.00000000000E+00 0. -1.
         -1   -1    0    0    0  501 -0.00000000000E+00 -0.00000000000E+00 -0.47142960030E+02  0.47142960030E+02  0.00000000000E+00 0.  1.
         23    2    1    2    0    0 -0.95040483651E+02 -0.33994072869E+02  0.18461037839E+03  0.22939831092E+03  0.91401874818E+02 0.  0.
          5    1    1    2  502    0 -0.29872466150E+02  0.13936498113E+02  0.37451655785E+02  0.50066846661E+02  0.41800000000E+01 0. -1.
         -5    1    1    2    0  502  0.12491294980E+03  0.20057574756E+02  0.19877401356E+03  0.23565681021E+03  0.41800000000E+01 0. -1.
        -11    1    3    3    0    0 -0.64567037493E+02  0.15012694350E+02  0.14491028469E+03  0.15935267156E+03  0.00000000000E+00 0. -1.
         11    1    3    3    0    0 -0.30473446159E+02 -0.49006767219E+02  0.39700093692E+02  0.70045639359E+02  0.00000000000E+00 0.  1.
</event>
<event>
 7    1  0.5831876E-006  0.1743115E+03  0.7561462E-02  0.1173425E+00
          2   -1    0    0  501    0  0.00000000000E+00  0.00000000000E+00  0.13882249531E+04  0.13882249531E+04  0.00000000000E+00 0. -1.
         -2   -1    0    0    0  501 -0.00000000000E+00 -0.00000000000E+00 -0.41252074093E+02  0.41252074093E+02  0.00000000000E+00 0.  1.
         23    2    1    2    0    0 -0.15672240770E+03  0.13075843486E+02  0.22480466780E+03  0.28945903510E+03  0.92284904372E+02 0.  0.
          5    1    1    2  502    0  0.13491592743E+03  0.33674171758E+02  0.63229779665E+03  0.64742121788E+03  0.41800000000E+01 0.  1.
         -5    1    1    2    0  502  0.21806480274E+02 -0.46750015244E+02  0.48987041454E+03  0.49259677420E+03  0.41800000000E+01 0.  1.
        -11    1    3    3    0    0 -0.66932494939E+02  0.11717535133E+02  0.17281691983E+03  0.18569584618E+03  0.00000000000E+00 0. -1.
         11    1    3    3    0    0 -0.89789912763E+02  0.13583083525E+01  0.51987747974E+02  0.10376318892E+03  0.00000000000E+00 0.  1.
</event>
<event>
 7    1  0.5831876E-006  0.8472515E+02  0.7561462E-02  0.1316153E+00
         -2   -1    0    0    0  501 -0.00000000000E+00  0.00000000000E+00  0.29243875383E+02  0.29243875383E+02  0.00000000000E+00 0.  1.
          2   -1    0    0  501    0  0.00000000000E+00 -0.00000000000E+00 -0.62183154554E+03  0.62183154554E+03  0.00000000000E+00 0. -1.
         23    2    1    2    0    0  0.13401993704E+02 -0.59313093025E+02 -0.14048977462E+03  0.17806582624E+03  0.90952763916E+02 0.  0.
          5    1    1    2  502    0 -0.32993899870E+02  0.50070606097E+02 -0.44612083369E+03  0.45015212281E+03  0.41800000000E+01 0.  1.
         -5    1    1    2    0  502  0.19591906166E+02  0.92424869277E+01 -0.59770618549E+01  0.22857471869E+02  0.41800000000E+01 0.  1.
        -11    1    3    3    0    0 -0.21428461684E+02 -0.44575688175E+02 -0.22823557183E+02  0.54470962071E+02  0.00000000000E+00 0.  1.
         11    1    3    3    0    0  0.34830455388E+02 -0.14737404849E+02 -0.11766621744E+03  0.12359486417E+03  0.00000000000E+00 0. -1.
</event>
<event>
 7    1  0.5831876E-006  0.1065080E+03  0.7561462E-02  0.1267177E+00
          2   -1    0    0  501    0  0.00000000000E+00  0.00000000000E+00  0.34289859117E+03  0.34289859117E+03  0.00000000000E+00 0. -1.
         -2   -1    0    0    0  501 -0.00000000000E+00 -0.00000000000E+00 -0.35465344902E+02  0.35465344902E+02  0.00000000000E+00 0.  1.
         23    2    1    2    0    0 -0.14555182679E+02  0.13372216212E+02  0.11343032059E+03  0.14668528450E+03  0.90881601821E+02 0.  0.
          5    1    1    2  502    0  0.62760238932E+02  0.15469343287E+02  0.69382305405E+02  0.94918517033E+02  0.41800000000E+01 0.  1.
         -5    1    1    2    0  502 -0.48205056253E+02 -0.28841559499E+02  0.12462062027E+03  0.13676013454E+03  0.41800000000E+01 0.  1.
        -11    1    3    3    0    0 -0.26126089260E+00  0.51341408879E+02  0.52068733073E+02  0.73124287940E+02  0.00000000000E+00 0.  1.
         11    1    3    3    0    0 -0.14293921786E+02 -0.37969192667E+02  0.61361587521E+02  0.73560996560E+02  0.00000000000E+00 0. -1.
</event>
<event>
 7    1  0.5831876E-006  0.8550130E+02  0.7561462E-02  0.1314127E+00
          2   -1    0    0  501    0  0.00000000000E+00  0.00000000000E+00  0.28561670751E+03  0.28561670751E+03  0.00000000000E+00 0. -1.
         -2   -1    0    0    0  501 -0.00000000000E+00 -0.00000000000E+00 -0.52516008004E+02  0.52516008004E+02  0.00000000000E+00 0.  1.
         23    2    1    2    0    0 -0.28915321034E+02 -0.49868547204E+01  0.30738525284E+02  0.98429627555E+02  0.88783839371E+02 0.  0.
          5    1    1    2  502    0  0.59961901111E+02 -0.25566153217E+01  0.35704263269E+02  0.69958792745E+02  0.41800000000E+01 0.  1.
         -5    1    1    2    0  502 -0.31046580077E+02  0.75434700421E+01  0.16665791095E+03  0.16974429521E+03  0.41800000000E+01 0.  1.
        -11    1    3    3    0    0 -0.32162324990E+01  0.32780012204E+02 -0.12787040696E+02  0.35332446297E+02  0.00000000000E+00 0.  1.
         11    1    3    3    0    0 -0.25699088535E+02 -0.37766866924E+02  0.43525565980E+02  0.63097181258E+02  0.00000000000E+00 0. -1.
</event>
<event>
 7    1  0.5831876E-006  0.1868005E+03  0.7561462E-02  0.1161379E+00
         -2   -1    0    0    0  501 -0.00000000000E+00  0.00000000000E+00  0.12826920605E+03  0.12826920605E+03  0.00000000000E+00 0.  1.
          2   -1    0    0  501    0  0.00000000000E+00 -0.00000000000E+00 -0.31931392742E+03  0.31931392742E+03  0.00000000000E+00 0. -1.
         23    2    1    2    0    0 -0.74094535255E+01 -0.16032101274E+03 -0.27777186840E+02  0.18669796332E+03  0.91251467226E+02 0.  0.
          5    1    1    2  502    0  0.54833567879E+02  0.66369777776E+02 -0.11828325435E+03  0.14635596410E+03  0.41800000000E+01 0. -1.
         -5    1    1    2    0  502 -0.47424114354E+02  0.93951234966E+02 -0.44984280187E+02  0.11452920605E+03  0.41800000000E+01 0. -1.
        -11    1    3    3    0    0 -0.39022831042E+02 -0.13793007745E+03 -0.89431045368E+01  0.14362265395E+03  0.00000000000E+00 0. -1.
         11    1    3    3    0    0  0.31613377516E+02 -0.22390935287E+02 -0.18834082303E+02  0.43075309369E+02  0.00000000000E+00 0.  1.
</event>
<event>
 7    1  0.5831876E-006  0.1279054E+03  0.7561462E-02  0.1230597E+00
         -2   -1    0    0    0  501 -0.00000000000E+00  0.00000000000E+00  0.11759589320E+03  0.11759589320E+03  0.00000000000E+00 0.  1.
          2   -1    0    0  501    0  0.00000000000E+00 -0.00000000000E+00 -0.36862923932E+03  0.36862923932E+03  0.00000000000E+00 0. -1.
         23    2    1    2    0    0 -0.15695359599E+01 -0.93876894101E+02  0.54590261887E+02  0.14290449928E+03  0.92877685865E+02 0.  0.
          5    1    1    2  502    0  0.37229466878E+02  0.20786459828E+02 -0.21849463772E+02  0.48093467158E+02  0.41800000000E+01 0. -1.
         -5    1    1    2    0  502 -0.35659930918E+02  0.73090434273E+02 -0.28377414424E+03  0.29522716609E+03  0.41800000000E+01 0. -1.
        -11    1    3    3    0    0 -0.40886841514E+02 -0.15274348701E+02  0.24227500749E+02  0.49920049376E+02  0.00000000000E+00 0.  1.
         11    1    3    3    0    0  0.39317305554E+02 -0.78602545401E+02  0.30362761138E+02  0.92984449901E+02  0.00000000000E+00 0. -1.
</event>
<event>
 7    1  0.5831876E-006  0.1067435E+03  0.7561462E-02  0.1266722E+00
         -2   -1    0    0    0  501 -0.00000000000E+00  0.00000000000E+00  0.17993230733E+03  0.17993230733E+03  0.00000000000E+00 0.  1.
          2   -1    0    0  501    0  0.00000000000E+00 -0.00000000000E+00 -0.91082977432E+02  0.91082977432E+02  0.00000000000E+00 0. -1.
         23    2    1    2    0    0 -0.22033247018E+02  0.25313859401E+02  0.52976835855E+02  0.11040448005E+03  0.90864451942E+02 0.  0.
          5    1    1    2  502    0 -0.31096074967E+02  0.27425408569E+02 -0.37239696055E+02  0.55887263985E+02  0.41800000000E+01 0. -1.
         -5    1    1    2    0  502  0.53129321985E+02 -0.52739267970E+02  0.73112190096E+02  0.10472354072E+03  0.41800000000E+01 0.  1.
        -11    1    3    3    0    0 -0.47606822044E+02 -0.14279962611E+02  0.25892968538E+02  0.56042596808E+02  0.00000000000E+00 0. -1.
         11    1    3    3    0    0  0.25573575026E+02  0.39593822012E+02  0.27083867317E+02  0.54361883245E+02  0.00000000000E+00 0.  1.
</event>
<event>
 7    1  0.5831876E-006  0.1151598E+03  0.7561462E-02  0.1251302E+00
         -2   -1    0    0    0  501 -0.00000000000E+00  0.00000000000E+00  0.10384893084E+02  0.10384893084E+02  0.00000000000E+00 0.  1.
          2   -1    0    0  501    0  0.00000000000E+00 -0.00000000000E+00 -0.13562977719E+04  0.13562977719E+04  0.00000000000E+00 0. -1.
         23    2    1    2    0    0 -0.27062042285E+01 -0.48271854772E+02 -0.48222939786E+03  0.49264939764E+03  0.88434955366E+02 0.  0.
          5    1    1    2  502    0  0.59065999814E+02  0.70378435600E+01 -0.51186931109E+03  0.51533094960E+03  0.41800000000E+01 0.  1.
         -5    1    1    2    0  502 -0.56359795585E+02  0.41234011212E+02 -0.35181416986E+03  0.35870231774E+03  0.41800000000E+01 0.  1.
        -11    1    3    3    0    0 -0.45488766724E+02 -0.27704852538E+02 -0.24668431750E+03  0.25236865743E+03  0.00000000000E+00 0.  1.
         11    1    3    3    0    0  0.42782562496E+02 -0.20567002234E+02 -0.23554508036E+03  0.24028074021E+03  0.00000000000E+00 0. -1.
</event>
<event>
 7    1  0.5831876E-006  0.1060662E+03  0.7561462E-02  0.1268033E+00
          2   -1    0    0  501    0  0.00000000000E+00  0.00000000000E+00  0.72355349158E+02  0.72355349158E+02  0.00000000000E+00 0. -1.
         -2   -1    0    0    0  501 -0.00000000000E+00 -0.00000000000E+00 -0.23468100154E+03  0.23468100154E+03  0.00000000000E+00 0.  1.
         23    2    1    2    0    0 -0.36897340623E+02 -0.15289634424E+02 -0.14288504233E+03  0.17430301273E+03  0.91488896926E+02 0.  0.
          5    1    1    2  502    0 -0.34745470604E+02  0.22149901095E+02  0.24679563239E+02  0.48212229649E+02  0.41800000000E+01 0.  1.
         -5    1    1    2    0  502  0.71642811227E+02 -0.68602666712E+01 -0.44120173288E+02  0.84521108312E+02  0.41800000000E+01 0.  1.
        -11    1    3    3    0    0 -0.24738592964E+02  0.37238548657E+02 -0.78361986417E+02  0.90218115715E+02  0.00000000000E+00 0.  1.
         11    1    3    3    0    0 -0.12158747658E+02 -0.52528183081E+02 -0.64523055912E+02  0.84084897019E+02  0.00000000000E+00 0. -1.
</event>
<event>
 7    1  0.5831876E-006  0.1369149E+03  0.7561462E-02  0.1217542E+00
         -2   -1    0    0    0  501 -0.00000000000E+00  0.00000000000E+00  0.16775689998E+02  0.16775689998E+02  0.00000000000E+00 0.  1.
          2   -1    0    0  501    0  0.00000000000E+00 -0.00000000000E+00 -0.15704416306E+04  0.15704416306E+04  0.00000000000E+00 0. -1.
         23    2    1    2    0    0  0.99509985581E+02  0.34596591042E+02 -0.43943811694E+03  0.46105157705E+03  0.91452374153E+02 0.  0.
          5    1    1    2  502    0 -0.78945129199E+02 -0.66536612574E+02 -0.10078170962E+04  0.10131003040E+04  0.41800000000E+01 0. -1.
         -5    1    1    2    0  502 -0.20564856382E+02  0.31940021532E+02 -0.10641072741E+03  0.11306543947E+03  0.41800000000E+01 0. -1.
        -11    1    3    3    0    0  0.72561478160E+02 -0.16592236289E+02 -0.31719386772E+03  0.32581040520E+03  0.00000000000E+00 0. -1.
         11    1    3    3    0    0  0.26948507420E+02  0.51188827331E+02 -0.12224424922E+03  0.13524117185E+03  0.00000000000E+00 0.  1.
</event>
<event>
 7    1  0.5831876E-006  0.9656030E+02  0.7561462E-02  0.1287700E+00
         -3   -1    0    0    0  501 -0.00000000000E+00  0.00000000000E+00  0.22753401948E+03  0.22753401948E+03  0.00000000000E+00 0.  1.
          3   -1    0    0  501    0  0.00000000000E+00 -0.00000000000E+00 -0.51193231538E+02  0.51193231538E+02  0.00000000000E+00 0. -1.
         23    2    1    2    0    0 -0.10107564515E+02 -0.21801101494E+01  0.11419144063E+03  0.14784979528E+03  0.93343243524E+02 0.  0.
          5    1    1    2  502    0 -0.38104258123E+02  0.24946798579E+02 -0.38877157862E+01  0.45900588019E+02  0.41800000000E+01 0. -1.
         -5    1    1    2    0  502  0.48211822638E+02 -0.22766688429E+02  0.66037063100E+02  0.84976867717E+02  0.41800000000E+01 0.  1.
        -11    1    3    3    0    0 -0.30626833670E+02  0.37989375195E+02  0.60409243102E+02  0.77656115152E+02  0.00000000000E+00 0. -1.
         11    1    3    3    0    0  0.20519269155E+02 -0.40169485344E+02  0.53782197525E+02  0.70193680129E+02  0.00000000000E+00 0.  1.
</event>
<event>
 7    1  0.5831876E-006  0.1319293E+03  0.7561462E-02  0.1224621E+00
          1   -1    0    0  501    0  0.00000000000E+00  0.00000000000E+00  0.40418553451E+03  0.40418553451E+03  0.00000000000E+00 0. -1.
         -1   -1    0    0    0  501 -0.00000000000E+00 -0.00000000000E+00 -0.57909758068E+02  0.57909758068E+02  0.00000000000E+00 0.  1.
         23    2    1    2    0    0  0.93595621677E+02  0.51011998119E+02  0.14067335709E+03  0.19888089474E+03  0.91663801724E+02 0.  0.
          5    1    1    2  502    0 -0.30657798954E+02  0.37356321849E+02  0.30862885938E+02  0.57492482528E+02  0.41800000000E+01 0.  1.
         -5    1    1    2    0  502 -0.62937822724E+02 -0.88368319968E+02  0.17473953341E+03  0.20572191531E+03  0.41800000000E+01 0.  1.
        -11    1    3    3    0    0  0.32235259735E+02  0.14186640939E+02 -0.59572535535E+01  0.35719205215E+02  0.00000000000E+00 0.  1.
         11    1    3    3    0    0  0.61360361943E+02  0.36825357180E+02  0.14663061065E+03  0.16316168952E+03  0.00000000000E+00 0. -1.
</event>
<event>
 7    1  0.5831876E-006  0.1074528E+03  0.7561462E-02  0.1265361E+00
          1   -1    0    0  501    0  0.00000000000E+00  0.00000000000E+00  0.61228758872E+03  0.61228758872E+03  0.00000000000E+00 0. -1.
         -1   -1    0    0    0  501 -0.00000000000E+00 -0.00000000000E+00 -0.27356210671E+02  0.27356210671E+02  0.00000000000E+00 0.  1.
         23    2    1    2    0    0 -0.43149753183E+02 -0.15761462252E+02  0.12860577862E+03  0.16425835737E+03  0.91274513299E+02 0.  0.
          5    1    1    2  502    0 -0.37391842016E+02  0.27075916413E+02  0.23555532658E+03  0.24007298761E+03  0.41800000000E+01 0. -1.
         -5    1    1    2    0  502  0.80541595199E+02 -0.11314454161E+02  0.22077027284E+03  0.23531245441E+03  0.41800000000E+01 0. -1.
        -11    1    3    3    0    0  0.35624019937E+01  0.24916739647E+02  0.84630409555E+02  0.88294058940E+02  0.00000000000E+00 0. -1.
         11    1    3    3    0    0 -0.46712155177E+02 -0.40678201899E+02  0.43975369068E+02  0.75964298428E+02  0.00000000000E+00 0.  1.
</event>
<event>
 7    1  0.5831876E-006  0.1807461E+03  0.7561462E-02  0.1167083E+00
          4   -1    0    0  501    0  0.00000000000E+00  0.00000000000E+00  0.31229122355E+03  0.31229122355E+03  0.00000000000E+00 0. -1.
         -4   -1    0    0    0  501 -0.00000000000E+00 -0.00000000000E+00 -0.12459269858E+03  0.12459269858E+03  0.00000000000E+00 0.  1.
         23    2    1    2    0    0  0.15432519012E+03 -0.53136991185E+02  0.10743477066E+03  0.21618361811E+03  0.92484175150E+02 0.  0.
          5    1    1    2  502    0 -0.54920785039E+02  0.70625629678E+02  0.79380569903E+02  0.11967881799E+03  0.41800000000E+01 0.  1.
         -5    1    1    2    0  502 -0.99404405080E+02 -0.17488638493E+02  0.88318440244E+00  0.10102148603E+03  0.41800000000E+01 0.  1.
        -11    1    3    3    0    0  0.81750872587E+02 -0.13649310938E+01  0.96323313672E+02  0.12634575166E+03  0.00000000000E+00 0. -1.
         11    1    3    3    0    0  0.72574317532E+02 -0.51772060092E+02  0.11111456989E+02  0.89837866447E+02  0.00000000000E+00 0.  1.
</event>
<event>
 7    1  0.5831876E-006  0.1044412E+03  0.7561462E-02  0.1271224E+00
         -4   -1    0    0    0  501 -0.00000000000E+00  0.00000000000E+00  0.17939584950E+03  0.17939584950E+03  0.00000000000E+00 0.  1.
          4   -1    0    0  501    0  0.00000000000E+00 -0.00000000000E+00 -0.76086188713E+02  0.76086188713E+02  0.00000000000E+00 0. -1.
         23    2    1    2    0    0 -0.18288269284E+02  0.10737620492E+02  0.84981794566E+02  0.12728403404E+03  0.92355631268E+02 0.  0.
          5    1    1    2  502    0  0.76815393644E+01  0.57166107783E+02  0.11915495836E+02  0.59045925915E+02  0.41800000000E+01 0. -1.
         -5    1    1    2    0  502  0.10606729919E+02 -0.67903728275E+02  0.64123703843E+01  0.69152078257E+02  0.41800000000E+01 0. -1.
        -11    1    3    3    0    0 -0.34283818241E+02  0.37630946396E+02  0.81100341981E+02  0.95753505362E+02  0.00000000000E+00 0.  1.
         11    1    3    3    0    0  0.15995548957E+02 -0.26893325903E+02  0.38814525858E+01  0.31530528679E+02  0.00000000000E+00 0. -1.
</event>
<event>
 7    1  0.5831876E-006  0.3196511E+03  0.7561462E-02  0.1075810E+00
          2   -1    0    0  501    0  0.00000000000E+00  0.00000000000E+00  0.19306010184E+04  0.19306010184E+04  0.00000000000E+00 0. -1.
         -2   -1    0    0    0  501 -0.00000000000E+00 -0.00000000000E+00 -0.91020986785E+02  0.91020986785E+02  0.00000000000E+00 0.  1.
         23    2    1    2    0    0  0.13281669316E+03  0.28303703379E+03  0.29110487212E+03  0.43695386927E+03  0.91849881997E+02 0.  0.
          5    1    1    2  502    0 -0.11067815615E+02 -0.62764830748E+02  0.14005078104E+03  0.15392730165E+03  0.41800000000E+01 0.  1.
         -5    1    1    2    0  502 -0.12174887754E+03 -0.22027220304E+03  0.14084243784E+04  0.14307408342E+04  0.41800000000E+01 0.  1.
        -11    1    3    3    0    0  0.11702665139E+01  0.90324511515E+02  0.59589108916E+02  0.10821621323E+03  0.00000000000E+00 0.  1.
         11    1    3    3    0    0  0.13164642664E+03  0.19271252227E+03  0.23151576320E+03  0.32873765604E+03  0.00000000000E+00 0. -1.
</event>
<event>
 6    1  0.5831876E-006  0.4979204E+02  0.7561462E-02  0.1446466E+00
         -2   -1    0    0    0  501 -0.00000000000E+00  0.00000000000E+00  0.45024024433E+02  0.45024024433E+02  0.00000000000E+00 0. -1.
          2   -1    0    0  501    0  0.00000000000E+00 -0.00000000000E+00 -0.16664058887E+03  0.16664058887E+03  0.00000000000E+00 0.  1.
          5    1    1    2  502    0  0.27472626835E+02  0.21394991725E+02 -0.12788623399E+03  0.13260788868E+03  0.41800000000E+01 0.  1.
         -5    1    1    2    0  502 -0.28422021390E+02 -0.16925165524E+02  0.14430278351E+02  0.36331499573E+02  0.41800000000E+01 0.  1.
        -11    1    1    2    0    0 -0.14104698990E+00  0.13333235838E+02  0.10454827475E+02  0.16943980928E+02  0.00000000000E+00 0. -1.
         11    1    1    2    0    0  0.10904415451E+01 -0.17803062039E+02 -0.18615436269E+02  0.25781244117E+02  0.00000000000E+00 0.  1.
</event>
<event>
 7    1  0.5831876E-006  0.1339851E+03  0.7561462E-02  0.1221660E+00
          2   -1    0    0  501    0  0.00000000000E+00  0.00000000000E+00  0.35163996262E+03  0.35163996262E+03  0.00000000000E+00 0. -1.
         -2   -1    0    0    0  501 -0.00000000000E+00 -0.00000000000E+00 -0.59284649279E+02  0.59284649279E+02  0.00000000000E+00 0.  1.
         23    2    1    2    0    0 -0.35509594373E+02 -0.86531986270E+02  0.11234059809E+03  0.17259801388E+03  0.91765726038E+02 0.  0.
          5    1    1    2  502    0 -0.25506195046E+02  0.76670669313E+02  0.52191359624E+02  0.96282749951E+02  0.41800000000E+01 0.  1.
         -5    1    1    2    0  502  0.61015789419E+02  0.98613169567E+01  0.12782335563E+03  0.14204384807E+03  0.41800000000E+01 0.  1.
        -11    1    3    3    0    0  0.26196830139E+01  0.15743293437E+02 -0.47038297850E-02  0.15959763452E+02  0.00000000000E+00 0. -1.
         11    1    3    3    0    0 -0.38129277387E+02 -0.10227527971E+03  0.11234530192E+03  0.15663825043E+03  0.00000000000E+00 0.  1.
</event>
<event>
 7    1  0.5831876E-006  0.6640275E+02  0.7561462E-02  0.1372771E+00
          1   -1    0    0  501    0  0.00000000000E+00  0.00000000000E+00  0.11519295748E+03  0.11519295748E+03  0.00000000000E+00 0. -1.
         -1   -1    0    0    0  501 -0.00000000000E+00 -0.00000000000E+00 -0.13401958655E+03  0.13401958655E+03  0.00000000000E+00 0.  1.
         23    2    1    2    0    0 -0.77354445146E+01  0.12588670633E+02 -0.68640818697E+02  0.11376491304E+03  0.89513025412E+02 0.  0.
          5    1    1    2  502    0  0.20359111732E+02  0.15830005292E+02  0.84635297081E+02  0.88575890681E+02  0.41800000000E+01 0.  1.
         -5    1    1    2    0  502 -0.12623667217E+02 -0.28418675924E+02 -0.34821107451E+02  0.46871740307E+02  0.41800000000E+01 0.  1.
        -11    1    3    3    0    0 -0.40133408667E+02  0.14932010844E+02 -0.60488654647E+01  0.43246320219E+02  0.00000000000E+00 0. -1.
         11    1    3    3    0    0  0.32397964152E+02 -0.23433402118E+01 -0.62591953232E+02  0.70518592825E+02  0.00000000000E+00 0.  1.
</event>
<event>
 7    1  0.5831876E-006  0.9957230E+02  0.7561462E-02  0.1281198E+00
         -4   -1    0    0    0  501 -0.00000000000E+00  0.00000000000E+00  0.23375130478E+03  0.23375130478E+03  0.00000000000E+00 0. -1.
          4   -1    0    0  501    0  0.00000000000E+00 -0.00000000000E+00 -0.80123271359E+02  0.80123271359E+02  0.00000000000E+00 0.  1.
         23    2    1    2    0    0 -0.29203199924E+01  0.81523356044E+02  0.51524207727E+02  0.13296723854E+03  0.91492932485E+02 0.  0.
          5    1    1    2  502    0  0.17930287455E+02 -0.70573065894E+02 -0.40608942949E+01  0.73048039675E+02  0.41800000000E+01 0. -1.
         -5    1    1    2    0  502 -0.15009967462E+02 -0.10950290151E+02  0.10616471999E+03  0.10785929792E+03  0.41800000000E+01 0. -1.
        -11    1    3    3    0    0  0.33070833809E+02  0.32678706610E+02 -0.89019375915E+01  0.47337325731E+02  0.00000000000E+00 0.  1.
         11    1    3    3    0    0 -0.35991153801E+02  0.48844649434E+02  0.60426145318E+02  0.85629912813E+02  0.00000000000E+00 0. -1.
</event>
<event>
 7    1  0.5831876E-006  0.8911424E+02  0.7561462E-02  0.1305011E+00
          1   -1    0    0  501    0  0.00000000000E+00  0.00000000000E+00  0.19047167448E+03  0.19047167448E+03  0.00000000000E+00 0. -1.
         -1   -1    0    0    0  501 -0.00000000000E+00 -0.00000000000E+00 -0.21142372549E+03  0.21142372549E+03  0.00000000000E+00 0.  1.
         23    2    1    2    0    0 -0.23094235565E+02  0.21436418635E+02 -0.17616953581E+03  0.20007345953E+03  0.89447303482E+02 0.  0.
          5    1    1    2  502    0 -0.17156371547E+02  0.30305743658E+02  0.12442698363E+03  0.12927616114E+03  0.41800000000E+01 0. -1.
         -5    1    1    2    0  502  0.40250607112E+02 -0.51742162292E+02  0.30790501168E+02  0.72545779296E+02  0.41800000000E+01 0. -1.
        -11    1    3    3    0    0  0.91695533369E+01 -0.21723727521E+02 -0.11977072883E+03  0.12206976911E+03  0.00000000000E+00 0.  1.
         11    1    3    3    0    0 -0.32263788902E+02  0.43160146156E+02 -0.56398806984E+02  0.78003690424E+02  0.00000000000E+00 0. -1.
</event>
<event>
 7    1  0.5831876E-006  0.8689247E+02  0.7561462E-02  0.1310556E+00
          1   -1    0    0  501    0  0.00000000000E+00  0.00000000000E+00  0.21453112262E+03  0.21453112262E+03  0.00000000000E+00 0. -1.
         -1   -1    0    0    0  501 -0.00000000000E+00 -0.00000000000E+00 -0.86645957761E+02  0.86645957761E+02  0.00000000000E+00 0.  1.
         23    2    1    2    0    0 -0.57707649872E+02 -0.24365425645E+02  0.50545938710E+00  0.11197577917E+03  0.92814184320E+02 0.  0.
          5    1    1    2  502    0  0.62695449019E+02  0.37863251419E+02  0.14713277741E+03  0.16440763888E+03  0.41800000000E+01 0. -1.
         -5    1    1    2    0  502 -0.49877991470E+01 -0.13497825775E+02 -0.19753071932E+02  0.24793662330E+02  0.41800000000E+01 0. -1.
        -11    1    3    3    0    0 -0.38757909742E+02 -0.43669706392E+02  0.35049466810E+02  0.68100542932E+02  0.00000000000E+00 0. -1.
         11    1    3    3    0    0 -0.18949740130E+02  0.19304280748E+02 -0.34544007423E+02  0.43875236239E+02  0.00000000000E+00 0.  1.
</event>
<event>
 7    1  0.5831876E-006  0.3621100E+03  0.7561462E-02  0.1057752E+00
         -3   -1    0    0    0  501 -0.00000000000E+00  0.00000000000E+00  0.24886051018E+03  0.24886051018E+03  0.00000000000E+00 0.  1.
          3   -1    0    0  501    0  0.00000000000E+00 -0.00000000000E+00 -0.84963036905E+03  0.84963036905E+03  0.00000000000E+00 0. -1.
         23    2    1    2    0    0 -0.24551045226E+03  0.25299397176E+03  0.29329732497E+02  0.36571876395E+03  0.92782806467E+02 0.  0.
          5    1    1    2  502    0  0.82406255833E+02 -0.15784424447E+03 -0.23520622029E+03  0.29503395564E+03  0.41800000000E+01 0. -1.
         -5    1    1    2    0  502  0.16310419643E+03 -0.95149727287E+02 -0.39489337107E+03  0.43773815965E+03  0.41800000000E+01 0. -1.
        -11    1    3    3    0    0 -0.10667774134E+03  0.15136515207E+03  0.51584600502E+02  0.19223038461E+03  0.00000000000E+00 0.  1.
         11    1    3    3    0    0 -0.13883271092E+03  0.10162881969E+03 -0.22254868005E+02  0.17348837933E+03  0.00000000000E+00 0. -1.
</event>
<event>
 7    1  0.5831876E-006  0.9497789E+02  0.7561462E-02  0.1291226E+00
         -1   -1    0    0    0  501 -0.00000000000E+00  0.00000000000E+00  0.41037378732E+02  0.41037378732E+02  0.00000000000E+00 0.  1.
          1   -1    0    0  501    0  0.00000000000E+00 -0.00000000000E+00 -0.44681717640E+03  0.44681717640E+03  0.00000000000E+00 0. -1.
         23    2    1    2    0    0  0.39816206590E+02 -0.31783978972E+02 -0.64265014403E+02  0.12128236663E+03  0.89352497179E+02 0.  0.
          5    1    1    2  502    0 -0.15208195519E+02 -0.42685778868E+02 -0.66631063166E+02  0.80687891949E+02  0.41800000000E+01 0. -1.
         -5    1    1    2    0  502 -0.24608011071E+02  0.74469757840E+02 -0.27488372010E+03  0.28588429656E+03  0.41800000000E+01 0.  1.
        -11    1    3    3    0    0  0.31010953706E+02 -0.42135974721E+02  0.32449917831E+01  0.52418027311E+02  0.00000000000E+00 0.  1.
         11    1    3    3    0    0  0.88052528844E+01  0.10351995749E+02 -0.67510006186E+02  0.68864339317E+02  0.00000000000E+00 0. -1.
</event>
<event>
 7    1  0.5831876E-006  0.5786372E+02  0.7561462E-02  0.1407022E+00
          2   -1    0    0  501    0  0.00000000000E+00  0.00000000000E+00  0.81136469042E+03  0.81136469042E+03  0.00000000000E+00 0.  1.
         -2   -1    0    0    0  501 -0.00000000000E+00 -0.00000000000E+00 -0.24239384349E+02  0.24239384349E+02  0.00000000000E+00 0. -1.
         23    2    1    2    0    0 -0.19220982515E+02 -0.10724183596E+02  0.99314388440E+02  0.13616423307E+03  0.90514619453E+02 0.  0.
          5    1    1    2  502    0 -0.91727257648E+01  0.17531883747E+02  0.13123959870E+02  0.24108433552E+02  0.41800000000E+01 0. -1.
         -5    1    1    2    0  502  0.28393708279E+02 -0.68077001507E+01  0.67468695776E+03  0.67533140815E+03  0.41800000000E+01 0. -1.
        -11    1    3    3    0    0 -0.29543061709E+01 -0.35907081251E+02  0.40042560724E+01  0.36250247939E+02  0.00000000000E+00 0. -1.
         11    1    3    3    0    0 -0.16266676344E+02  0.25182897655E+02  0.95310132368E+02  0.99913985135E+02  0.00000000000E+00 0.  1.
</event>
<event>
 7    1  0.5831876E-006  0.1148263E+03  0.7561462E-02  0.1251885E+00
          1   -1    0    0  501    0  0.00000000000E+00  0.00000000000E+00  0.12692732242E+04  0.12692732242E+04  0.00000000000E+00 0. -1.
         -1   -1    0    0    0  501 -0.00000000000E+00 -0.00000000000E+00 -0.14064514319E+02  0.14064514319E+02  0.00000000000E+00 0.  1.
         23    2    1    2    0    0  0.10176031668E+02 -0.64590065010E+01  0.32350155290E+03  0.34319535487E+03  0.11394966649E+03 0.  0.
          5    1    1    2  502    0 -0.90014914310E+01  0.60779409384E+02  0.31041746014E+03  0.31646743183E+03  0.41800000000E+01 0. -1.
         -5    1    1    2    0  502 -0.11745402371E+01 -0.54320402883E+02  0.62128969686E+03  0.62367495183E+03  0.41800000000E+01 0. -1.
        -11    1    3    3    0    0  0.50123489686E+02 -0.37817170644E+02  0.20116379616E+03  0.21073532096E+03  0.00000000000E+00 0.  1.
         11    1    3    3    0    0 -0.39947458018E+02  0.31358164143E+02  0.12233775674E+03  0.13246003391E+03  0.00000000000E+00 0. -1.
</event>
<event>
 7    1  0.5831876E-006  0.2504700E+03  0.7561462E-02  0.1113008E+00
         -3   -1    0    0    0  501 -0.00000000000E+00  0.00000000000E+00  0.13094338175E+03  0.13094338175E+03  0.00000000000E+00 0.  1.
          3   -1    0    0  501    0  0.00000000000E+00 -0.00000000000E+00 -0.56983485072E+03  0.56983485072E+03  0.00000000000E+00 0. -1.
         23    2    1    2    0    0 -0.24807683112E+03 -0.92989430869E+01 -0.17223666726E+03  0.31558814947E+03  0.91114357018E+02 0.  0.
          5    1    1    2  502    0  0.32078683089E+02  0.16928981643E+02 -0.11623044683E+03  0.12183029795E+03  0.41800000000E+01 0.  1.
         -5    1    1    2    0  502  0.21599814803E+03 -0.76300385562E+01 -0.15042435488E+03  0.26335978505E+03  0.41800000000E+01 0.  1.
        -11    1    3    3    0    0 -0.23123059815E+03 -0.90214362126E+01 -0.11993636544E+03  0.26064095531E+03  0.00000000000E+00 0.  1.
         11    1    3    3    0    0 -0.16846232974E+02 -0.27750687431E+00 -0.52300301817E+02  0.54947194156E+02  0.00000000000E+00 0. -1.
</event>
<event>
 7    1  0.5831876E-006  0.1609560E+03  0.7561462E-02  0.1187622E+00
         -1   -1    0    0    0  501 -0.00000000000E+00  0.00000000000E+00  0.71593805926E+02  0.71593805926E+02  0.00000000000E+00 0.  1.
          1   -1    0    0  501    0  0.00000000000E+00 -0.00000000000E+00 -0.70625171151E+03  0.70625171151E+03  0.00000000000E+00 0. -1.
         23    2    1    2    0    0  0.13943437143E+03  0.19527972816E+02 -0.68365434031E+02  0.18105528403E+03  0.91015919738E+02 0.  0.
          5    1    1    2  502    0 -0.27212341508E+02 -0.56516988732E+02 -0.12479833933E+03  0.13973825334E+03  0.41800000000E+01 0.  1.
         -5    1    1    2    0  502 -0.11222202992E+03  0.36989015916E+02 -0.44149413222E+03  0.45705198006E+03  0.41800000000E+01 0.  1.
        -11    1    3    3    0    0  0.68412652464E+02  0.10653951779E+02  0.15345468811E+02  0.70917424648E+02  0.00000000000E+00 0.  1.
         11    1    3    3    0    0  0.71021718968E+02  0.88740210369E+01 -0.83710902842E+02  0.11013785938E+03  0.00000000000E+00 0. -1.
</event>
<event>
 7    1  0.5831876E-006  0.2160510E+03  0.7561462E-02  0.1136862E+00
         -2   -1    0    0    0  501 -0.00000000000E+00  0.00000000000E+00  0.10008230848E+03  0.10008230848E+03  0.00000000000E+00 0.  1.
          2   -1    0    0  501    0  0.00000000000E+00 -0.00000000000E+00 -0.71982516569E+03  0.71982516569E+03  0.00000000000E+00 0. -1.
         23    2    1    2    0    0 -0.19601296894E+03  0.55398483895E+02 -0.93066911782E+02  0.24152522675E+03  0.90459433325E+02 0.  0.
          5    1    1    2  502    0  0.20914402619E+01  0.65791314878E+01 -0.14976900978E+03  0.14998629198E+03  0.41800000000E+01 0. -1.
         -5    1    1    2    0  502  0.19392152868E+03 -0.61977615383E+02 -0.37690693565E+03  0.42839595544E+03  0.41800000000E+01 0. -1.
        -11    1    3    3    0    0 -0.40409267167E+02  0.50560924011E+02 -0.11383809454E+02  0.65718391851E+02  0.00000000000E+00 0. -1.
         11    1    3    3    0    0 -0.15560370177E+03  0.48375598840E+01 -0.81683102328E+02  0.17580683490E+03  0.00000000000E+00 0.  1.
</event>
<event>
 7    1  0.5831876E-006  0.1802178E+03  0.7561462E-02  0.1167592E+00
         -2   -1    0    0    0  501 -0.00000000000E+00  0.00000000000E+00  0.19980543505E+02  0.19980543505E+02  0.00000000000E+00 0.  1.
          2   -1    0    0  501    0  0.00000000000E+00 -0.00000000000E+00 -0.21184443531E+04  0.21184443531E+04  0.00000000000E+00 0. -1.
         23    2    1    2    0    0 -0.13448078534E+03  0.74304982119E+02 -0.57340518043E+03  0.60056964815E+03  0.91016972796E+02 0.  0.
          5    1    1    2  502    0  0.15078189127E+03 -0.84190726274E+02 -0.12195165296E+04  0.12316904220E+04  0.41800000000E+01 0. -1.
         -5    1    1    2    0  502 -0.16301105935E+02  0.98857441550E+01 -0.30554209951E+03  0.30616482647E+03  0.41800000000E+01 0. -1.
        -11    1    3    3    0    0 -0.36506699995E+02  0.58465678555E+02 -0.14132459269E+03  0.15723744850E+03  0.00000000000E+00 0.  1.
         11    1    3    3    0    0 -0.97974085340E+02  0.15839303565E+02 -0.43208058774E+03  0.44333219964E+03  0.00000000000E+00 0. -1.
</event>
<event>
 7    1  0.5831876E-006  0.1019174E+03  0.7561462E-02  0.1276315E+00
          1   -1    0    0  501    0  0.00000000000E+00  0.00000000000E+00  0.24864063083E+03  0.24864063083E+03  0.00000000000E+00 0. -1.
         -1   -1    0    0    0  501 -0.00000000000E+00 -0.00000000000E+00 -0.13218086173E+03  0.13218086173E+03  0.00000000000E+00 0.  1.
         23    2    1    2    0    0  0.96475610185E+02 -0.22072704813E+02 -0.57017521316E+02  0.14515871142E+03  0.89584072844E+02 0.  0.
          5    1    1    2  502    0 -0.18844062344E+02  0.95509354521E+00 -0.18941339307E+02  0.27060259127E+02  0.41800000000E+01 0.  1.
         -5    1    1    2    0  502 -0.77631547841E+02  0.21117611268E+02  0.19241862972E+03  0.20860252201E+03  0.41800000000E+01 0.  1.
        -11    1    3    3    0    0  0.60728899647E+02  0.21507128308E+01  0.13707274221E+02  0.62293773241E+02  0.00000000000E+00 0. -1.
         11    1    3    3    0    0  0.35746710537E+02 -0.24223417644E+02 -0.70724795536E+02  0.82864938184E+02  0.00000000000E+00 0.  1.
</event>
<event>
 7    1  0.5831876E-006  0.9667170E+02  0.7561462E-02  0.1287455E+00
         -1   -1    0    0    0  501 -0.00000000000E+00  0.00000000000E+00  0.70131941462E+02  0.70131941462E+02  0.00000000000E+00 0.  1.
          1   -1    0    0  501    0  0.00000000000E+00 -0.00000000000E+00 -0.18424121619E+03  0.18424121619E+03  0.00000000000E+00 0. -1.
         23    2    1    2    0    0  0.26295096514E+02 -0.20808292573E+02 -0.46787550569E+02  0.10841358570E+03  0.91869546294E+02 0.  0.
          5    1    1    2  502    0 -0.69737933976E+01  0.56338411920E+02  0.10756037822E+02  0.57929398423E+02  0.41800000000E+01 0. -1.
         -5    1    1    2    0  502 -0.19321303117E+02 -0.35530119347E+02 -0.78077761984E+02  0.88030173528E+02  0.41800000000E+01 0. -1.
        -11    1    3    3    0    0  0.59000768912E+02 -0.43824069265E+01 -0.39384875212E+02  0.71073656288E+02  0.00000000000E+00 0.  1.
         11    1    3    3    0    0 -0.32705672398E+02 -0.16425885647E+02 -0.74026753574E+01  0.37339929415E+02  0.00000000000E+00 0. -1.
</event>
<event>
 7    1  0.5831876E-006  0.1138220E+03  0.7561462E-02  0.1253651E+00
          2   -1    0    0  501    0  0.00000000000E+00  0.00000000000E+00  0.16766662580E+03  0.16766662580E+03  0.00000000000E+00 0. -1.
         -2   -1    0    0    0  501 -0.00000000000E+00 -0.00000000000E+00 -0.10813502786E+03  0.10813502786E+03  0.00000000000E+00 0.  1.
         23    2    1    2    0    0  0.78001057422E+02  0.15371963031E+02  0.17375734658E+02  0.12170595950E+03  0.90498410025E+02 0.  0.
          5    1    1    2  502    0  0.17183442397E+02  0.35785134076E+02  0.82159317963E+01  0.40753164892E+02  0.41800000000E+01 0.  1.
         -5    1    1    2    0  502 -0.95184499819E+02 -0.51157097106E+02  0.33939931485E+02  0.11334252926E+03  0.41800000000E+01 0.  1.
        -11    1    3    3    0    0  0.24651653276E+02  0.31249220484E+01  0.51515160674E+02  0.57195112784E+02  0.00000000000E+00 0. -1.
         11    1    3    3    0    0  0.53349404146E+02  0.12247040982E+02 -0.34139426017E+02  0.64510846718E+02  0.00000000000E+00 0.  1.
</event>
<event>
 7    1  0.5831876E-006  0.1137390E+03  0.7561462E-02  0.1253798E+00
         -2   -1    0    0    0  501 -0.00000000000E+00  0.00000000000E+00  0.41987033411E+02  0.41987033411E+02  0.00000000000E+00 0.  1.
          2   -1    0    0  501    0  0.00000000000E+00 -0.00000000000E+00 -0.35879151536E+03  0.35879151536E+03  0.00000000000E+00 0. -1.
         23    2    1    2    0    0  0.63259892205E+02 -0.63406086324E+01 -0.12167458819E+03  0.16674176385E+03  0.94636637298E+02 0.  0.
          5    1    1    2  502    0 -0.77674269882E+02  0.42546236099E+02 -0.15018696389E+03  0.17440490512E+03  0.41800000000E+01 0. -1.
         -5    1    1    2    0  502  0.14414377677E+02 -0.36205627466E+02 -0.44942929862E+02  0.59631879801E+02  0.41800000000E+01 0.  1.
        -11    1    3    3    0    0  0.36035657623E+02  0.34927080110E+02 -0.20646087976E+02  0.54265371040E+02  0.00000000000E+00 0.  1.
         11    1    3    3    0    0  0.27224234582E+02 -0.41267688743E+02 -0.10102850022E+03  0.11247639281E+03  0.00000000000E+00 0. -1.
</event>
<event>
 7    1  0.5831876E-006  0.7809062E+02  0.7561462E-02  0.1334559E+00
         -1   -1    0    0    0  501 -0.00000000000E+00  0.00000000000E+00  0.33982209115E+02  0.33982209115E+02  0.00000000000E+00 0.  1.
          1   -1    0    0  501    0  0.00000000000E+00 -0.00000000000E+00 -0.64854111495E+03  0.64854111495E+03  0.00000000000E+00 0. -1.
         23    2    1    2    0    0  0.29457654096E+02 -0.30262512123E+02 -0.53711815492E+02  0.10865246891E+03  0.84479742260E+02 0.  0.
          5    1    1    2  502    0 -0.50319658701E+02  0.54057227044E+02 -0.23268127972E+03  0.24415630686E+03  0.41800000000E+01 0. -1.
         -5    1    1    2    0  502  0.20862004605E+02 -0.23794714921E+02 -0.32816581062E+03  0.32971454829E+03  0.41800000000E+01 0.  1.
        -11    1    3    3    0    0  0.22159320005E+01 -0.21586922826E+02  0.20049239221E+02  0.29544501774E+02  0.00000000000E+00 0.  1.
         11    1    3    3    0    0  0.27241722096E+02 -0.86755892965E+01 -0.73761054712E+02  0.79107967138E+02  0.00000000000E+00 0. -1.
</event>
<event>
 7    1  0.5831876E-006  0.1859197E+03  0.7561462E-02  0.1162194E+00
          1   -1    0    0  501    0  0.00000000000E+00  0.00000000000E+00  0.12048446219E+03  0.12048446219E+03  0.00000000000E+00 0. -1.
         -1   -1    0    0    0  501 -0.00000000000E+00 -0.00000000000E+00 -0.33434535017E+03  0.33434535017E+03  0.00000000000E+00 0.  1.
         23    2    1    2    0    0  0.12485792715E+03  0.11178717775E+03 -0.12279949013E+03  0.22673895537E+03  0.90801784255E+02 0.  0.
          5    1    1    2  502    0 -0.93795792151E+01  0.23051979353E+02  0.56844076379E+01  0.25868033333E+02  0.41800000000E+01 0.  1.
         -5    1    1    2    0  502 -0.11547834794E+03 -0.13483915710E+03 -0.96745805482E+02  0.20222282366E+03  0.41800000000E+01 0.  1.
        -11    1    3    3    0    0  0.52124918224E+02  0.32483810093E+02 -0.99044309700E+02  0.11654175347E+03  0.00000000000E+00 0.  1.
         11    1    3    3    0    0  0.72733008931E+02  0.79303367653E+02 -0.23755180432E+02  0.11019720190E+03  0.00000000000E+00 0. -1.
</event>
<event>
 7    1  0.5831876E-006  0.1349696E+03  0.7561462E-02  0.1220263E+00
         -1   -1    0    0    0  501 -0.00000000000E+00  0.00000000000E+00  0.19840269192E+02  0.19840269192E+02  0.00000000000E+00 0.  1.
          1   -1    0    0  501    0  0.00000000000E+00 -0.00000000000E+00 -0.11242619148E+04  0.11242619148E+04  0.00000000000E+00 0. -1.
         23    2    1    2    0    0  0.95115779432E+02  0.47995823604E+01 -0.36613216347E+03  0.38925744651E+03  0.91643608896E+02 0.  0.
          5    1    1    2  502    0  0.16705162533E+02 -0.21069514873E+02 -0.33200606567E+03  0.33311932840E+03  0.41800000000E+01 0.  1.
         -5    1    1    2    0  502 -0.11182094197E+03  0.16269932513E+02 -0.40628341650E+03  0.42172540911E+03  0.41800000000E+01 0.  1.
        -11    1    3    3    0    0  0.57542967665E+02  0.46163052248E+02 -0.24482707591E+03  0.25570005401E+03  0.00000000000E+00 0. -1.
         11    1    3    3    0    0  0.37572811767E+02 -0.41363469888E+02 -0.12130508755E+03  0.13355739250E+03  0.00000000000E+00 0.  1.
</event>
<event>
 7    1  0.5831876E-006  0.8232832E+02  0.7561462E-02  0.1322571E+00
         -1   -1    0    0    0  501 -0.00000000000E+00  0.00000000000E+00  0.29214178386E+02  0.29214178386E+02  0.00000000000E+00 0.  1.
          1   -1    0    0  501    0  0.00000000000E+00 -0.00000000000E+00 -0.42555544818E+03  0.42555544818E+03  0.00000000000E+00 0. -1.
         23    2    1    2    0    0 -0.24065217428E+02  0.16811538937E+00 -0.16416448168E+03  0.18994472035E+03  0.92465435673E+02 0.  0.
          5    1    1    2  502    0  0.38639183270E+02  0.20332079236E+02 -0.15298861673E+02  0.46453282965E+02  0.41800000000E+01 0.  1.
         -5    1    1    2    0  502 -0.14573965841E+02 -0.20500194625E+02 -0.21687792645E+03  0.21837162325E+03  0.41800000000E+01 0.  1.
        -11    1    3    3    0    0 -0.49004585290E+02 -0.28982884445E+02 -0.91277201348E+02  0.10757780652E+03  0.00000000000E+00 0.  1.
         11    1    3    3    0    0  0.24939367862E+02  0.29150999835E+02 -0.72887280327E+02  0.82366913832E+02  0.00000000000E+00 0. -1.
</event>
<event>
 7    1  0.5831876E-006  0.1271365E+03  0.7561462E-02  0.1231768E+00
          2   -1    0    0  501    0  0.00000000000E+00  0.00000000000E+00  0.15695747603E+03  0.15695747603E+03  0.00000000000E+00 0. -1.
         -2   -1    0    0    0  501 -0.00000000000E+00 -0.00000000000E+00 -0.13129567605E+03  0.13129567605E+03  0.00000000000E+00 0.  1.
         23    2    1    2    0    0  0.81907015315E+02 -0.44866645416E+02  0.18642967349E+02  0.13198911302E+03  0.91388132136E+02 0.  0.
          5    1    1    2  502    0 -0.79270308552E+02 -0.17392273743E+02  0.34179655665E+02  0.88158914837E+02  0.41800000000E+01 0.  1.
         -5    1    1    2    0  502 -0.26367067630E+01  0.62258919158E+02 -0.27160823032E+02  0.68105124220E+02  0.41800000000E+01 0.  1.
        -11    1    3    3    0    0  0.55570090284E+02 -0.58678482819E+02 -0.19974657679E+02  0.83247740087E+02  0.00000000000E+00 0.  1.
         11    1    3    3    0    0  0.26336925031E+02  0.13811837404E+02  0.38617625028E+02  0.48741372933E+02  0.00000000000E+00 0. -1.
</event>
<event>
 7    1  0.5831876E-006  0.8924273E+02  0.7561462E-02  0.1304696E+00
         -1   -1    0    0    0  501 -0.00000000000E+00  0.00000000000E+00  0.55665990817E+02  0.55665990817E+02  0.00000000000E+00 0.  1.
          1   -1    0    0  501    0  0.00000000000E+00 -0.00000000000E+00 -0.61419536104E+03  0.61419536104E+03  0.00000000000E+00 0. -1.
         23    2    1    2    0    0  0.44374680606E+02  0.22369618747E+02 -0.90535051295E+01  0.10413981540E+03  0.91069331141E+02 0.  0.
          5    1    1    2  502    0 -0.28899910240E+02 -0.45177963710E+02 -0.86201599117E+02  0.10160925798E+03  0.41800000000E+01 0. -1.
         -5    1    1    2    0  502 -0.15474770365E+02  0.22808344963E+02 -0.46327426598E+03  0.46411227848E+03  0.41800000000E+01 0. -1.
        -11    1    3    3    0    0  0.69269736437E+02  0.17528300341E+02  0.10361112231E+02  0.72200348653E+02  0.00000000000E+00 0.  1.
         11    1    3    3    0    0 -0.24895055831E+02  0.48413184058E+01 -0.19414617361E+02  0.31939466746E+02  0.00000000000E+00 0. -1.
</event>
<event>
 7    1  0.5831876E-006  0.8122464E+02  0.7561462E-02  0.1325612E+00
          1   -1    0    0  501    0  0.00000000000E+00  0.00000000000E+00  0.91620768945E+03  0.91620768945E+03  0.00000000000E+00 0. -1.
         -1   -1    0    0    0  501 -0.00000000000E+00 -0.00000000000E+00 -0.14209416121E+02  0.14209416121E+02  0.00000000000E+00 0.  1.
         23    2    1    2    0    0  0.79600678577E+01  0.16335205406E+02  0.23510184321E+03  0.25164664401E+03  0.87880345589E+02 0.  0.
          5    1    1    2  502    0  0.38700725218E+02  0.37725516197E+01  0.54814569493E+03  0.54953903732E+03  0.41800000000E+01 0.  1.
         -5    1    1    2    0  502 -0.46660793076E+02 -0.20107757026E+02  0.11875073518E+03  0.12923142424E+03  0.41800000000E+01 0.  1.
        -11    1    3    3    0    0 -0.26861916511E+02  0.24761504763E+02  0.19271330555E+03  0.19614564184E+03  0.00000000000E+00 0. -1.
         11    1    3    3    0    0  0.34821984369E+02 -0.84262993575E+01  0.42388537669E+02  0.55501002171E+02  0.00000000000E+00 0.  1.
</event>
<event>
 6    1  0.5831876E-006  0.6032788E+02  0.7561462E-02  0.1396461E+00
         -4   -1    0    0    0  501 -0.00000000000E+00  0.00000000000E+00  0.24294122965E+03  0.24294122965E+03  0.00000000000E+00 0.  1.
          4   -1    0    0  501    0  0.00000000000E+00 -0.00000000000E+00 -0.78080892750E+02  0.78080892750E+02  0.00000000000E+00 0. -1.
          5    1    1    2  502    0  0.90750640957E+01 -0.22878808537E+01 -0.63437158766E+02  0.64259915184E+02  0.41800000000E+01 0. -1.
         -5    1    1    2    0  502 -0.58850391600E+02  0.43508930170E+01  0.16498652310E+03  0.17527214287E+03  0.41800000000E+01 0.  1.
        -11    1    1    2    0    0  0.23434865619E+02 -0.69780951344E+01  0.32172831025E+02  0.40410119951E+02  0.00000000000E+00 0. -1.
         11    1    1    2    0    0  0.26340461885E+02  0.49150829712E+01  0.31138141542E+02  0.41079944397E+02  0.00000000000E+00 0.  1.
</event>
<event>
 7    1  0.5831876E-006  0.1382935E+03  0.7561462E-02  0.1215644E+00
         -1   -1    0    0    0  501 -0.00000000000E+00  0.00000000000E+00  0.15075443845E+02  0.15075443845E+02  0.00000000000E+00 0.  1.
          1   -1    0    0  501    0  0.00000000000E+00 -0.00000000000E+00 -0.13153367348E+04  0.13153367348E+04  0.00000000000E+00 0. -1.
         23    2    1    2    0    0  0.87797583789E+02  0.25021227025E+01 -0.50492043562E+03  0.52051735534E+03  0.90988980463E+02 0.  0.
          5    1    1    2  502    0 -0.23456669601E+02  0.57479372834E+02 -0.40436105695E+03  0.40912031290E+03  0.41800000000E+01 0. -1.
         -5    1    1    2    0  502 -0.64340914188E+02 -0.59981495537E+02 -0.39097979843E+03  0.40077451045E+03  0.41800000000E+01 0. -1.
        -11    1    3    3    0    0  0.53984087393E+02  0.46196937266E+02 -0.27083957154E+03  0.28000448606E+03  0.00000000000E+00 0.  1.
         11    1    3    3    0    0  0.33813496397E+02 -0.43694814564E+02 -0.23408086408E+03  0.24051286928E+03  0.00000000000E+00 0. -1.
</event>
<event>
 7    1  0.5831876E-006  0.1166350E+03  0.7561462E-02  0.1248754E+00
         -3   -1    0    0    0  501 -0.00000000000E+00  0.00000000000E+00  0.19171780536E+03  0.19171780536E+03  0.00000000000E+00 0.  1.
          3   -1    0    0  501    0  0.00000000000E+00 -0.00000000000E+00 -0.11172112780E+03  0.11172112780E+03  0.00000000000E+00 0. -1.
         23    2    1    2    0    0 -0.94689857201E+02 -0.14655379813E+02  0.58467408645E+02  0.14441063607E+03  0.90857276665E+02 0.  0.
          5    1    1    2  502    0 -0.13301158206E+02 -0.19236865074E+02 -0.26862824000E+02  0.35861699636E+02  0.41800000000E+01 0.  1.
         -5    1    1    2    0  502  0.10799101541E+03  0.33892244887E+02  0.48392092914E+02  0.12316659746E+03  0.41800000000E+01 0.  1.
        -11    1    3    3    0    0 -0.53647321420E+02 -0.37225767249E+01 -0.18192892153E+02  0.56770361968E+02  0.00000000000E+00 0. -1.
         11    1    3    3    0    0 -0.41042535780E+02 -0.10932803088E+02  0.76660300798E+02  0.87640274104E+02  0.00000000000E+00 0.  1.
</event>
<event>
 7    1  0.6232153E-006  0.2133068E+03  0.7561462E-02  0.1138974E+00
         -2   -1    0    0    0  501 -0.00000000000E+00  0.00000000000E+00  0.27269167630E+02  0.27269167630E+02  0.00000000000E+00 0.  1.
          2   -1    0    0  501    0  0.00000000000E+00 -0.00000000000E+00 -0.18739685971E+04  0.18739685971E+04  0.00000000000E+00 0. -1.
         23    2    1    2    0    0  0.10235730245E+03  0.15375518412E+03 -0.58255264738E+03  0.61755858921E+03  0.88844527881E+02 0.  0.
          5    1    1    2  502    0  0.27300431380E+02 -0.12908738703E+02 -0.22244144669E+03  0.22452086472E+03  0.41800000000E+01 0. -1.
         -5    1    1    2    0  502 -0.12965773383E+03 -0.14084644542E+03 -0.10417053354E+04  0.10591583108E+04  0.41800000000E+01 0. -1.
        -11    1    3    3    0    0  0.66519494978E+02  0.25113563986E+02 -0.18617314147E+03  0.19928866730E+03  0.00000000000E+00 0. -1.
         11    1    3    3    0    0  0.35837807470E+02  0.12864162014E+03 -0.39637950590E+03  0.41826992191E+03  0.00000000000E+00 0.  1.
</event>
<event>
 7    1  0.5831876E-006  0.7633966E+02  0.7561462E-02  0.1339772E+00
          1   -1    0    0  501    0  0.00000000000E+00  0.00000000000E+00  0.11593588514E+03  0.11593588514E+03  0.00000000000E+00 0. -1.
         -1   -1    0    0    0  501 -0.00000000000E+00 -0.00000000000E+00 -0.12267494543E+03  0.12267494543E+03  0.00000000000E+00 0.  1.
         23    2    1    2    0    0  0.46397697922E+02  0.15885583443E+02  0.77908928893E+01  0.10347043028E+03  0.90776284331E+02 0.  0.
          5    1    1    2  502    0 -0.44525476913E+02  0.11401784918E+02  0.48106378031E+02  0.66664944317E+02  0.41800000000E+01 0.  1.
         -5    1    1    2    0  502 -0.18722210090E+01 -0.27287368361E+02 -0.62636331210E+02  0.68475455975E+02  0.41800000000E+01 0.  1.
        -11    1    3    3    0    0  0.60796694696E+02  0.53799281419E+01 -0.25152790955E+02  0.66013972805E+02  0.00000000000E+00 0.  1.
         11    1    3    3    0    0 -0.14398996774E+02  0.10505655301E+02  0.32943683845E+02  0.37456457476E+02  0.00000000000E+00 0. -1.
</event>
<event>
 7    1  0.5831876E-006  0.1995099E+03  0.7561462E-02  0.1150153E+00
         -2   -1    0    0    0  501 -0.00000000000E+00  0.00000000000E+00  0.10363735056E+03  0.10363735056E+03  0.00000000000E+00 0.  1.
          2   -1    0    0  501    0  0.00000000000E+00 -0.00000000000E+00 -0.51657224724E+03  0.51657224724E+03  0.00000000000E+00 0. -1.
         23    2    1    2    0    0 -0.13240375546E+02  0.17878970693E+03 -0.68704097822E+02  0.21243035004E+03  0.90913880737E+02 0.  0.
          5    1    1    2  502    0  0.69271110321E+02 -0.10211008982E+03 -0.20011715858E+03  0.23513678301E+03  0.41800000000E+01 0.  1.
         -5    1    1    2    0  502 -0.56030734775E+02 -0.76679617115E+02 -0.14411364028E+03  0.17264246475E+03  0.41800000000E+01 0.  1.
        -11    1    3    3    0    0 -0.10733720404E+02  0.33307657997E+02 -0.56442986725E+02  0.66411020060E+02  0.00000000000E+00 0. -1.
         11    1    3    3    0    0 -0.25066551422E+01  0.14548204894E+03 -0.12261111098E+02  0.14601932998E+03  0.00000000000E+00 0.  1.
</event>
<event>
 6    1  0.5831876E-006  0.7141964E+02  0.7561462E-02  0.1355331E+00
         -2   -1    0    0    0  501 -0.00000000000E+00  0.00000000000E+00  0.73654935455E+02  0.73654935455E+02  0.00000000000E+00 0.  1.
          2   -1    0    0  501    0  0.00000000000E+00 -0.00000000000E+00 -0.12041152924E+03  0.12041152924E+03  0.00000000000E+00 0. -1.
          5    1    1    2  502    0 -0.48091120895E+02  0.21046592772E+02 -0.77990218454E+02  0.94104524603E+02  0.41800000000E+01 0. -1.
         -5    1    1    2    0  502  0.35527626653E+02  0.97959298162E+01  0.26091964392E+02  0.45347938237E+02  0.41800000000E+01 0. -1.
        -11    1    1    2    0    0 -0.15245254663E+02 -0.87954494812E+01 -0.38236245443E+01  0.18011047331E+02  0.00000000000E+00 0.  1.
         11    1    1    2    0    0  0.27808748905E+02 -0.22047073107E+02  0.89652848189E+01  0.36602954527E+02  0.00000000000E+00 0. -1.
</event>
<event>
 7    1  0.5831876E-006  0.2846934E+03  0.7561462E-02  0.1093153E+00
          1   -1    0    0  501    0  0.00000000000E+00  0.00000000000E+00  0.16102572662E+04  0.16102572662E+04  0.00000000000E+00 0. -1.
         -1   -1    0    0    0  501 -0.00000000000E+00 -0.00000000000E+00 -0.70547918997E+02  0.70547918997E+02  0.00000000000E+00 0.  1.
         23    2    1    2    0    0 -0.27415651521E+03 -0.76138300136E+00  0.35132924352E+03  0.45481308167E+03  0.90886343156E+02 0.  0.
          5    1    1    2  502    0  0.24573475490E+03 -0.27447948080E+02  0.85056703898E+03  0.88578819128E+03  0.41800000000E+01 0.  1.
         -5    1    1    2    0  502  0.28421760314E+02  0.28209331082E+02  0.33781306466E+03  0.34020391220E+03  0.41800000000E+01 0.  1.
        -11    1    3    3    0    0 -0.25320014085E+03  0.17809384596E+02  0.34071147337E+03  0.42486679512E+03  0.00000000000E+00 0. -1.
         11    1    3    3    0    0 -0.20956374360E+02 -0.18570767597E+02  0.10617770145E+02  0.29946286553E+02  0.00000000000E+00 0.  1.
</event>
<event>
 7    1  0.5831876E-006  0.1101410E+03  0.7561462E-02  0.1260309E+00
          2   -1    0    0  501    0  0.00000000000E+00  0.00000000000E+00  0.28665401780E+02  0.28665401780E+02  0.00000000000E+00 0. -1.
         -2   -1    0    0    0  501 -0.00000000000E+00 -0.00000000000E+00 -0.77877378895E+03  0.77877378895E+03  0.00000000000E+00 0.  1.
         23    2    1    2    0    0 -0.84115536654E+02 -0.33346211229E+02 -0.27949248574E+03  0.31214762727E+03  0.10551160274E+03 0.  0.
          5    1    1    2  502    0  0.43840954762E+02  0.27479296639E+01 -0.33919641785E+02  0.55656041278E+02  0.41800000000E+01 0.  1.
         -5    1    1    2    0  502  0.40274581891E+02  0.30598281565E+02 -0.43669625964E+03  0.43963552218E+03  0.41800000000E+01 0.  1.
        -11    1    3    3    0    0 -0.75047493063E+02 -0.60740675938E+02 -0.14235635198E+03  0.17200839188E+03  0.00000000000E+00 0.  1.
         11    1    3    3    0    0 -0.90680435904E+01  0.27394464709E+02 -0.13713613376E+03  0.14013923538E+03  0.00000000000E+00 0. -1.
</event>
<event>
 7    1  0.5831876E-006  0.1666284E+03  0.7561462E-02  0.1181410E+00
         -4   -1    0    0    0  501 -0.00000000000E+00  0.00000000000E+00  0.54422296259E+03  0.54422296259E+03  0.00000000000E+00 0.  1.
          4   -1    0    0  501    0  0.00000000000E+00 -0.00000000000E+00 -0.59556973239E+02  0.59556973239E+02  0.00000000000E+00 0. -1.
         23    2    1    2    0    0  0.43340834893E+02 -0.13413118668E+03  0.27870325555E+03  0.32460578934E+03  0.88452306967E+02 0.  0.
          5    1    1    2  502    0 -0.47708854941E+02  0.18902877279E+02  0.13309076667E+03  0.14270276165E+03  0.41800000000E+01 0. -1.
         -5    1    1    2    0  502  0.43680200488E+01  0.11522830940E+03  0.72871967127E+02  0.13647138484E+03  0.41800000000E+01 0. -1.
        -11    1    3    3    0    0 -0.18907399023E+02 -0.85011211195E+02  0.14897904480E+03  0.17256636856E+03  0.00000000000E+00 0.  1.
         11    1    3    3    0    0  0.62248233916E+02 -0.49119975486E+02  0.12972421075E+03  0.15203942078E+03  0.00000000000E+00 0. -1.
</event>
<event>
 7    1  0.5831876E-006  0.1045930E+03  0.7561462E-02  0.1270924E+00
          1   -1    0    0  501    0  0.00000000000E+00  0.00000000000E+00  0.34130692454E+03  0.34130692454E+03  0.00000000000E+00 0. -1.
         -1   -1    0    0    0  501 -0.00000000000E+00 -0.00000000000E+00 -0.86349949624E+02  0.86349949624E+02  0.00000000000E+00 0.  1.
         23    2    1    2    0    0 -0.36140083288E+02  0.79858528572E+02 -0.24407475509E+01  0.12834994687E+03  0.93724390675E+02 0.  0.
          5    1    1    2  502    0 -0.17196749121E+02 -0.25172497777E+02  0.20328265010E+03  0.20559837319E+03  0.41800000000E+01 0. -1.
         -5    1    1    2    0  502  0.53336832409E+02 -0.54686030795E+02  0.54115072363E+02  0.93708554105E+02  0.41800000000E+01 0. -1.
        -11    1    3    3    0    0 -0.82637417020E+01 -0.69115544831E+01 -0.31018829608E+02  0.32836364027E+02  0.00000000000E+00 0.  1.
         11    1    3    3    0    0 -0.27876341586E+02  0.86770083055E+02  0.28578082057E+02  0.95513582844E+02  0.00000000000E+00 0. -1.
</event>
<event>
 7    1  0.5831876E-006  0.2222150E+03  0.7561462E-02  0.1132242E+00
         -1   -1    0    0    0  501 -0.00000000000E+00  0.00000000000E+00  0.59057794692E+03  0.59057794692E+03  0.00000000000E+00 0.  1.
          1   -1    0    0  501    0  0.00000000000E+00 -0.00000000000E+00 -0.11999268682E+03  0.11999268682E+03  0.00000000000E+00 0. -1.
         23    2    1    2    0    0  0.11725459028E+03  0.16487164693E+03  0.40818516034E+03  0.46466122349E+03  0.91452876339E+02 0.  0.
          5    1    1    2  502    0 -0.97096637984E+02 -0.51879751528E+02  0.70464619695E+02  0.13077461816E+03  0.41800000000E+01 0.  1.
         -5    1    1    2    0  502 -0.20157952295E+02 -0.11299189540E+03 -0.80645199278E+01  0.11513479209E+03  0.41800000000E+01 0.  1.
        -11    1    3    3    0    0  0.11828312871E+03  0.10101790375E+03  0.25501180257E+03  0.29870810981E+03  0.00000000000E+00 0. -1.
         11    1    3    3    0    0 -0.10285384354E+01  0.63853743184E+02  0.15317335777E+03  0.16595311368E+03  0.00000000000E+00 0.  1.
</event>
<event>
 7    1  0.5831876E-006  0.1034162E+03  0.7561462E-02  0.1273272E+00
          1   -1    0    0  501    0  0.00000000000E+00  0.00000000000E+00  0.16997303599E+03  0.16997303599E+03  0.00000000000E+00 0. -1.
         -1   -1    0    0    0  501 -0.00000000000E+00 -0.00000000000E+00 -0.77812676491E+02  0.77812676491E+02  0.00000000000E+00 0.  1.
         23    2    1    2    0    0  0.87389594416E+00  0.28988549490E+02  0.12611014459E+01  0.90459823470E+02  0.85675490017E+02 0.  0.
          5    1    1    2  502    0  0.51508277061E+02  0.17992055390E+02  0.57329104550E+02  0.79252225782E+02  0.41800000000E+01 0.  1.
         -5    1    1    2    0  502 -0.52382173005E+02 -0.46980604880E+02  0.33570153501E+02  0.78073663227E+02  0.41800000000E+01 0.  1.
        -11    1    3    3    0    0 -0.37168471671E+02  0.74495563048E+01 -0.18853880654E+02  0.42337453764E+02  0.00000000000E+00 0. -1.
         11    1    3    3    0    0  0.38042367615E+02  0.21538993185E+02  0.20114982100E+02  0.48122369706E+02  0.00000000000E+00 0.  1.
</event>
<event>
 7    1  0.5831876E-006  0.1430923E+03  0.7561462E-02  0.1209228E+00
          1   -1    0    0  501    0  0.00000000000E+00  0.00000000000E+00  0.34734772998E+03  0.34734772998E+03  0.00000000000E+00 0. -1.
         -1   -1    0    0    0  501 -0.00000000000E+00 -0.00000000000E+00 -0.97672470877E+02  0.97672470877E+02  0.00000000000E+00 0.  1.
         23    2    1    2    0    0  0.67296143364E+02  0.93915173996E+02  0.57216799358E+01  0.14751473296E+03  0.91537030767E+02 0.  0.
          5    1    1    2  502    0  0.88228560518E+01 -0.52773750641E+02  0.19816863186E+02  0.57210943116E+02  0.41800000000E+01 0. -1.
         -5    1    1    2    0  502 -0.76118999416E+02 -0.41141423354E+02  0.22413671598E+03  0.24029452478E+03  0.41800000000E+01 0. -1.
        -11    1    3    3    0    0  0.88628266908E+02  0.84895168847E+02  0.12551026922E+02  0.12336809825E+03  0.00000000000E+00 0.  1.
         11    1    3    3    0    0 -0.21332123544E+02  0.90200051481E+01 -0.68293469864E+01  0.24146634714E+02  0.00000000000E+00 0. -1.
</event>
<event>
 7    1  0.5831876E-006  0.1130911E+03  0.7561462E-02  0.1254950E+00
          1   -1    0    0  501    0  0.00000000000E+00  0.00000000000E+00  0.62828289057E+03  0.62828289057E+03  0.00000000000E+00 0. -1.
         -1   -1    0    0    0  501 -0.00000000000E+00 -0.00000000000E+00 -0.29025233866E+02  0.29025233866E+02  0.00000000000E+00 0.  1.
         23    2    1    2    0    0  0.76194057696E+02  0.19760586609E+02  0.24884617834E+03  0.27700286826E+03  0.92790911961E+02 0.  0.
          5    1    1    2  502    0  0.23551763077E+02 -0.38129333507E+02  0.85765455357E+02  0.96859265691E+02  0.41800000000E+01 0.  1.
         -5    1    1    2    0  502 -0.99745820773E+02  0.18368746897E+02  0.26464602301E+03  0.28344599048E+03  0.41800000000E+01 0.  1.
        -11    1    3    3    0    0  0.35319342290E+02  0.15483074948E+02  0.18055463650E+02  0.42581466828E+02  0.00000000000E+00 0.  1.
         11    1    3    3    0    0  0.40874715407E+02  0.42775116613E+01  0.23079071469E+03  0.23442140144E+03  0.00000000000E+00 0. -1.
</event>
<event>
 7    1  0.5831876E-006  0.9272994E+02  0.7561462E-02  0.1296372E+00
          1   -1    0    0  501    0  0.00000000000E+00  0.00000000000E+00  0.13210448499E+03  0.13210448499E+03  0.00000000000E+00 0. -1.
         -1   -1    0    0    0  501 -0.00000000000E+00 -0.00000000000E+00 -0.13885829532E+03  0.13885829532E+03  0.00000000000E+00 0.  1.
         23    2    1    2    0    0  0.66346661113E+02 -0.19919507399E+00 -0.49936776888E+02  0.12292158482E+03  0.90631756078E+02 0.  0.
          5    1    1    2  502    0 -0.15477636559E+02 -0.46599626765E+02 -0.21051486414E+02  0.53588430919E+02  0.41800000000E+01 0. -1.
         -5    1    1    2    0  502 -0.50869024554E+02  0.46798821839E+02  0.64234452975E+02  0.94452764563E+02  0.41800000000E+01 0. -1.
        -11    1    3    3    0    0  0.14025902726E+02 -0.36632681772E+01  0.26513178161E+02  0.30217446902E+02  0.00000000000E+00 0. -1.
         11    1    3    3    0    0  0.52320758386E+02  0.34640731032E+01 -0.76449955049E+02  0.92704137921E+02  0.00000000000E+00 0.  1.
</event>
<event>
 7    1  0.5831876E-006  0.1216922E+03  0.7561462E-02  0.1240331E+00
         -1   -1    0    0    0  501 -0.00000000000E+00  0.00000000000E+00  0.40560469512E+03  0.40560469512E+03  0.00000000000E+00 0.  1.
          1   -1    0    0  501    0  0.00000000000E+00 -0.00000000000E+00 -0.50266122131E+02  0.50266122131E+02  0.00000000000E+00 0. -1.
         23    2    1    2    0    0  0.66237801937E+02 -0.62006111295E+02  0.18802026054E+03  0.22810909067E+03  0.91923525967E+02 0.  0.
          5    1    1    2  502    0  0.36368100278E+02  0.13810939970E+02  0.59822188444E+02  0.71481098277E+02  0.41800000000E+01 0.  1.
         -5    1    1    2    0  502 -0.10260590222E+03  0.48195171326E+02  0.10749612400E+03  0.15628062830E+03  0.41800000000E+01 0.  1.
        -11    1    3    3    0    0  0.45560903359E+02 -0.40063682307E+02  0.18843015486E+03  0.19795660589E+03  0.00000000000E+00 0.  1.
         11    1    3    3    0    0  0.20676898578E+02 -0.21942428988E+02 -0.40989431850E+00  0.30152484774E+02  0.00000000000E+00 0. -1.
</event>
<event>
 7    1  0.5831876E-006  0.1111503E+03  0.7561462E-02  0.1258454E+00
          2   -1    0    0  501    0  0.00000000000E+00  0.00000000000E+00  0.34208251741E+03  0.34208251741E+03  0.00000000000E+00 0. -1.
         -2   -1    0    0    0  501 -0.00000000000E+00 -0.00000000000E+00 -0.63517474184E+02  0.63517474184E+02  0.00000000000E+00 0.  1.
         23    2    1    2    0    0 -0.47237001783E+02  0.59309117947E+02  0.37532528960E+02  0.12365412361E+03  0.90181737326E+02 0.  0.
          5    1    1    2  502    0  0.32723242335E+02 -0.98015937238E+02  0.18808280880E+03  0.21464051320E+03  0.41800000000E+01 0.  1.
         -5    1    1    2    0  502  0.14513759448E+02  0.38706819292E+02  0.52949705464E+02  0.67305354777E+02  0.41800000000E+01 0.  1.
        -11    1    3    3    0    0 -0.43718695353E+02  0.45569726046E+02 -0.18540343817E+02  0.65815413120E+02  0.00000000000E+00 0.  1.
         11    1    3    3    0    0 -0.35183064309E+01  0.13739391901E+02  0.56072872777E+02  0.57838710493E+02  0.00000000000E+00 0. -1.
</event>
<event>
 6    1  0.5831876E-006  0.6347893E+02  0.7561462E-02  0.1383786E+00
         -2   -1    0    0    0  501 -0.00000000000E+00  0.00000000000E+00  0.17021668245E+02  0.17021668245E+02  0.00000000000E+00 0.  1.
          2   -1    0    0  501    0  0.00000000000E+00 -0.00000000000E+00 -0.61876198348E+03  0.61876198348E+03  0.00000000000E+00 0. -1.
          5    1    1    2  502    0 -0.41358737973E+01 -0.46344328805E+02 -0.47694785523E+03  0.47923024871E+03  0.41800000000E+01 0. -1.
         -5    1    1    2    0  502  0.34197009051E+02  0.29669988386E+02 -0.50066758344E+02  0.67630587236E+02  0.41800000000E+01 0.  1.
        -11    1    1    2    0    0 -0.17219546915E+02  0.12478661038E+02 -0.72086521685E+02  0.75157809880E+02  0.00000000000E+00 0. -1.
         11    1    1    2    0    0 -0.12841588339E+02  0.41956793809E+01 -0.26391799712E+01  0.13765005901E+02  0.00000000000E+00 0.  1.
</event>
<event>
 7    1  0.5831876E-006  0.1292443E+03  0.7561462E-02  0.1228581E+00
          1   -1    0    0  501    0  0.00000000000E+00  0.00000000000E+00  0.31001849508E+03  0.31001849508E+03  0.00000000000E+00 0. -1.
         -1   -1    0    0    0  501 -0.00000000000E+00 -0.00000000000E+00 -0.81735114020E+02  0.81735114020E+02  0.00000000000E+00 0.  1.
         23    2    1    2    0    0 -0.16950424370E+02 -0.81161519222E+02  0.58551418927E+01  0.12343300538E+03  0.91251931717E+02 0.  0.
          5    1    1    2  502    0  0.66851522183E+02  0.68250606271E+02  0.11880566263E+03  0.15251075092E+03  0.41800000000E+01 0. -1.
         -5    1    1    2    0  502 -0.49901097813E+02  0.12910912952E+02  0.10362257654E+03  0.11580985279E+03  0.41800000000E+01 0. -1.
        -11    1    3    3    0    0 -0.75612549010E+01  0.13792868229E+02 -0.19161399168E+02  0.24790623383E+02  0.00000000000E+00 0.  1.
         11    1    3    3    0    0 -0.93891694690E+01 -0.94954387451E+02  0.25016541061E+02  0.98642381998E+02  0.00000000000E+00 0. -1.
</event>
<event>
 7    1  0.5831876E-006  0.1330161E+03  0.7561462E-02  0.1223048E+00
         -4   -1    0    0    0  501 -0.00000000000E+00  0.00000000000E+00  0.34999070513E+02  0.34999070513E+02  0.00000000000E+00 0.  1.
          4   -1    0    0  501    0  0.00000000000E+00 -0.00000000000E+00 -0.57268907994E+03  0.57268907994E+03  0.00000000000E+00 0. -1.
         23    2    1    2    0    0  0.64862960083E+02 -0.44687036022E+02 -0.14125368931E+03  0.18458402240E+03  0.88963598178E+02 0.  0.
          5    1    1    2  502    0  0.33773819055E+02  0.33775224629E+02 -0.11230873587E+03  0.12211536024E+03  0.41800000000E+01 0.  1.
         -5    1    1    2    0  502 -0.98636779138E+02  0.10911811393E+02 -0.28412758425E+03  0.30098876782E+03  0.41800000000E+01 0.  1.
        -11    1    3    3    0    0  0.17616969482E+02  0.27396350324E+02 -0.36088787484E+02  0.48613971314E+02  0.00000000000E+00 0.  1.
         11    1    3    3    0    0  0.47245990601E+02 -0.72083386346E+02 -0.10516490183E+03  0.13597005108E+03  0.00000000000E+00 0. -1.
</event>
<event>
 7    1  0.5831876E-006  0.1752414E+03  0.7561462E-02  0.1172490E+00
         -2   -1    0    0    0  501 -0.00000000000E+00  0.00000000000E+00  0.11495926858E+03  0.11495926858E+03  0.00000000000E+00 0.  1.
          2   -1    0    0  501    0  0.00000000000E+00 -0.00000000000E+00 -0.48313058071E+03  0.48313058071E+03  0.00000000000E+00 0. -1.
         23    2    1    2    0    0  0.40800721476E+02  0.15637829663E+03 -0.14112315203E+02  0.18928199054E+03  0.97517403425E+02 0.  0.
          5    1    1    2  502    0 -0.69270797545E+02 -0.12152856954E+03 -0.17469667606E+03  0.22383931209E+03  0.41800000000E+01 0.  1.
         -5    1    1    2    0  502  0.28470076069E+02 -0.34849727093E+02 -0.17936232086E+03  0.18496854666E+03  0.41800000000E+01 0.  1.
        -11    1    3    3    0    0  0.26475754426E+02  0.39275135444E+02  0.37594859693E+02  0.60472103584E+02  0.00000000000E+00 0.  1.
         11    1    3    3    0    0  0.14324967051E+02  0.11710316119E+03 -0.51707174896E+02  0.12880988695E+03  0.00000000000E+00 0. -1.
</event>
<event>
 7    1  0.5831876E-006  0.1134228E+03  0.7561462E-02  0.1254360E+00
         -1   -1    0    0    0  501 -0.00000000000E+00  0.00000000000E+00  0.26567021103E+02  0.26567021103E+02  0.00000000000E+00 0.  1.
          1   -1    0    0  501    0  0.00000000000E+00 -0.00000000000E+00 -0.95484599774E+03  0.95484599774E+03  0.00000000000E+00 0. -1.
         23    2    1    2    0    0 -0.90408540889E+02 -0.13867329008E+02 -0.20831539205E+03  0.24496134910E+03  0.90800621748E+02 0.  0.
          5    1    1    2  502    0  0.17027203170E+02 -0.38372708670E+02 -0.44684124688E+03  0.44882843351E+03  0.41800000000E+01 0. -1.
         -5    1    1    2    0  502  0.73381337719E+02  0.52240037679E+02 -0.27312233772E+03  0.28762323623E+03  0.41800000000E+01 0. -1.
        -11    1    3    3    0    0 -0.77536890577E+01 -0.87194795710E+01  0.74533516428E+01  0.13845629950E+02  0.00000000000E+00 0.  1.
         11    1    3    3    0    0 -0.82654851831E+02 -0.51478494375E+01 -0.21576874369E+03  0.23111571915E+03  0.00000000000E+00 0. -1.
</event>
<event>
 7    1  0.5831876E-006  0.1174164E+03  0.7561462E-02  0.1247421E+00
         -2   -1    0    0    0  501 -0.00000000000E+00  0.00000000000E+00  0.33894946216E+02  0.33894946216E+02  0.00000000000E+00 0.  1.
          2   -1    0    0  501    0  0.00000000000E+00 -0.00000000000E+00 -0.62704277458E+03  0.62704277458E+03  0.00000000000E+00 0. -1.
         23    2    1    2    0    0 -0.43962824270E+02  0.86269186639E+02 -0.22090356233E+03  0.25647735638E+03  0.87218965866E+02 0.  0.
          5    1    1    2  502    0  0.38370492385E+02 -0.17930932914E+00 -0.23521290502E+02  0.45200114431E+02  0.41800000000E+01 0.  1.
         -5    1    1    2    0  502  0.55923318847E+01 -0.86089877310E+02 -0.34872297554E+03  0.35926024999E+03  0.41800000000E+01 0.  1.
        -11    1    3    3    0    0 -0.14563661009E+02 -0.38541254318E+01  0.10758852589E+01  0.15103378229E+02  0.00000000000E+00 0.  1.
         11    1    3    3    0    0 -0.29399163261E+02  0.90123312071E+02 -0.22197944759E+03  0.24137397815E+03  0.00000000000E+00 0. -1.
</event>
<event>
 7    1  0.5831876E-006  0.1032326E+03  0.7561462E-02  0.1273641E+00
         -4   -1    0    0    0  501 -0.00000000000E+00  0.00000000000E+00  0.23864775962E+03  0.23864775962E+03  0.00000000000E+00 0. -1.
          4   -1    0    0  501    0  0.00000000000E+00 -0.00000000000E+00 -0.52130308389E+02  0.52130308389E+02  0.00000000000E+00 0.  1.
         23    2    1    2    0    0  0.16670990447E+02  0.11289154458E+02  0.82426949921E+02  0.12680373126E+03  0.94231721084E+02 0.  0.
          5    1    1    2  502    0  0.45532566960E+02 -0.18693381954E+02  0.85074245083E+02  0.98375590261E+02  0.41800000000E+01 0.  1.
         -5    1    1    2    0  502 -0.62203557407E+02  0.74042274960E+01  0.19016256223E+02  0.65598746479E+02  0.41800000000E+01 0.  1.
        -11    1    3    3    0    0  0.20937171440E+02  0.50591324897E+02  0.34666757810E+02  0.64804563109E+02  0.00000000000E+00 0.  1.
         11    1    3    3    0    0 -0.42661809926E+01 -0.39302170439E+02  0.47760192111E+02  0.61999168155E+02  0.00000000000E+00 0. -1.
</event>
<event>
 7    1  0.5831876E-006  0.1208316E+03  0.7561462E-02  0.1241731E+00
          1   -1    0    0  501    0  0.00000000000E+00  0.00000000000E+00  0.77304600150E+02  0.77304600150E+02  0.00000000000E+00 0. -1.
         -1   -1    0    0    0  501 -0.00000000000E+00 -0.00000000000E+00 -0.26530659097E+03  0.26530659097E+03  0.00000000000E+00 0.  1.
         23    2    1    2    0    0  0.40692480526E+02  0.82104788917E+02 -0.67340497852E+02  0.14613236344E+03  0.91776089803E+02 0.  0.
          5    1    1    2  502    0  0.39405361908E+02 -0.75303768587E+01 -0.11721496251E+02  0.42004225943E+02  0.41800000000E+01 0. -1.
         -5    1    1    2    0  502 -0.80097842434E+02 -0.74574412059E+02 -0.10893999671E+03  0.15447460173E+03  0.41800000000E+01 0. -1.
        -11    1    3    3    0    0  0.21238881356E+02  0.36536505049E+02 -0.83857577919E+02  0.93904737138E+02  0.00000000000E+00 0.  1.
         11    1    3    3    0    0  0.19453599170E+02  0.45568283869E+02  0.16517080067E+02  0.52227626304E+02  0.00000000000E+00 0. -1.
</event>
<event>
 7    1  0.5831876E-006  0.1436560E+03  0.7561462E-02  0.1208492E+00
          2   -1    0    0  501    0  0.00000000000E+00  0.00000000000E+00  0.87378942788E+03  0.87378942788E+03  0.00000000000E+00 0. -1.
         -2   -1    0    0    0  501 -0.00000000000E+00 -0.00000000000E+00 -0.29553655465E+02  0.29553655465E+02  0.00000000000E+00 0.  1.
         23    2    1    2    0    0  0.37329667827E+02 -0.10176455556E+03  0.24977256112E+03  0.28626665029E+03  0.88389670829E+02 0.  0.
          5    1    1    2  502    0 -0.15084193921E+02 -0.24305083395E+02  0.50054850021E+02  0.57803377027E+02  0.41800000000E+01 0. -1.
         -5    1    1    2    0  502 -0.22245473906E+02  0.12606963896E+03  0.54440836127E+03  0.55927305603E+03  0.41800000000E+01 0. -1.
        -11    1    3    3    0    0 -0.21524917796E+02 -0.18685491644E+02  0.19631092396E+02  0.34609962046E+02  0.00000000000E+00 0. -1.
         11    1    3    3    0    0  0.58854585623E+02 -0.83079063918E+02  0.23014146872E+03  0.25165668824E+03  0.00000000000E+00 0.  1.
</event>
<event>
 6    1  0.5831876E-006  0.7998226E+02  0.7561462E-02  0.1329102E+00
          2   -1    0    0  501    0  0.00000000000E+00  0.00000000000E+00  0.15317354992E+04  0.15317354992E+04  0.00000000000E+00 0. -1.
         -2   -1    0    0    0  501 -0.00000000000E+00 -0.00000000000E+00 -0.69417923057E+01  0.69417923057E+01  0.00000000000E+00 0.  1.
          5    1    1    2  502    0  0.48655368124E+02 -0.32355640391E+02  0.10963106450E+04  0.10978746445E+04  0.41800000000E+01 0. -1.
         -5    1    1    2    0  502 -0.95693338635E+01  0.49009961473E+02  0.18752686033E+03  0.19410652802E+03  0.41800000000E+01 0.  1.
        -11    1    1    2    0    0 -0.18415160400E+02 -0.23173212425E+02  0.16803109900E+03  0.17061818818E+03  0.00000000000E+00 0.  1.
         11    1    1    2    0    0 -0.20670873861E+02  0.65188913425E+01  0.72925102532E+02  0.76077930767E+02  0.00000000000E+00 0. -1.
</event>
<event>
 7    1  0.5831876E-006  0.1535156E+03  0.7561462E-02  0.1196218E+00
          2   -1    0    0  501    0  0.00000000000E+00  0.00000000000E+00  0.31570961292E+03  0.31570961292E+03  0.00000000000E+00 0. -1.
         -2   -1    0    0    0  501 -0.00000000000E+00 -0.00000000000E+00 -0.87116134041E+02  0.87116134041E+02  0.00000000000E+00 0.  1.
         23    2    1    2    0    0  0.91786176374E+02  0.77027394867E+02  0.67331503446E+02  0.16615857587E+03  0.93366049742E+02 0.  0.
          5    1    1    2  502    0 -0.41227883148E+02  0.32206504343E+02  0.55453704055E+02  0.76351705707E+02  0.41800000000E+01 0. -1.
         -5    1    1    2    0  502 -0.50558293225E+02 -0.10923389921E+03  0.10580827138E+03  0.16031546539E+03  0.41800000000E+01 0. -1.
        -11    1    3    3    0    0  0.82201933428E+02  0.32225215177E+02  0.45140075659E+01  0.88408136598E+02  0.00000000000E+00 0.  1.
         11    1    3    3    0    0  0.95842429461E+01  0.44802179690E+02  0.62817495880E+02  0.77750439268E+02  0.00000000000E+00 0. -1.
</event>
<event>
 7    1  0.5831876E-006  0.9080411E+02  0.7561462E-02  0.1300916E+00
          2   -1    0    0  501    0  0.00000000000E+00  0.00000000000E+00  0.23087700370E+03  0.23087700370E+03  0.00000000000E+00 0. -1.
         -2   -1    0    0    0  501 -0.00000000000E+00 -0.00000000000E+00 -0.58624352155E+02  0.58624352155E+02  0.00000000000E+00 0.  1.
         23    2    1    2    0    0 -0.41547046757E+02  0.99931957221E+01  0.77631208932E+02  0.12693910672E+03  0.90889554730E+02 0.  0.
          5    1    1    2  502    0  0.26860651666E+02 -0.52019273882E+02  0.87753038773E+00  0.58700442271E+02  0.41800000000E+01 0. -1.
         -5    1    1    2    0  502  0.14686395091E+02  0.42026078160E+02  0.93743912230E+02  0.10386180687E+03  0.41800000000E+01 0. -1.
        -11    1    3    3    0    0 -0.51575507486E+01 -0.26302838745E+02  0.70029135845E+02  0.74983461663E+02  0.00000000000E+00 0. -1.
         11    1    3    3    0    0 -0.36389496008E+02  0.36296034468E+02  0.76020730875E+01  0.51955645055E+02  0.00000000000E+00 0.  1.
</event>
<event>
 7    1  0.5831876E-006  0.2392036E+03  0.7561462E-02  0.1120325E+00
         -1   -1    0    0    0  501 -0.00000000000E+00  0.00000000000E+00  0.39002696019E+02  0.39002696019E+02  0.00000000000E+00 0.  1.
          1   -1    0    0  501    0  0.00000000000E+00 -0.00000000000E+00 -0.15252620823E+04  0.15252620823E+04  0.00000000000E+00 0. -1.
         23    2    1    2    0    0  0.69476249578E+02  0.20269006324E+03 -0.86475975501E+03  0.89506953931E+03  0.86196492539E+02 0.  0.
          5    1    1    2  502    0  0.17441244851E+02 -0.13809114036E+03 -0.37015344498E+03  0.39547996826E+03  0.41800000000E+01 0.  1.
         -5    1    1    2    0  502 -0.86917494428E+02 -0.64598922886E+02 -0.25134618629E+03  0.27371527074E+03  0.41800000000E+01 0.  1.
        -11    1    3    3    0    0  0.21785717635E+02  0.17350872998E+03 -0.66978954898E+03  0.69224124176E+03  0.00000000000E+00 0. -1.
         11    1    3    3    0    0  0.47690531942E+02  0.29181333264E+02 -0.19497020603E+03  0.20282829755E+03  0.00000000000E+00 0.  1.
</event>
<event>
 7    1  0.5831876E-006  0.1959556E+03  0.7561462E-02  0.1153197E+00
         -2   -1    0    0    0  501 -0.00000000000E+00  0.00000000000E+00  0.54753296331E+02  0.54753296331E+02  0.00000000000E+00 0. -1.
          2   -1    0    0  501    0  0.00000000000E+00 -0.00000000000E+00 -0.75017723347E+03  0.75017723347E+03  0.00000000000E+00 0.  1.
         23    2    1    2    0    0  0.53679901314E+01 -0.16667272188E+03 -0.40944833549E+03  0.45104062320E+03  0.89336962168E+02 0.  0.
          5    1    1    2  502    0  0.29824534053E+02 -0.31044295007E+01 -0.19730555483E+02  0.36137342648E+02  0.41800000000E+01 0. -1.
         -5    1    1    2    0  502 -0.35192524184E+02  0.16977715138E+03 -0.26624504617E+03  0.31775256395E+03  0.41800000000E+01 0. -1.
        -11    1    3    3    0    0 -0.21913158234E+02 -0.28237962228E+01 -0.64579408935E+02  0.68254379986E+02  0.00000000000E+00 0. -1.
         11    1    3    3    0    0  0.27281148365E+02 -0.16384892565E+03 -0.34486892656E+03  0.38278624322E+03  0.00000000000E+00 0.  1.
</event>
<event>
 7    1  0.5831876E-006  0.1290758E+03  0.7561462E-02  0.1228834E+00
         -2   -1    0    0    0  501 -0.00000000000E+00  0.00000000000E+00  0.42139313992E+02  0.42139313992E+02  0.00000000000E+00 0. -1.
          2   -1    0    0  501    0  0.00000000000E+00 -0.00000000000E+00 -0.45383601607E+03  0.45383601607E+03  0.00000000000E+00 0.  1.
         23    2    1    2    0    0  0.74050143440E+02  0.38486755927E+02 -0.14100116220E+03  0.18631727658E+03  0.88702568636E+02 0.  0.
          5    1    1    2  502    0 -0.10864685680E+03 -0.26632258781E+02 -0.22188953303E+03  0.24852737067E+03  0.41800000000E+01 0. -1.
         -5    1    1    2    0  502  0.34596713364E+02 -0.11854497147E+02 -0.48806006842E+02  0.61130682820E+02  0.41800000000E+01 0. -1.
        -11    1    3    3    0    0  0.80074230699E+02  0.10484419656E+02 -0.13459953014E+03  0.15696763677E+03  0.00000000000E+00 0. -1.
         11    1    3    3    0    0 -0.60240872587E+01  0.28002336272E+02 -0.64016320633E+01  0.29349639811E+02  0.00000000000E+00 0.  1.
</event>
<event>
 7    1  0.5831876E-006  0.1479576E+03  0.7561462E-02  0.1203005E+00
          2   -1    0    0  501    0  0.00000000000E+00  0.00000000000E+00  0.34684871364E+03  0.34684871364E+03  0.00000000000E+00 0.  1.
         -2   -1    0    0    0  501 -0.00000000000E+00 -0.00000000000E+00 -0.84023380855E+02  0.84023380855E+02  0.00000000000E+00 0. -1.
         23    2    1    2    0    0  0.27269508979E+02  0.10066550989E+03  0.22409934034E+02  0.14048431661E+03  0.91413713789E+02 0.  0.
          5    1    1    2  502    0 -0.42554202039E+02  0.15607664426E+02  0.67081141100E+02  0.81066708280E+02  0.41800000000E+01 0.  1.
         -5    1    1    2    0  502  0.15284693060E+02 -0.11627317431E+03  0.17333425765E+03  0.20932106961E+03  0.41800000000E+01 0.  1.
        -11    1    3    3    0    0  0.55048949790E+02  0.46033725292E+02  0.31781920139E+02  0.78482999338E+02  0.00000000000E+00 0. -1.
         11    1    3    3    0    0 -0.27779440811E+02  0.54631784594E+02 -0.93719861048E+01  0.62001317270E+02  0.00000000000E+00 0.  1.
</event>
<event>
 7    1  0.5831876E-006  0.1581368E+03  0.7561462E-02  0.1190817E+00
         -2   -1    0    0    0  501 -0.00000000000E+00  0.00000000000E+00  0.49037211637E+02  0.49037211637E+02  0.00000000000E+00 0.  1.
          2   -1    0    0  501    0  0.00000000000E+00 -0.00000000000E+00 -0.75053134464E+03  0.75053134464E+03  0.00000000000E+00 0. -1.
         23    2    1    2    0    0 -0.74651830158E+02 -0.13325847626E+03 -0.25404425021E+03  0.31049825867E+03  0.92411959891E+02 0.  0.
          5    1    1    2  502    0  0.44809022629E+02  0.10013692120E+03 -0.42505508459E+03  0.43900404193E+03  0.41800000000E+01 0. -1.
         -5    1    1    2    0  502  0.29842807529E+02  0.33121555059E+02 -0.22394798199E+02  0.50066255673E+02  0.41800000000E+01 0. -1.
        -11    1    3    3    0    0 -0.41721922704E+02 -0.11848898134E+03 -0.24162849258E+03  0.27233194076E+03  0.00000000000E+00 0. -1.
         11    1    3    3    0    0 -0.32929907454E+02 -0.14769494919E+02 -0.12415757633E+02  0.38166317908E+02  0.00000000000E+00 0.  1.
</event>
<event>
 7    1  0.5831876E-006  0.5397484E+02  0.7561462E-02  0.1425010E+00
         -1   -1    0    0    0  501 -0.00000000000E+00  0.00000000000E+00  0.17118494485E+03  0.17118494485E+03  0.00000000000E+00 0.  1.
          1   -1    0    0  501    0  0.00000000000E+00 -0.00000000000E+00 -0.71849040912E+02  0.71849040912E+02  0.00000000000E+00 0. -1.
         23    2    1    2    0    0  0.26641493142E+02  0.30085082264E+01  0.48543784754E+02  0.10539062904E+03  0.89620674921E+02 0.  0.
          5    1    1    2  502    0 -0.15585321326E+02  0.16083900706E+02 -0.38955793059E+02  0.45128929919E+02  0.41800000000E+01 0.  1.
         -5    1    1    2    0  502 -0.11056171817E+02 -0.19092408932E+02  0.89747912244E+02  0.92514426801E+02  0.41800000000E+01 0.  1.
        -11    1    3    3    0    0 -0.10292265734E+01 -0.24013312959E+02  0.60343815853E+02  0.64954404149E+02  0.00000000000E+00 0.  1.
         11    1    3    3    0    0  0.27670719716E+02  0.27021821185E+02 -0.11800031099E+02  0.40436224894E+02  0.00000000000E+00 0. -1.
</event>
<event>
 6    1  0.5831876E-006  0.7962648E+02  0.7561462E-02  0.1330115E+00
          2   -1    0    0  501    0  0.00000000000E+00  0.00000000000E+00  0.22872746699E+03  0.22872746699E+03  0.00000000000E+00 0. -1.
         -2   -1    0    0    0  501 -0.00000000000E+00 -0.00000000000E+00 -0.31485190438E+02  0.31485190438E+02  0.00000000000E+00 0.  1.
          5    1    1    2  502    0  0.50897435748E+02 -0.18213661109E+02  0.11152991730E+03  0.12401081110E+03  0.41800000000E+01 0. -1.
         -5    1    1    2    0  502 -0.28413653619E+02  0.53759766386E+02  0.46001880571E+02  0.76361597744E+02  0.41800000000E+01 0.  1.
        -11    1    1    2    0    0 -0.72482464270E+01 -0.23701922079E+02  0.17088398458E+02  0.30105340861E+02  0.00000000000E+00 0. -1.
         11    1    1    2    0    0 -0.15235535703E+02 -0.11844183198E+02  0.22622080233E+02  0.29734907732E+02  0.00000000000E+00 0.  1.
</event>
<event>
 7    1  0.5831876E-006  0.9844725E+02  0.7561462E-02  0.1283595E+00
          1   -1    0    0  501    0  0.00000000000E+00  0.00000000000E+00  0.10448117165E+03  0.10448117165E+03  0.00000000000E+00 0. -1.
         -1   -1    0    0    0  501 -0.00000000000E+00 -0.00000000000E+00 -0.18893913361E+03  0.18893913361E+03  0.00000000000E+00 0.  1.
         23    2    1    2    0    0  0.85783085983E+02  0.14146777208E+02 -0.60042982736E+02  0.13913758013E+03  0.90527549849E+02 0.  0.
          5    1    1    2  502    0 -0.22346435381E+02 -0.35901171278E+02  0.42041680970E+02  0.59776522249E+02  0.41800000000E+01 0. -1.
         -5    1    1    2    0  502 -0.63436650602E+02  0.21754394070E+02 -0.66456660195E+02  0.94506202893E+02  0.41800000000E+01 0. -1.
        -11    1    3    3    0    0  0.17707411788E+02  0.57402531935E+01 -0.67612776977E+02  0.70128386189E+02  0.00000000000E+00 0.  1.
         11    1    3    3    0    0  0.68075674195E+02  0.84065240144E+01  0.75697942410E+01  0.69009193938E+02  0.00000000000E+00 0. -1.
</event>
<event>
 7    1  0.5831876E-006  0.9860067E+02  0.7561462E-02  0.1283266E+00
          2   -1    0    0  501    0  0.00000000000E+00  0.00000000000E+00  0.11453128813E+04  0.11453128813E+04  0.00000000000E+00 0. -1.
         -2   -1    0    0    0  501 -0.00000000000E+00 -0.00000000000E+00 -0.15384824563E+02  0.15384824563E+02  0.00000000000E+00 0.  1.
         23    2    1    2    0    0  0.43419161460E+02 -0.21325037200E+02  0.25127408521E+03  0.27186722141E+03  0.91832126094E+02 0.  0.
          5    1    1    2  502    0 -0.86378328152E+02  0.22287829129E+02  0.52360258569E+03  0.53116391354E+03  0.41800000000E+01 0.  1.
         -5    1    1    2    0  502  0.42959166691E+02 -0.96279192929E+00  0.35505138587E+03  0.35766657095E+03  0.41800000000E+01 0.  1.
        -11    1    3    3    0    0 -0.74550378334E+01 -0.10221667376E+02 -0.24229419526E+01  0.12881409889E+02  0.00000000000E+00 0.  1.
         11    1    3    3    0    0  0.50874199294E+02 -0.11103369825E+02  0.25369702716E+03  0.25898581152E+03  0.00000000000E+00 0. -1.
</event>
<event>
 7    1  0.5831876E-006  0.1159074E+03  0.7561462E-02  0.1250006E+00
          1   -1    0    0  501    0  0.00000000000E+00  0.00000000000E+00  0.18894850508E+04  0.18894850508E+04  0.00000000000E+00 0. -1.
         -1   -1    0    0    0  501 -0.00000000000E+00 -0.00000000000E+00 -0.12223606491E+02  0.12223606491E+02  0.00000000000E+00 0.  1.
         23    2    1    2    0    0 -0.31217491983E+02 -0.42279407267E+02  0.32450823748E+03  0.34303835277E+03  0.98018545167E+02 0.  0.
          5    1    1    2  502    0 -0.23978087515E+02 -0.24261710159E+02  0.18391632086E+03  0.18709961181E+03  0.41800000000E+01 0.  1.
         -5    1    1    2    0  502  0.55195579498E+02  0.66541117426E+02  0.13688368860E+04  0.13715706927E+04  0.41800000000E+01 0.  1.
        -11    1    3    3    0    0 -0.20071492852E+02 -0.74313115965E+02  0.21279109846E+03  0.22628600402E+03  0.00000000000E+00 0.  1.
         11    1    3    3    0    0 -0.11145999131E+02  0.32033708698E+02  0.11171713902E+03  0.11675234875E+03  0.00000000000E+00 0. -1.
</event>
<event>
 7    1  0.5831876E-006  0.1087855E+03  0.7561462E-02  0.1262836E+00
          1   -1    0    0  501    0  0.00000000000E+00  0.00000000000E+00  0.28485370729E+03  0.28485370729E+03  0.00000000000E+00 0. -1.
         -1   -1    0    0    0  501 -0.00000000000E+00 -0.00000000000E+00 -0.12883573978E+03  0.12883573978E+03  0.00000000000E+00 0.  1.
         23    2    1    2    0    0  0.23476728093E+02  0.99850527053E+01 -0.74589468321E+02  0.11903089261E+03  0.89184676782E+02 0.  0.
          5    1    1    2  502    0 -0.53011929022E+02 -0.63863483110E+02  0.21589999672E+03  0.23134193324E+03  0.41800000000E+01 0. -1.
         -5    1    1    2    0  502  0.29535200929E+02  0.53878430405E+02  0.14707439105E+02  0.63316621213E+02  0.41800000000E+01 0.  1.
        -11    1    3    3    0    0  0.15542593136E+02 -0.29105000100E+02  0.15980010973E+01  0.33033722765E+02  0.00000000000E+00 0. -1.
         11    1    3    3    0    0  0.79341349565E+01  0.39090052805E+02 -0.76187469418E+02  0.85997169849E+02  0.00000000000E+00 0.  1.
</event>
<event>
 7    1  0.5831876E-006  0.1274542E+03  0.7561462E-02  0.1231283E+00
          2   -1    0    0  501    0  0.00000000000E+00  0.00000000000E+00  0.94689016831E+03  0.94689016831E+03  0.00000000000E+00 0. -1.
         -2   -1    0    0    0  501 -0.00000000000E+00 -0.00000000000E+00 -0.19373761582E+02  0.19373761582E+02  0.00000000000E+00 0.  1.
         23    2    1    2    0    0 -0.56081680359E+02  0.54336288429E+02  0.32420164867E+03  0.34518833140E+03  0.89166630626E+02 0.  0.
          5    1    1    2  502    0  0.39021861684E+02  0.36880773361E+02  0.25170755806E+03  0.25740447610E+03  0.41800000000E+01 0. -1.
         -5    1    1    2    0  502  0.17059818674E+02 -0.91217061790E+02  0.35160720000E+03  0.36367112240E+03  0.41800000000E+01 0. -1.
        -11    1    3    3    0    0 -0.22268368491E+02 -0.17789775008E+02  0.16192597505E+03  0.16441526001E+03  0.00000000000E+00 0. -1.
         11    1    3    3    0    0 -0.33813311867E+02  0.72126063437E+02  0.16227567363E+03  0.18077307138E+03  0.00000000000E+00 0.  1.
</event>
<event>
 7    1  0.5831876E-006  0.1774540E+03  0.7561462E-02  0.1170290E+00
         -1   -1    0    0    0  501 -0.00000000000E+00  0.00000000000E+00  0.35409449238E+02  0.35409449238E+02  0.00000000000E+00 0.  1.
          1   -1    0    0  501    0  0.00000000000E+00 -0.00000000000E+00 -0.10735382411E+04  0.10735382411E+04  0.00000000000E+00 0. -1.
         23    2    1    2    0    0 -0.13088204482E+03 -0.73482714612E+02 -0.31981193569E+03  0.36453071072E+03  0.89850686404E+02 0.  0.
          5    1    1    2  502    0  0.62990013858E+02 -0.21338096632E+02 -0.14838775060E+03  0.16266361960E+03  0.41800000000E+01 0. -1.
         -5    1    1    2    0  502  0.67892030959E+02  0.94820811244E+02 -0.56992910561E+03  0.58175336006E+03  0.41800000000E+01 0. -1.
        -11    1    3    3    0    0 -0.95391744781E+02 -0.91142752318E+02 -0.21243927634E+03  0.25007405384E+03  0.00000000000E+00 0.  1.
         11    1    3    3    0    0 -0.35490300036E+02  0.17660037706E+02 -0.10737265935E+03  0.11445665688E+03  0.00000000000E+00 0. -1.
</event>
<event>
 7    1  0.5831876E-006  0.1001052E+03  0.7561462E-02  0.1280075E+00
          2   -1    0    0  501    0  0.00000000000E+00  0.00000000000E+00  0.54790129391E+03  0.54790129391E+03  0.00000000000E+00 0. -1.
         -2   -1    0    0    0  501 -0.00000000000E+00 -0.00000000000E+00 -0.29397105048E+02  0.29397105048E+02  0.00000000000E+00 0.  1.
         23    2    1    2    0    0 -0.33876364588E+01  0.33081898039E+02  0.10128105041E+03  0.14045833099E+03  0.91459299762E+02 0.  0.
          5    1    1    2  502    0  0.18419140388E+02 -0.67795933767E+02  0.13675723283E+03  0.15380366217E+03  0.41800000000E+01 0.  1.
         -5    1    1    2    0  502 -0.15031503929E+02  0.34714035728E+02  0.28046590562E+03  0.28303640579E+03  0.41800000000E+01 0.  1.
        -11    1    3    3    0    0 -0.41538621374E+02  0.33896866009E+02  0.81292868048E+02  0.97380619152E+02  0.00000000000E+00 0.  1.
         11    1    3    3    0    0  0.38150984915E+02 -0.81496797040E+00  0.19988182359E+02  0.43077711834E+02  0.00000000000E+00 0. -1.
</event>
<event>
 7    1  0.5831876E-006  0.1536852E+03  0.7561462E-02  0.1196016E+00
         -2   -1    0    0    0  501 -0.00000000000E+00  0.00000000000E+00  0.21375670689E+02  0.21375670689E+02  0.00000000000E+00 0.  1.
          2   -1    0    0  501    0  0.00000000000E+00 -0.00000000000E+00 -0.16440936786E+04  0.16440936786E+04  0.00000000000E+00 0. -1.
         23    2    1    2    0    0 -0.71156386744E+01  0.13468976067E+03 -0.44832898859E+03  0.47676019379E+03  0.90052409385E+02 0.  0.
          5    1    1    2  502    0 -0.84093109606E+01 -0.12882682196E+03 -0.58581752592E+03  0.59988891692E+03  0.41800000000E+01 0. -1.
         -5    1    1    2    0  502  0.15524949635E+02 -0.58629387071E+01 -0.58857149338E+03  0.58882023855E+03  0.41800000000E+01 0. -1.
        -11    1    3    3    0    0  0.23693234591E+02  0.80763893396E+00 -0.87764841749E+02  0.90910335459E+02  0.00000000000E+00 0. -1.
         11    1    3    3    0    0 -0.30808873265E+02  0.13388212173E+03 -0.36056414684E+03  0.38584985833E+03  0.00000000000E+00 0.  1.
</event>
<event>
 7    1  0.5831876E-006  0.1225603E+03  0.7561462E-02  0.1238932E+00
          2   -1    0    0  501    0  0.00000000000E+00  0.00000000000E+00  0.47760683972E+03  0.47760683972E+03  0.00000000000E+00 0. -1.
         -2   -1    0    0    0  501 -0.00000000000E+00 -0.00000000000E+00 -0.40928099745E+02  0.40928099745E+02  0.00000000000E+00 0.  1.
         23    2    1    2    0    0 -0.88308567650E+02  0.28538487502E+02  0.15602744732E+03  0.19755959051E+03  0.77925471425E+02 0.  0.
          5    1    1    2  502    0  0.10512938835E+03 -0.25459665022E+02  0.28320445018E+03  0.30318742691E+03  0.41800000000E+01 0. -1.
         -5    1    1    2    0  502 -0.16820820705E+02 -0.30788224804E+01 -0.25531575225E+01  0.17787922037E+02  0.41800000000E+01 0. -1.
        -11    1    3    3    0    0 -0.76066404882E+02  0.52455642764E+02  0.13424673198E+03  0.16297201433E+03  0.00000000000E+00 0.  1.
         11    1    3    3    0    0 -0.12242162768E+02 -0.23917155262E+02  0.21780715342E+02  0.34587576178E+02  0.00000000000E+00 0. -1.
</event>
<event>
 7    1  0.5831876E-006  0.1029771E+03  0.7561462E-02  0.1274157E+00
          1   -1    0    0  501    0  0.00000000000E+00  0.00000000000E+00  0.85426294936E+03  0.85426294936E+03  0.00000000000E+00 0. -1.
         -1   -1    0    0    0  501 -0.00000000000E+00 -0.00000000000E+00 -0.19321084154E+02  0.19321084154E+02  0.00000000000E+00 0.  1.
         23    2    1    2    0    0 -0.57968688850E+00  0.12756186304E+02  0.16593089735E+03  0.18970089065E+03  0.91051133395E+02 0.  0.
          5    1    1    2  502    0 -0.19828990521E+02 -0.64568005018E+02  0.52633959277E+03  0.53067226746E+03  0.41800000000E+01 0. -1.
         -5    1    1    2    0  502  0.20408677409E+02  0.51811818714E+02  0.14267137509E+03  0.15321087540E+03  0.41800000000E+01 0.  1.
        -11    1    3    3    0    0  0.39395842774E+02  0.15575302485E+02  0.42831168132E+02  0.60242272856E+02  0.00000000000E+00 0.  1.
         11    1    3    3    0    0 -0.39975529662E+02 -0.28191161806E+01  0.12309972922E+03  0.12945861780E+03  0.00000000000E+00 0. -1.
</event>
<event>
 7    1  0.5831876E-006  0.1484723E+03  0.7561462E-02  0.1202363E+00
         -1   -1    0    0    0  501 -0.00000000000E+00  0.00000000000E+00  0.59035628209E+03  0.59035628209E+03  0.00000000000E+00 0.  1.
          1   -1    0    0  501    0  0.00000000000E+00 -0.00000000000E+00 -0.58616144866E+02  0.58616144866E+02  0.00000000000E+00 0. -1.
         23    2    1    2    0    0 -0.85660868520E+01  0.13999901570E+03  0.33164590767E+03  0.37446282692E+03  0.10276331265E+03 0.  0.
          5    1    1    2  502    0  0.10311060401E+02 -0.14317189482E+03  0.10171976051E+03  0.17597980427E+03  0.41800000000E+01 0.  1.
         -5    1    1    2    0  502 -0.17449735487E+01  0.31728791164E+01  0.98374469039E+02  0.98529795764E+02  0.41800000000E+01 0.  1.
        -11    1    3    3    0    0  0.14910167790E+02  0.10243245143E+03  0.30653821868E+03  0.32354350515E+03  0.00000000000E+00 0.  1.
         11    1    3    3    0    0 -0.23476254642E+02  0.37566564273E+02  0.25107688984E+02  0.50919321769E+02  0.00000000000E+00 0. -1.
</event>
<event>
 7    1  0.5831876E-006  0.1216214E+03  0.7561462E-02  0.1240446E+00
          2   -1    0    0  501    0  0.00000000000E+00  0.00000000000E+00  0.40676836351E+03  0.40676836351E+03  0.00000000000E+00 0. -1.
         -2   -1    0    0    0  501 -0.00000000000E+00 -0.00000000000E+00 -0.49789485290E+02  0.49789485290E+02  0.00000000000E+00 0.  1.
         23    2    1    2    0    0  0.51079127126E+02 -0.63678621796E+02  0.95556488794E+02  0.15547107494E+03  0.91521410014E+02 0.  0.
          5    1    1    2  502    0 -0.64115570463E+01  0.80326061997E+02  0.23024426651E+03  0.24397393090E+03  0.41800000000E+01 0. -1.
         -5    1    1    2    0  502 -0.44667570080E+02 -0.16647440201E+02  0.31178122922E+02  0.57112842961E+02  0.41800000000E+01 0. -1.
        -11    1    3    3    0    0 -0.22119984791E+02 -0.12800008784E+02  0.10837973638E+01  0.25579455990E+02  0.00000000000E+00 0.  1.
         11    1    3    3    0    0  0.73199111918E+02 -0.50878613012E+02  0.94472691430E+02  0.12989161895E+03  0.00000000000E+00 0. -1.
</event>
<event>
 7    1  0.5831876E-006  0.1200722E+03  0.7561462E-02  0.1242978E+00
         -1   -1    0    0    0  501 -0.00000000000E+00  0.00000000000E+00  0.44032980965E+02  0.44032980965E+02  0.00000000000E+00 0.  1.
          1   -1    0    0  501    0  0.00000000000E+00 -0.00000000000E+00 -0.77568377343E+03  0.77568377343E+03  0.00000000000E+00 0. -1.
         23    2    1    2    0    0 -0.37441409479E+02 -0.45498749891E+02 -0.41217475556E+02  0.11557297912E+03  0.90477830580E+02 0.  0.
          5    1    1    2  502    0  0.56180502331E+02  0.77781535631E+02 -0.40401797772E+03  0.41527607065E+03  0.41800000000E+01 0. -1.
         -5    1    1    2    0  502 -0.18739092852E+02 -0.32282785739E+02 -0.28641533919E+03  0.28886770463E+03  0.41800000000E+01 0. -1.
        -11    1    3    3    0    0 -0.45281881914E+01  0.26760894912E+02 -0.18967232467E+02  0.33112020359E+02  0.00000000000E+00 0. -1.
         11    1    3    3    0    0 -0.32913221288E+02 -0.72259644803E+02 -0.22250243090E+02  0.82460958763E+02  0.00000000000E+00 0.  1.
</event>
<event>
 7    1  0.5831876E-006  0.1000817E+03  0.7561462E-02  0.1280124E+00
         -1   -1    0    0    0  501 -0.00000000000E+00  0.00000000000E+00  0.25937269328E+02  0.25937269328E+02  0.00000000000E+00 0.  1.
          1   -1    0    0  501    0  0.00000000000E+00 -0.00000000000E+00 -0.89181159722E+03  0.89181159722E+03  0.00000000000E+00 0. -1.
         23    2    1    2    0    0 -0.99700144903E+01 -0.73489059154E+01 -0.88084322742E+02  0.13065194879E+03  0.95695748091E+02 0.  0.
          5    1    1    2  502    0 -0.46263272345E+02  0.98852068345E+01 -0.56349136902E+03  0.56548917146E+03  0.41800000000E+01 0. -1.
         -5    1    1    2    0  502  0.56233286835E+02 -0.25363009191E+01 -0.21429863613E+03  0.22160774630E+03  0.41800000000E+01 0.  1.
        -11    1    3    3    0    0  0.20041463988E+02 -0.44300173404E+02 -0.49369899751E+02  0.69293236639E+02  0.00000000000E+00 0.  1.
         11    1    3    3    0    0 -0.30011478478E+02  0.36951267488E+02 -0.38714422990E+02  0.61358712152E+02  0.00000000000E+00 0. -1.
</event>
<event>
 7    1  0.5831876E-006  0.7485328E+02  0.7561462E-02  0.1344326E+00
          2   -1    0    0  501    0  0.00000000000E+00  0.00000000000E+00  0.27125231967E+03  0.27125231967E+03  0.00000000000E+00 0. -1.
         -2   -1    0    0    0  501 -0.00000000000E+00 -0.00000000000E+00 -0.48386668031E+02  0.48386668031E+02  0.00000000000E+00 0.  1.
         23    2    1    2    0    0  0.22007951005E+02  0.20464713576E+02  0.66044369983E+02  0.11679710090E+03  0.91523491858E+02 0.  0.
          5    1    1    2  502    0 -0.34094779190E+02  0.30794702216E+02  0.10552265747E+02  0.47324310507E+02  0.41800000000E+01 0. -1.
         -5    1    1    2    0  502  0.12086828185E+02 -0.51259415792E+02  0.14626901591E+03  0.15551757630E+03  0.41800000000E+01 0. -1.
        -11    1    3    3    0    0  0.15795534221E+02 -0.10626349066E+02 -0.18474008121E+02  0.26527479561E+02  0.00000000000E+00 0.  1.
         11    1    3    3    0    0  0.62124167838E+01  0.31091062642E+02  0.84518378104E+02  0.90269621334E+02  0.00000000000E+00 0. -1.
</event>
<event>
 7    1  0.5831876E-006  0.1118528E+03  0.7561462E-02  0.1257177E+00
         -2   -1    0    0    0  501 -0.00000000000E+00  0.00000000000E+00  0.78424467945E+03  0.78424467945E+03  0.00000000000E+00 0.  1.
          2   -1    0    0  501    0  0.00000000000E+00 -0.00000000000E+00 -0.17396118694E+02  0.17396118694E+02  0.00000000000E+00 0. -1.
         23    2    1    2    0    0  0.15634003651E+02  0.29301090110E+02  0.43847195256E+03  0.44868024736E+03  0.89181473661E+02 0.  0.
          5    1    1    2  502    0  0.40558230462E+00 -0.77785658046E+02  0.18651909090E+03  0.20213267120E+03  0.41800000000E+01 0. -1.
         -5    1    1    2    0  502 -0.16039585956E+02  0.48484567936E+02  0.14185751729E+03  0.15082787958E+03  0.41800000000E+01 0. -1.
        -11    1    3    3    0    0  0.52271396437E+02  0.24110160820E+02  0.29081176794E+03  0.29645418383E+03  0.00000000000E+00 0.  1.
         11    1    3    3    0    0 -0.36637392785E+02  0.51909292902E+01  0.14766018462E+03  0.15222606353E+03  0.00000000000E+00 0. -1.
</event>
<event>
 7    1  0.5831876E-006  0.1496793E+03  0.7561462E-02  0.1200868E+00
          1   -1    0    0  501    0  0.00000000000E+00  0.00000000000E+00  0.71155355818E+02  0.71155355818E+02  0.00000000000E+00 0. -1.
         -1   -1    0    0    0  501 -0.00000000000E+00 -0.00000000000E+00 -0.38915425829E+03  0.38915425829E+03  0.00000000000E+00 0.  1.
         23    2    1    2    0    0  0.53027656756E+02  0.10039050795E+03 -0.22312246968E+03  0.26655704182E+03  0.91535968886E+02 0.  0.
          5    1    1    2  502    0  0.67747672789E+01 -0.92751971369E+02 -0.95431266474E+02  0.13331700824E+03  0.41800000000E+01 0.  1.
         -5    1    1    2    0  502 -0.59802424035E+02 -0.76385365849E+01  0.55483368313E+00  0.60435564050E+02  0.41800000000E+01 0.  1.
        -11    1    3    3    0    0  0.76139607103E+02  0.51988157096E+02 -0.13985834636E+03  0.16751228401E+03  0.00000000000E+00 0.  1.
         11    1    3    3    0    0 -0.23111950346E+02  0.48402350858E+02 -0.83264123328E+02  0.99044757816E+02  0.00000000000E+00 0. -1.
</event>
<event>
 7    1  0.5831876E-006  0.1382773E+03  0.7561462E-02  0.1215666E+00
         -1   -1    0    0    0  501 -0.00000000000E+00  0.00000000000E+00  0.51253158248E+02  0.51253158248E+02  0.00000000000E+00 0.  1.
          1   -1    0    0  501    0  0.00000000000E+00 -0.00000000000E+00 -0.55925852202E+03  0.55925852202E+03  0.00000000000E+00 0. -1.
         23    2    1    2    0    0  0.86251516354E+02  0.95143342157E+02 -0.26807935994E+03  0.31100828493E+03  0.91476939394E+02 0.  0.
          5    1    1    2  502    0 -0.70794019858E+02 -0.29798198706E+02 -0.21399492485E+03  0.22740058521E+03  0.41800000000E+01 0.  1.
         -5    1    1    2    0  502 -0.15457496496E+02 -0.65345143451E+02 -0.25931078987E+02  0.72102810126E+02  0.41800000000E+01 0.  1.
        -11    1    3    3    0    0  0.76687268668E+02  0.64352654023E+02 -0.10619246123E+03  0.14594190652E+03  0.00000000000E+00 0.  1.
         11    1    3    3    0    0  0.95642476856E+01  0.30790688134E+02 -0.16188689871E+03  0.16506637841E+03  0.00000000000E+00 0. -1.
</event>
<event>
 7    1  0.5831876E-006  0.9605022E+02  0.7561462E-02  0.1288828E+00
         -1   -1    0    0    0  501 -0.00000000000E+00  0.00000000000E+00  0.34949131051E+02  0.34949131051E+02  0.00000000000E+00 0.  1.
          1   -1    0    0  501    0  0.00000000000E+00 -0.00000000000E+00 -0.35427492327E+03  0.35427492327E+03  0.00000000000E+00 0. -1.
         23    2    1    2    0    0  0.19283941332E+02  0.13435972270E+02 -0.11526456388E+03  0.14872316480E+03  0.90995957697E+02 0.  0.
          5    1    1    2  502    0 -0.53925413423E+02  0.31626173855E+02 -0.14726890411E+03  0.16004301798E+03  0.41800000000E+01 0. -1.
         -5    1    1    2    0  502  0.34641472091E+02 -0.45062146125E+02 -0.56792324222E+02  0.80457871539E+02  0.41800000000E+01 0. -1.
        -11    1    3    3    0    0  0.64085116484E+00 -0.27481482536E+02 -0.95907371467E+02  0.99769065718E+02  0.00000000000E+00 0. -1.
         11    1    3    3    0    0  0.18643090167E+02  0.40917454807E+02 -0.19357192418E+02  0.48954099084E+02  0.00000000000E+00 0.  1.
</event>
<event>
 7    1  0.5831876E-006  0.1108999E+03  0.7561462E-02  0.1258912E+00
          1   -1    0    0  501    0  0.00000000000E+00  0.00000000000E+00  0.52053917221E+03  0.52053917221E+03  0.00000000000E+00 0. -1.
         -1   -1    0    0    0  501 -0.00000000000E+00 -0.00000000000E+00 -0.28084569731E+02  0.28084569731E+02  0.00000000000E+00 0.  1.
         23    2    1    2    0    0  0.21676143039E+02 -0.36334501802E+02  0.14381420126E+03  0.17580965518E+03  0.91850199635E+02 0.  0.
          5    1    1    2  502    0  0.14176442969E+02  0.72542124958E+02  0.26155227072E+03  0.27182787596E+03  0.41800000000E+01 0.  1.
         -5    1    1    2    0  502 -0.35852586007E+02 -0.36207623156E+02  0.87088130499E+02  0.10098621080E+03  0.41800000000E+01 0.  1.
        -11    1    3    3    0    0  0.55344534129E+02 -0.27668801275E+02  0.65388073975E+02  0.90023220560E+02  0.00000000000E+00 0.  1.
         11    1    3    3    0    0 -0.33668391090E+02 -0.86657005274E+01  0.78426127286E+02  0.85786434623E+02  0.00000000000E+00 0. -1.
</event>
<event>
 7    1  0.5831876E-006  0.9480305E+02  0.7561462E-02  0.1291620E+00
          2   -1    0    0  501    0  0.00000000000E+00  0.00000000000E+00  0.38883830869E+03  0.38883830869E+03  0.00000000000E+00 0.  1.
         -2   -1    0    0    0  501 -0.00000000000E+00 -0.00000000000E+00 -0.53834599891E+02  0.53834599891E+02  0.00000000000E+00 0. -1.
         23    2    1    2    0    0 -0.78536307382E+02  0.39346193326E+02  0.92162808252E+02  0.15573302826E+03  0.89681204055E+02 0.  0.
          5    1    1    2  502    0  0.29911155228E+02 -0.31015914383E+02  0.45155631970E+01  0.43526162973E+02  0.41800000000E+01 0. -1.
         -5    1    1    2    0  502  0.48625152154E+02 -0.83302789423E+01  0.23832533735E+03  0.24341371735E+03  0.41800000000E+01 0. -1.
        -11    1    3    3    0    0 -0.48124419139E+02  0.13593785275E+01  0.95509356510E+02  0.10695721017E+03  0.00000000000E+00 0.  1.
         11    1    3    3    0    0 -0.30411888243E+02  0.37986814798E+02 -0.33465482572E+01  0.48775818089E+02  0.00000000000E+00 0. -1.
</event>
<event>
 7    1  0.5831876E-006  0.1082899E+03  0.7561462E-02  0.1263770E+00
         -1   -1    0    0    0  501 -0.00000000000E+00  0.00000000000E+00  0.17176929120E+02  0.17176929120E+02  0.00000000000E+00 0.  1.
          1   -1    0    0  501    0  0.00000000000E+00 -0.00000000000E+00 -0.94011101134E+03  0.94011101134E+03  0.00000000000E+00 0. -1.
         23    2    1    2    0    0  0.54240525222E+02  0.30241788197E+01 -0.26653835873E+03  0.28687326741E+03  0.91117477161E+02 0.  0.
          5    1    1    2  502    0  0.34004333001E+02  0.22529160707E+02 -0.27777058960E+03  0.28078075182E+03  0.41800000000E+01 0. -1.
         -5    1    1    2    0  502 -0.88244858223E+02 -0.25553339527E+02 -0.37862513389E+03  0.38963392123E+03  0.41800000000E+01 0. -1.
        -11    1    3    3    0    0  0.32136651296E+02  0.33199364327E+02 -0.54006992508E+02  0.71075434490E+02  0.00000000000E+00 0.  1.
         11    1    3    3    0    0  0.22103873926E+02 -0.30175185508E+02 -0.21253136622E+03  0.21579783292E+03  0.00000000000E+00 0. -1.
</event>
<event>
 7    1  0.5831876E-006  0.1504390E+03  0.7561462E-02  0.1199935E+00
          1   -1    0    0  501    0  0.00000000000E+00  0.00000000000E+00  0.15349186338E+04  0.15349186338E+04  0.00000000000E+00 0. -1.
         -1   -1    0    0    0  501 -0.00000000000E+00 -0.00000000000E+00 -0.29432419009E+02  0.29432419009E+02  0.00000000000E+00 0.  1.
         23    2    1    2    0    0 -0.87559504415E+02 -0.10207796134E+03  0.26701416257E+03  0.31233400692E+03  0.90384688200E+02 0.  0.
          5    1    1    2  502    0  0.74606043416E+02  0.10408491983E+03  0.12281538085E+04  0.12348194127E+04  0.41800000000E+01 0. -1.
         -5    1    1    2    0  502  0.12953460999E+02 -0.20069584920E+01  0.10318243752E+02  0.17197633220E+02  0.41800000000E+01 0. -1.
        -11    1    3    3    0    0  0.16724611101E+02 -0.21292108694E+02  0.71733570194E+02  0.76673147855E+02  0.00000000000E+00 0. -1.
         11    1    3    3    0    0 -0.10428411552E+03 -0.80785852644E+02  0.19528059237E+03  0.23566085906E+03  0.00000000000E+00 0.  1.
</event>
<event>
 7    1  0.5831876E-006  0.1067438E+03  0.7561462E-02  0.1266721E+00
         -2   -1    0    0    0  501 -0.00000000000E+00  0.00000000000E+00  0.75505054377E+02  0.75505054377E+02  0.00000000000E+00 0.  1.
          2   -1    0    0  501    0  0.00000000000E+00 -0.00000000000E+00 -0.22060980570E+03  0.22060980570E+03  0.00000000000E+00 0. -1.
         23    2    1    2    0    0  0.25100667416E+02  0.77955301281E+01  0.10107114419E+02  0.95034803770E+02  0.90766989435E+02 0.  0.
          5    1    1    2  502    0 -0.51581068931E+02 -0.51078376963E+02 -0.11562651619E+03  0.13658905854E+03  0.41800000000E+01 0.  1.
         -5    1    1    2    0  502  0.26480401514E+02  0.43282846835E+02 -0.39585349552E+02  0.64490997772E+02  0.41800000000E+01 0.  1.
        -11    1    3    3    0    0 -0.19939519913E+01  0.44331611505E+02 -0.96981403125E+01  0.45423799364E+02  0.00000000000E+00 0.  1.
         11    1    3    3    0    0  0.27094619407E+02 -0.36536081377E+02  0.19805254732E+02  0.49611004406E+02  0.00000000000E+00 0. -1.
</event>
<event>
 7    1  0.5831876E-006  0.1349747E+03  0.7561462E-02  0.1220255E+00
         -2   -1    0    0    0  501 -0.00000000000E+00  0.00000000000E+00  0.10358359053E+03  0.10358359053E+03  0.00000000000E+00 0.  1.
          2   -1    0    0  501    0  0.00000000000E+00 -0.00000000000E+00 -0.36807361117E+03  0.36807361117E+03  0.00000000000E+00 0. -1.
         23    2    1    2    0    0  0.48982658938E+02 -0.10433796542E+03  0.10548031576E+02  0.14827016155E+03  0.92666433679E+02 0.  0.
          5    1    1    2  502    0 -0.53908644223E+02  0.43577275731E+02 -0.39164027660E+02  0.79727124272E+02  0.41800000000E+01 0.  1.
         -5    1    1    2    0  502  0.49259852855E+01  0.60760689693E+02 -0.23587402456E+03  0.24365991587E+03  0.41800000000E+01 0.  1.
        -11    1    3    3    0    0  0.58692719634E+01 -0.95135940591E+02  0.30224139404E+02  0.99993970559E+02  0.00000000000E+00 0.  1.
         11    1    3    3    0    0  0.43113386974E+02 -0.92020248331E+01 -0.19676107828E+02  0.48276190992E+02  0.00000000000E+00 0. -1.
</event>
<event>
 7    1  0.5831876E-006  0.1121997E+03  0.7561462E-02  0.1256550E+00
          1   -1    0    0  501    0  0.00000000000E+00  0.00000000000E+00  0.30344540141E+02  0.30344540141E+02  0.00000000000E+00 0. -1.
         -1   -1    0    0    0  501 -0.00000000000E+00 -0.00000000000E+00 -0.52871393801E+03  0.52871393801E+03  0.00000000000E+00 0.  1.
         23    2    1    2    0    0  0.82604996792E+01  0.59657262727E+02 -0.27798598933E+03  0.29859026623E+03  0.90844438322E+02 0.  0.
          5    1    1    2  502    0  0.47037119150E+02 -0.43753027294E+02 -0.17682783190E+03  0.18818175393E+03  0.41800000000E+01 0.  1.
         -5    1    1    2    0  502 -0.55297618829E+02 -0.15904235433E+02 -0.43555576637E+02  0.72286457992E+02  0.41800000000E+01 0.  1.
        -11    1    3    3    0    0 -0.22468791775E+02  0.67059926699E+02 -0.23379885180E+03  0.24426171103E+03  0.00000000000E+00 0.  1.
         11    1    3    3    0    0  0.30729291454E+02 -0.74026639722E+01 -0.44187137524E+02  0.54328555196E+02  0.00000000000E+00 0. -1.
</event>
<event>
 7    1  0.5831876E-006  0.1136667E+03  0.7561462E-02  0.1253926E+00
          2   -1    0    0  501    0  0.00000000000E+00  0.00000000000E+00  0.45461920029E+03  0.45461920029E+03  0.00000000000E+00 0. -1.
         -2   -1    0    0    0  501 -0.00000000000E+00 -0.00000000000E+00 -0.46232650223E+02  0.46232650223E+02  0.00000000000E+00 0.  1.
         23    2    1    2    0    0 -0.15322340320E+02 -0.76915582766E+02  0.92159412952E+02  0.15185870712E+03  0.91743820207E+02 0.  0.
          5    1    1    2  502    0 -0.54560128777E+02  0.25412085675E+02  0.14222732885E+03  0.15449487766E+03  0.41800000000E+01 0.  1.
         -5    1    1    2    0  502  0.69882469097E+02  0.51503497091E+02  0.17399980827E+03  0.19449826574E+03  0.41800000000E+01 0.  1.
        -11    1    3    3    0    0 -0.18331821871E+02 -0.55166842534E+02  0.10943763479E+03  0.12391945819E+03  0.00000000000E+00 0. -1.
         11    1    3    3    0    0  0.30094815507E+01 -0.21748740232E+02 -0.17278221839E+02  0.27939248931E+02  0.00000000000E+00 0.  1.
</event>
<event>
 7    1  0.5831876E-006  0.1028126E+03  0.7561462E-02  0.1274490E+00
         -1   -1    0    0    0  501 -0.00000000000E+00  0.00000000000E+00  0.24417990936E+02  0.24417990936E+02  0.00000000000E+00 0.  1.
          1   -1    0    0  501    0  0.00000000000E+00 -0.00000000000E+00 -0.80353806457E+03  0.80353806457E+03  0.00000000000E+00 0. -1.
         23    2    1    2    0    0 -0.80283064698E+01  0.12771091952E+01 -0.88987053778E+02  0.12653226424E+03  0.89585899788E+02 0.  0.
          5    1    1    2  502    0  0.32529123333E+01  0.57578926766E+02 -0.21584265854E+03  0.22345344010E+03  0.41800000000E+01 0. -1.
         -5    1    1    2    0  502  0.47753941364E+01 -0.58856035961E+02 -0.47429036131E+03  0.47797035117E+03  0.41800000000E+01 0. -1.
        -11    1    3    3    0    0 -0.23411352666E+02  0.40329989715E+02 -0.57660436819E+02  0.74157437106E+02  0.00000000000E+00 0.  1.
         11    1    3    3    0    0  0.15383046197E+02 -0.39052880519E+02 -0.31326616959E+02  0.52374827133E+02  0.00000000000E+00 0. -1.
</event>
<event>
 7    1  0.5831876E-006  0.1117463E+03  0.7561462E-02  0.1257370E+00
          2   -1    0    0  501    0  0.00000000000E+00  0.00000000000E+00  0.40989816540E+03  0.40989816540E+03  0.00000000000E+00 0. -1.
         -2   -1    0    0    0  501 -0.00000000000E+00 -0.00000000000E+00 -0.83039903607E+02  0.83039903607E+02  0.00000000000E+00 0.  1.
         23    2    1    2    0    0 -0.14168406380E+02  0.75989649572E+02 -0.15971744175E+02  0.11990315574E+03  0.90257961214E+02 0.  0.
          5    1    1    2  502    0 -0.23088141179E+01 -0.10766429045E+03  0.21881255341E+03  0.24391255808E+03  0.41800000000E+01 0. -1.
         -5    1    1    2    0  502  0.16477220498E+02  0.31674640876E+02  0.12401745255E+03  0.12912235518E+03  0.41800000000E+01 0. -1.
        -11    1    3    3    0    0 -0.11143778586E+01  0.55297864858E+02 -0.52289378994E+02  0.76113565489E+02  0.00000000000E+00 0.  1.
         11    1    3    3    0    0 -0.13054028522E+02  0.20691784714E+02  0.36317634819E+02  0.43789590249E+02  0.00000000000E+00 0. -1.
</event>
<event>
 7    1  0.5831876E-006  0.8352956E+02  0.7561462E-02  0.1319323E+00
         -2   -1    0    0    0  501 -0.00000000000E+00  0.00000000000E+00  0.34090426494E+02  0.34090426494E+02  0.00000000000E+00 0. -1.
          2   -1    0    0  501    0  0.00000000000E+00 -0.00000000000E+00 -0.47267999270E+03  0.47267999270E+03  0.00000000000E+00 0.  1.
         23    2    1    2    0    0  0.80442685775E+01  0.25166526441E+02 -0.71007055438E+02  0.11758847784E+03  0.89927659198E+02 0.  0.
          5    1    1    2  502    0 -0.13984021406E+02 -0.47939707071E+02 -0.50307058914E+02  0.71007330223E+02  0.41800000000E+01 0.  1.
         -5    1    1    2    0  502  0.59397528285E+01  0.22773180630E+02 -0.31727545186E+03  0.31817461114E+03  0.41800000000E+01 0.  1.
        -11    1    3    3    0    0  0.30156638872E+02 -0.24384914693E+02 -0.22684572637E+02  0.44929241796E+02  0.00000000000E+00 0.  1.
         11    1    3    3    0    0 -0.22112370295E+02  0.49551441134E+02 -0.48322482800E+02  0.72659236044E+02  0.00000000000E+00 0. -1.
</event>
<event>
 7    1  0.5831876E-006  0.1947560E+03  0.7561462E-02  0.1154240E+00
         -2   -1    0    0    0  501 -0.00000000000E+00  0.00000000000E+00  0.25634455624E+03  0.25634455624E+03  0.00000000000E+00 0.  1.
          2   -1    0    0  501    0  0.00000000000E+00 -0.00000000000E+00 -0.16172749726E+03  0.16172749726E+03  0.00000000000E+00 0. -1.
         23    2    1    2    0    0  0.10025751419E+03 -0.13945699311E+03  0.39696314883E+02  0.19860910653E+03  0.91487472924E+02 0.  0.
          5    1    1    2  502    0 -0.94289682803E+02  0.16014173891E+03  0.62728198323E+02  0.19618414842E+03  0.41800000000E+01 0.  1.
         -5    1    1    2    0  502 -0.59678313840E+01 -0.20684745803E+02 -0.78074542280E+01  0.23278798549E+02  0.41800000000E+01 0.  1.
        -11    1    3    3    0    0  0.18455912994E+01 -0.45813099618E+02 -0.20252069994E+02  0.50123773231E+02  0.00000000000E+00 0. -1.
         11    1    3    3    0    0  0.98411922888E+02 -0.93643893493E+02  0.59948384877E+02  0.14848533330E+03  0.00000000000E+00 0.  1.
</event>
<event>
 7    1  0.5831876E-006  0.1196192E+03  0.7561462E-02  0.1243727E+00
          2   -1    0    0  501    0  0.00000000000E+00  0.00000000000E+00  0.23063689641E+02  0.23063689641E+02  0.00000000000E+00 0.  1.
         -2   -1    0    0    0  501 -0.00000000000E+00 -0.00000000000E+00 -0.70474061229E+03  0.70474061229E+03  0.00000000000E+00 0. -1.
         23    2    1    2    0    0  0.25655705394E+02 -0.62331055639E+02 -0.32073792850E+03  0.33990224652E+03  0.90096296759E+02 0.  0.
          5    1    1    2  502    0 -0.29032793942E+02  0.94175831098E+02 -0.19147596877E+03  0.21538920424E+03  0.41800000000E+01 0. -1.
         -5    1    1    2    0  502  0.33770885477E+01 -0.31844775459E+02 -0.16946302537E+03  0.17251285117E+03  0.41800000000E+01 0. -1.
        -11    1    3    3    0    0  0.26482862624E+02  0.15356714366E+02 -0.13763330942E+03  0.14099680333E+03  0.00000000000E+00 0. -1.
         11    1    3    3    0    0 -0.82715723009E+00 -0.77687770004E+02 -0.18310461909E+03  0.19890544318E+03  0.00000000000E+00 0.  1.
</event>
<event>
 7    1  0.5831876E-006  0.1169216E+03  0.7561462E-02  0.1248264E+00
          4   -1    0    0  501    0  0.00000000000E+00  0.00000000000E+00  0.59235115113E+03  0.59235115113E+03  0.00000000000E+00 0. -1.
         -4   -1    0    0    0  501 -0.00000000000E+00 -0.00000000000E+00 -0.29720897623E+02  0.29720897623E+02  0.00000000000E+00 0.  1.
         23    2    1    2    0    0 -0.19490643044E+02  0.54716833170E+02  0.13964979048E+03  0.17717203447E+03  0.92271603532E+02 0.  0.
          5    1    1    2  502    0 -0.26855137040E+02 -0.70631903996E+02  0.15553321040E+03  0.17296854103E+03  0.41800000000E+01 0. -1.
         -5    1    1    2    0  502  0.46345780084E+02  0.15915070826E+02  0.26744725263E+03  0.27193147326E+03  0.41800000000E+01 0. -1.
        -11    1    3    3    0    0  0.36254040824E+02  0.10250734001E+02  0.45769951745E+02  0.59281713085E+02  0.00000000000E+00 0.  1.
         11    1    3    3    0    0 -0.55744683868E+02  0.44466099169E+02  0.93879838737E+02  0.11789032138E+03  0.00000000000E+00 0. -1.
</event>
<event>
 7    1  0.5831876E-006  0.9460537E+02  0.7561462E-02  0.1292067E+00
         -1   -1    0    0    0  501 -0.00000000000E+00  0.00000000000E+00  0.37712047204E+03  0.37712047204E+03  0.00000000000E+00 0.  1.
          1   -1    0    0  501    0  0.00000000000E+00 -0.00000000000E+00 -0.37908390314E+02  0.37908390314E+02  0.00000000000E+00 0. -1.
         23    2    1    2    0    0  0.21298670112E+02  0.29333851712E+01  0.22245864314E+03  0.24255486975E+03  0.94248495119E+02 0.  0.
          5    1    1    2  502    0 -0.15485103137E+02  0.46187939939E+02  0.37370411234E+01  0.49036232435E+02  0.41800000000E+01 0.  1.
         -5    1    1    2    0  502 -0.58135669751E+01 -0.49121325111E+02  0.11301639747E+03  0.12343776018E+03  0.41800000000E+01 0.  1.
        -11    1    3    3    0    0  0.45894661713E+02 -0.25963269627E+02  0.85641108570E+02  0.10057241580E+03  0.00000000000E+00 0.  1.
         11    1    3    3    0    0 -0.24595991601E+02  0.28896654798E+02  0.13681753457E+03  0.14198245394E+03  0.00000000000E+00 0. -1.
</event>
<event>
 7    1  0.5831876E-006  0.1166510E+03  0.7561462E-02  0.1248726E+00
         -1   -1    0    0    0  501 -0.00000000000E+00  0.00000000000E+00  0.21471467888E+02  0.21471467888E+02  0.00000000000E+00 0.  1.
          1   -1    0    0  501    0  0.00000000000E+00 -0.00000000000E+00 -0.11941990819E+04  0.11941990819E+04  0.00000000000E+00 0. -1.
         23    2    1    2    0    0  0.48075174182E+01  0.10148783362E+03 -0.32421753914E+03  0.35199323460E+03  0.91974626498E+02 0.  0.
          5    1    1    2  502    0 -0.26539834040E+02 -0.97713457163E+02 -0.34270889762E+03  0.35737815183E+03  0.41800000000E+01 0. -1.
         -5    1    1    2    0  502  0.21732316622E+02 -0.37743764605E+01 -0.50580117728E+03  0.50629916338E+03  0.41800000000E+01 0. -1.
        -11    1    3    3    0    0  0.21920006695E+02  0.39157963391E+02 -0.38722576597E+02  0.59272849845E+02  0.00000000000E+00 0.  1.
         11    1    3    3    0    0 -0.17112489277E+02  0.62329870232E+02 -0.28549496255E+03  0.29272038476E+03  0.00000000000E+00 0. -1.
</event>
<event>
 7    1  0.5831876E-006  0.8641647E+02  0.7561462E-02  0.1311769E+00
          2   -1    0    0  501    0  0.00000000000E+00  0.00000000000E+00  0.82223501480E+02  0.82223501480E+02  0.00000000000E+00 0. -1.
         -2   -1    0    0    0  501 -0.00000000000E+00 -0.00000000000E+00 -0.18129610612E+03  0.18129610612E+03  0.00000000000E+00 0.  1.
         23    2    1    2    0    0  0.41423902831E+02 -0.43171165597E+02 -0.45765978162E+02  0.11495953832E+03  0.86841703287E+02 0.  0.
          5    1    1    2  502    0 -0.29863572025E+02  0.68672339025E+01  0.38318002102E+02  0.49241583246E+02  0.41800000000E+01 0. -1.
         -5    1    1    2    0  502 -0.11560330806E+02  0.36303931694E+02 -0.91624628583E+02  0.99318486033E+02  0.41800000000E+01 0. -1.
        -11    1    3    3    0    0  0.48806577642E+02  0.10063547609E+02 -0.11253365093E+02  0.51088112487E+02  0.00000000000E+00 0. -1.
         11    1    3    3    0    0 -0.73826748114E+01 -0.53234713206E+02 -0.34512613069E+02  0.63871425836E+02  0.00000000000E+00 0.  1.
</event>
<event>
 7    1  0.5831876E-006  0.9339356E+02  0.7561462E-02  0.1294836E+00
          1   -1    0    0  501    0  0.00000000000E+00  0.00000000000E+00  0.49661369014E+03  0.49661369014E+03  0.00000000000E+00 0. -1.
         -1   -1    0    0    0  501 -0.00000000000E+00 -0.00000000000E+00 -0.47527830380E+02  0.47527830380E+02  0.00000000000E+00 0.  1.
         23    2    1    2    0    0  0.32154851164E+02 -0.34706720566E+02  0.48594289413E+02  0.12190976191E+03  0.10130199494E+03 0.  0.
          5    1    1    2  502    0  0.40380478360E+02  0.13116636634E+02  0.25124522360E+03  0.25484164489E+03  0.41800000000E+01 0. -1.
         -5    1    1    2    0  502 -0.72535329524E+02  0.21590083932E+02  0.14924634675E+03  0.16739011372E+03  0.41800000000E+01 0. -1.
        -11    1    3    3    0    0  0.35597999970E+02 -0.45056024069E+02 -0.13398947252E+02  0.58964351046E+02  0.00000000000E+00 0.  1.
         11    1    3    3    0    0 -0.34431488064E+01  0.10349303503E+02  0.61993236665E+02  0.62945410865E+02  0.00000000000E+00 0. -1.
</event>
<event>
 7    1  0.5831876E-006  0.8803503E+02  0.7561462E-02  0.1307681E+00
          2   -1    0    0  501    0  0.00000000000E+00  0.00000000000E+00  0.32148332295E+03  0.32148332295E+03  0.00000000000E+00 0. -1.
         -2   -1    0    0    0  501 -0.00000000000E+00 -0.00000000000E+00 -0.41409909821E+02  0.41409909821E+02  0.00000000000E+00 0.  1.
         23    2    1    2    0    0  0.32872771976E+02 -0.26777097204E+02  0.11475006830E+03  0.15128435139E+03  0.89004183767E+02 0.  0.
          5    1    1    2  502    0 -0.49415826389E+01 -0.21084277498E+02  0.15313511384E+03  0.15471522707E+03  0.41800000000E+01 0.  1.
         -5    1    1    2    0  502 -0.27931189337E+02  0.47861374702E+02  0.12188230986E+02  0.56893654309E+02  0.41800000000E+01 0.  1.
        -11    1    3    3    0    0 -0.25751838950E+02 -0.30235030448E+02  0.42303563325E+02  0.58025044123E+02  0.00000000000E+00 0. -1.
         11    1    3    3    0    0  0.58624610926E+02  0.34579332442E+01  0.72446504977E+02  0.93259307267E+02  0.00000000000E+00 0.  1.
</event>
<event>
 7    1  0.5831876E-006  0.1174477E+03  0.7561462E-02  0.1247368E+00
          1   -1    0    0  501    0  0.00000000000E+00  0.00000000000E+00  0.12352050166E+03  0.12352050166E+03  0.00000000000E+00 0. -1.
         -1   -1    0    0    0  501 -0.00000000000E+00 -0.00000000000E+00 -0.18934713873E+03  0.18934713873E+03  0.00000000000E+00 0.  1.
         23    2    1    2    0    0 -0.66021508309E+02  0.82678052820E+02 -0.52508165282E+02  0.14849192553E+03  0.89990246970E+02 0.  0.
          5    1    1    2  502    0  0.45621616489E+02 -0.41908630121E+02 -0.68648501450E+02  0.92562164630E+02  0.41800000000E+01 0. -1.
         -5    1    1    2    0  502  0.20399891820E+02 -0.40769422699E+02  0.55330029661E+02  0.71813550224E+02  0.41800000000E+01 0. -1.
        -11    1    3    3    0    0 -0.78727431805E+02  0.53454592948E+02 -0.63930145391E+02  0.11464059279E+03  0.00000000000E+00 0.  1.
         11    1    3    3    0    0  0.12705923496E+02  0.29223459872E+02  0.11421980109E+02  0.33851332741E+02  0.00000000000E+00 0. -1.
</event>
<event>
 7    1  0.5831876E-006  0.9199751E+02  0.7561462E-02  0.1298085E+00
          1   -1    0    0  501    0  0.00000000000E+00  0.00000000000E+00  0.53029997504E+02  0.53029997504E+02  0.00000000000E+00 0. -1.
         -1   -1    0    0    0  501 -0.00000000000E+00 -0.00000000000E+00 -0.25202719771E+03  0.25202719771E+03  0.00000000000E+00 0.  1.
         23    2    1    2    0    0  0.20638998737E+02  0.39099734352E+02 -0.10912306733E+03  0.14480911048E+03  0.84303482492E+02 0.  0.
          5    1    1    2  502    0  0.70117495517E+01 -0.70763419458E+02 -0.12825386719E+02  0.72378098274E+02  0.41800000000E+01 0. -1.
         -5    1    1    2    0  502 -0.27650748289E+02  0.31663685106E+02 -0.77048746158E+02  0.87869986457E+02  0.41800000000E+01 0. -1.
        -11    1    3    3    0    0 -0.12750715772E+02  0.34539374266E+02 -0.10449699605E+03  0.11079337214E+03  0.00000000000E+00 0.  1.
         11    1    3    3    0    0  0.33389714509E+02  0.45603600866E+01 -0.46260712746E+01  0.34015738336E+02  0.00000000000E+00 0. -1.
</event>
<event>
 7    1  0.5831876E-006  0.1673893E+03  0.7561462E-02  0.1180598E+00
          2   -1    0    0  501    0  0.00000000000E+00  0.00000000000E+00  0.36008720480E+03  0.36008720480E+03  0.00000000000E+00 0.  1.
         -2   -1    0    0    0  501 -0.00000000000E+00 -0.00000000000E+00 -0.85509457555E+02  0.85509457555E+02  0.00000000000E+00 0. -1.
         23    2    1    2    0    0 -0.12232193209E+03  0.50383295735E+02  0.82099871608E+02  0.18065256229E+03  0.91617835514E+02 0.  0.
          5    1    1    2  502    0  0.31731366687E+02 -0.79930016099E+02  0.10195918363E+03  0.13344974572E+03  0.41800000000E+01 0. -1.
         -5    1    1    2    0  502  0.90590565399E+02  0.29546720364E+02  0.90518692009E+02  0.13149435435E+03  0.41800000000E+01 0. -1.
        -11    1    3    3    0    0 -0.18579144277E+02  0.45835260288E+02  0.19848361316E+01  0.49497426824E+02  0.00000000000E+00 0. -1.
         11    1    3    3    0    0 -0.10374278781E+03  0.45480354466E+01  0.80115035476E+02  0.13115513546E+03  0.00000000000E+00 0.  1.
</event>
<event>
 7    1  0.5831876E-006  0.2230443E+03  0.7561462E-02  0.1131634E+00
          1   -1    0    0  501    0  0.00000000000E+00  0.00000000000E+00  0.17069832184E+03  0.17069832184E+03  0.00000000000E+00 0. -1.
         -1   -1    0    0    0  501 -0.00000000000E+00 -0.00000000000E+00 -0.37950460720E+03  0.37950460720E+03  0.00000000000E+00 0.  1.
         23    2    1    2    0    0 -0.16982112868E+03 -0.12593953589E+03 -0.19988909807E+03  0.30438250966E+03  0.89404016771E+02 0.  0.
          5    1    1    2  502    0 -0.13741174112E+02  0.94604056644E+01  0.20099371166E+02  0.26453284533E+02  0.41800000000E+01 0.  1.
         -5    1    1    2    0  502  0.18356230279E+03  0.11647913023E+03 -0.29016558462E+02  0.21936713484E+03  0.41800000000E+01 0.  1.
        -11    1    3    3    0    0 -0.10372343627E+03 -0.74875568058E+02 -0.59637662292E+02  0.14114373060E+03  0.00000000000E+00 0. -1.
         11    1    3    3    0    0 -0.66097692410E+02 -0.51063967832E+02 -0.14025143578E+03  0.16323877906E+03  0.00000000000E+00 0.  1.
</event>
<event>
 7    1  0.1129893E-005  0.2635829E+03  0.7561462E-02  0.1105009E+00
          1   -1    0    0  501    0  0.00000000000E+00  0.00000000000E+00  0.83592661079E+03  0.83592661079E+03  0.00000000000E+00 0. -1.
         -1   -1    0    0    0  501 -0.00000000000E+00 -0.00000000000E+00 -0.84010857942E+02  0.84010857942E+02  0.00000000000E+00 0.  1.
         23    2    1    2    0    0  0.72569857237E+02  0.23201843331E+03  0.33887447307E+03  0.42461024979E+03  0.79743452096E+02 0.  0.
          5    1    1    2  502    0  0.12820461847E+02 -0.15721858384E+03  0.21011497269E+03  0.26276952163E+03  0.41800000000E+01 0. -1.
         -5    1    1    2    0  502 -0.85390319084E+02 -0.74799849464E+02  0.20292630710E+03  0.23255769732E+03  0.41800000000E+01 0. -1.
        -11    1    3    3    0    0  0.12021992190E+02  0.16506982968E+03  0.22410942931E+03  0.27859937773E+03  0.00000000000E+00 0.  1.
         11    1    3    3    0    0  0.60547865047E+02  0.66948603631E+02  0.11476504376E+03  0.14601087206E+03  0.00000000000E+00 0. -1.
</event>
<event>
 7    1  0.5831876E-006  0.1440282E+03  0.7561462E-02  0.1208009E+00
         -1   -1    0    0    0  501 -0.00000000000E+00  0.00000000000E+00  0.33268258690E+02  0.33268258690E+02  0.00000000000E+00 0.  1.
          1   -1    0    0  501    0  0.00000000000E+00 -0.00000000000E+00 -0.87935338700E+03  0.87935338700E+03  0.00000000000E+00 0. -1.
         23    2    1    2    0    0  0.16560205954E+02 -0.93826519018E+02 -0.16129063467E+03  0.21000608289E+03  0.94922230937E+02 0.  0.
          5    1    1    2  502    0 -0.66628207462E+02  0.28188479265E+02 -0.26317947918E+03  0.27297402634E+03  0.41800000000E+01 0.  1.
         -5    1    1    2    0  502  0.50068001509E+02  0.65638039753E+02 -0.42161501446E+03  0.42964153647E+03  0.41800000000E+01 0.  1.
        -11    1    3    3    0    0 -0.37824781954E+02 -0.25570413817E+02 -0.40811831783E+02  0.61238597356E+02  0.00000000000E+00 0.  1.
         11    1    3    3    0    0  0.54384987908E+02 -0.68256105200E+02 -0.12047880289E+03  0.14876748553E+03  0.00000000000E+00 0. -1.
</event>
<event>
 7    1  0.5831876E-006  0.1640077E+03  0.7561462E-02  0.1184245E+00
         -4   -1    0    0    0  501 -0.00000000000E+00  0.00000000000E+00  0.92783969658E+02  0.92783969658E+02  0.00000000000E+00 0.  1.
          4   -1    0    0  501    0  0.00000000000E+00 -0.00000000000E+00 -0.36874937819E+03  0.36874937819E+03  0.00000000000E+00 0. -1.
         23    2    1    2    0    0  0.77385771669E+02 -0.12780206074E+03 -0.12008796267E+03  0.21201684700E+03  0.90598566479E+02 0.  0.
          5    1    1    2  502    0 -0.82546461549E+02  0.12328290426E+03 -0.71485234272E+02  0.16474284178E+03  0.41800000000E+01 0.  1.
         -5    1    1    2    0  502  0.51606898800E+01  0.45191564743E+01 -0.84392211586E+02  0.84773659067E+02  0.41800000000E+01 0.  1.
        -11    1    3    3    0    0  0.88037349813E+02 -0.69155570877E+02 -0.96887536473E+02  0.14805493126E+03  0.00000000000E+00 0. -1.
         11    1    3    3    0    0 -0.10651578144E+02 -0.58646489861E+02 -0.23200426198E+02  0.63961915745E+02  0.00000000000E+00 0.  1.
</event>
<event>
 7    1  0.5831876E-006  0.1009326E+03  0.7561462E-02  0.1278347E+00
          2   -1    0    0  501    0  0.00000000000E+00  0.00000000000E+00  0.44430817311E+03  0.44430817311E+03  0.00000000000E+00 0. -1.
         -2   -1    0    0    0  501 -0.00000000000E+00 -0.00000000000E+00 -0.28044816445E+02  0.28044816445E+02  0.00000000000E+00 0.  1.
         23    2    1    2    0    0 -0.19177803206E+02 -0.16071875641E+02  0.15157965212E+03  0.17853086691E+03  0.90943862794E+02 0.  0.
          5    1    1    2  502    0  0.17689316014E+02 -0.53907540410E+02  0.10499899699E+03  0.11942025198E+03  0.41800000000E+01 0. -1.
         -5    1    1    2    0  502  0.14884871915E+01  0.69979416051E+02  0.15968470756E+03  0.17440187067E+03  0.41800000000E+01 0. -1.
        -11    1    3    3    0    0 -0.45396270750E+02 -0.17368430083E+02  0.37280882052E+02  0.61256411323E+02  0.00000000000E+00 0.  1.
         11    1    3    3    0    0  0.26218467545E+02  0.12965544420E+01  0.11429877007E+03  0.11727445559E+03  0.00000000000E+00 0. -1.
</event>
<event>
 7    1  0.5831876E-006  0.1222555E+03  0.7561462E-02  0.1239422E+00
          4   -1    0    0  501    0  0.00000000000E+00  0.00000000000E+00  0.35469805170E+02  0.35469805170E+02  0.00000000000E+00 0. -1.
         -4   -1    0    0    0  501 -0.00000000000E+00 -0.00000000000E+00 -0.45232413367E+03  0.45232413367E+03  0.00000000000E+00 0.  1.
         23    2    1    2    0    0 -0.48644536020E+02  0.42330555503E+02 -0.19528027950E+03  0.22530403651E+03  0.92029095901E+02 0.  0.
          5    1    1    2  502    0  0.47775784155E+02 -0.80515339746E+02 -0.11012595795E+03  0.14460444150E+03  0.41800000000E+01 0. -1.
         -5    1    1    2    0  502  0.86875186452E+00  0.38184784243E+02 -0.11144809105E+03  0.11788546083E+03  0.41800000000E+01 0. -1.
        -11    1    3    3    0    0 -0.40690477030E+02  0.71429152281E+02 -0.14294167220E+03  0.16489439156E+03  0.00000000000E+00 0.  1.
         11    1    3    3    0    0 -0.79540589894E+01 -0.29098596778E+02 -0.52338607302E+02  0.60409644952E+02  0.00000000000E+00 0. -1.
</event>
<event>
 7    1  0.5831876E-006  0.1759189E+03  0.7561462E-02  0.1171812E+00
          2   -1    0    0  501    0  0.00000000000E+00  0.00000000000E+00  0.19323468671E+03  0.19323468671E+03  0.00000000000E+00 0.  1.
         -2   -1    0    0    0  501 -0.00000000000E+00 -0.00000000000E+00 -0.26342076852E+03  0.26342076852E+03  0.00000000000E+00 0. -1.
         23    2    1    2    0    0  0.94535659346E+02 -0.12726442562E+03 -0.15298866774E+03  0.23834906279E+03  0.90947888138E+02 0.  0.
          5    1    1    2  502    0 -0.40811251648E+02  0.25457578579E+01  0.70862281759E+02  0.81920537841E+02  0.41800000000E+01 0. -1.
         -5    1    1    2    0  502 -0.53724407698E+02  0.12471866776E+03  0.11940304167E+02  0.13638585460E+03  0.41800000000E+01 0. -1.
        -11    1    3    3    0    0 -0.66234182674E+01 -0.42155326854E+02 -0.10432043224E+02  0.43929133585E+02  0.00000000000E+00 0.  1.
         11    1    3    3    0    0  0.10115907761E+03 -0.85109098768E+02 -0.14255662452E+03  0.19441992920E+03  0.00000000000E+00 0. -1.
</event>
<event>
 6    1  0.5831876E-006  0.8134626E+02  0.7561462E-02  0.1325274E+00
         -2   -1    0    0    0  501 -0.00000000000E+00  0.00000000000E+00  0.21261242824E+02  0.21261242824E+02  0.00000000000E+00 0.  1.
          2   -1    0    0  501    0  0.00000000000E+00 -0.00000000000E+00 -0.58644942440E+03  0.58644942440E+03  0.00000000000E+00 0. -1.
          5    1    1    2  502    0 -0.52660256934E+02 -0.30920700372E+02 -0.43309900099E+03  0.43740302860E+03  0.41800000000E+01 0. -1.
         -5    1    1    2    0  502  0.55723989457E+02  0.53940525881E+02 -0.11884731621E+03  0.14197499886E+03  0.41800000000E+01 0.  1.
        -11    1    1    2    0    0  0.97768542253E+00 -0.12617962870E+02 -0.26155868795E+01  0.12923240712E+02  0.00000000000E+00 0. -1.
         11    1    1    2    0    0 -0.40414179456E+01 -0.10401862639E+02 -0.10626277500E+02  0.15409399044E+02  0.00000000000E+00 0.  1.
</event>
<event>
 7    1  0.5831876E-006  0.1044485E+03  0.7561462E-02  0.1271210E+00
          1   -1    0    0  501    0  0.00000000000E+00  0.00000000000E+00  0.14305944389E+04  0.14305944389E+04  0.00000000000E+00 0. -1.
         -1   -1    0    0    0  501 -0.00000000000E+00 -0.00000000000E+00 -0.13170463562E+02  0.13170463562E+02  0.00000000000E+00 0.  1.
         23    2    1    2    0    0 -0.74932241177E+02 -0.29577755717E+02  0.55389337627E+03  0.56751015009E+03  0.93702794969E+02 0.  0.
          5    1    1    2  502    0 -0.97097468120E+01  0.79593839985E+01  0.56554003270E+03  0.56569482229E+03  0.41800000000E+01 0. -1.
         -5    1    1    2    0  502  0.84641987989E+02  0.21618371718E+02  0.29799056638E+03  0.31055993009E+03  0.41800000000E+01 0. -1.
        -11    1    3    3    0    0  0.11842690190E+01  0.18263932956E+02  0.24740975819E+02  0.30774821276E+02  0.00000000000E+00 0.  1.
         11    1    3    3    0    0 -0.76116510196E+02 -0.47841688673E+02  0.52915240045E+03  0.53673532882E+03  0.00000000000E+00 0. -1.
</event>
<event>
 7    1  0.5831876E-006  0.1577910E+03  0.7561462E-02  0.1191214E+00
          1   -1    0    0  501    0  0.00000000000E+00  0.00000000000E+00  0.78081019151E+03  0.78081019151E+03  0.00000000000E+00 0. -1.
         -1   -1    0    0    0  501 -0.00000000000E+00 -0.00000000000E+00 -0.69465581551E+02  0.69465581551E+02  0.00000000000E+00 0.  1.
         23    2    1    2    0    0  0.17652942311E+02  0.11445314231E+03  0.35682407339E+02  0.15344196534E+03  0.94127861855E+02 0.  0.
          5    1    1    2  502    0  0.34714750044E+02  0.54986235306E+01  0.89997908127E+02  0.96708037921E+02  0.41800000000E+01 0.  1.
         -5    1    1    2    0  502 -0.52367692355E+02 -0.11995176584E+03  0.58566429449E+03  0.60012576980E+03  0.41800000000E+01 0.  1.
        -11    1    3    3    0    0  0.55085691809E+02  0.86361720977E+02  0.24558973917E+02  0.10533718950E+03  0.00000000000E+00 0. -1.
         11    1    3    3    0    0 -0.37432749498E+02  0.28091421334E+02  0.11123433422E+02  0.48104775840E+02  0.00000000000E+00 0.  1.
</event>
<event>
 7    1  0.5831876E-006  0.1515152E+03  0.7561462E-02  0.1198623E+00
          2   -1    0    0  501    0  0.00000000000E+00  0.00000000000E+00  0.15032635216E+03  0.15032635216E+03  0.00000000000E+00 0.  1.
         -2   -1    0    0    0  501 -0.00000000000E+00 -0.00000000000E+00 -0.23665627453E+03  0.23665627453E+03  0.00000000000E+00 0. -1.
         23    2    1    2    0    0 -0.11532244148E+03  0.44174309864E+02 -0.13637137147E+03  0.20422090520E+03  0.88647571901E+02 0.  0.
          5    1    1    2  502    0  0.10288136648E+03  0.15088851298E+02 -0.44959404727E-01  0.10406595709E+03  0.41800000000E+01 0. -1.
         -5    1    1    2    0  502  0.12441074992E+02 -0.59263161162E+02  0.50086408506E+02  0.78695764402E+02  0.41800000000E+01 0. -1.
        -11    1    3    3    0    0 -0.13788370937E+01  0.22174615025E+02  0.34835417814E+01  0.22488881843E+02  0.00000000000E+00 0.  1.
         11    1    3    3    0    0 -0.11394360438E+03  0.21999694840E+02 -0.13985491325E+03  0.18173202335E+03  0.00000000000E+00 0. -1.
</event>
<event>
 7    1  0.5831876E-006  0.1951124E+03  0.7561462E-02  0.1153929E+00
         -1   -1    0    0    0  501 -0.00000000000E+00  0.00000000000E+00  0.11376563829E+03  0.11376563829E+03  0.00000000000E+00 0.  1.
          1   -1    0    0  501    0  0.00000000000E+00 -0.00000000000E+00 -0.39864108791E+03  0.39864108791E+03  0.00000000000E+00 0. -1.
         23    2    1    2    0    0 -0.48204288335E+02  0.17652105425E+03 -0.11236985931E+03  0.23153354738E+03  0.86587887585E+02 0.  0.
          5    1    1    2  502    0  0.18121956703E+02 -0.16153368583E+03 -0.18358444780E+03  0.24523918702E+03  0.41800000000E+01 0.  1.
         -5    1    1    2    0  502  0.30082331632E+02 -0.14987368413E+02  0.11078857489E+02  0.35633991801E+02  0.41800000000E+01 0.  1.
        -11    1    3    3    0    0 -0.28876857180E+02  0.17132620823E+03 -0.11884238482E+03  0.21049953667E+03  0.00000000000E+00 0.  1.
         11    1    3    3    0    0 -0.19327431155E+02  0.51948460214E+01  0.64725255187E+01  0.21034010716E+02  0.00000000000E+00 0. -1.
</event>
<event>
 7    1  0.5831876E-006  0.8379072E+02  0.7561462E-02  0.1318626E+00
         -1   -1    0    0    0  501 -0.00000000000E+00  0.00000000000E+00  0.15826735048E+03  0.15826735048E+03  0.00000000000E+00 0.  1.
          1   -1    0    0  501    0  0.00000000000E+00 -0.00000000000E+00 -0.88065466638E+02  0.88065466638E+02  0.00000000000E+00 0. -1.
         23    2    1    2    0    0 -0.16035491448E+02 -0.23894249566E+01  0.57679986069E+02  0.12986720967E+03  0.11522007211E+03 0.  0.
          5    1    1    2  502    0  0.43857427286E+02 -0.13739746671E+01  0.51793253724E+02  0.68010111497E+02  0.41800000000E+01 0. -1.
         -5    1    1    2    0  502 -0.27821935837E+02  0.37633996237E+01 -0.39271355948E+02  0.48455495957E+02  0.41800000000E+01 0.  1.
        -11    1    3    3    0    0  0.35955364258E+02 -0.18834014693E+02  0.63144120050E+02  0.75064560381E+02  0.00000000000E+00 0. -1.
         11    1    3    3    0    0 -0.51990855706E+02  0.16444589736E+02 -0.54641339810E+01  0.54802649286E+02  0.00000000000E+00 0.  1.
</event>
<event>
 7    1  0.5831876E-006  0.9884028E+02  0.7561462E-02  0.1282754E+00
          1   -1    0    0  501    0  0.00000000000E+00  0.00000000000E+00  0.42809915850E+03  0.42809915850E+03  0.00000000000E+00 0. -1.
         -1   -1    0    0    0  501 -0.00000000000E+00 -0.00000000000E+00 -0.57949108835E+02  0.57949108835E+02  0.00000000000E+00 0.  1.
         23    2    1    2    0    0  0.80218222778E+02 -0.26981530912E+02  0.41653266430E+02  0.12449641491E+03  0.81248978112E+02 0.  0.
          5    1    1    2  502    0 -0.46575293728E+02  0.25508035228E+02  0.32277310024E+03  0.32713890702E+03  0.41800000000E+01 0.  1.
         -5    1    1    2    0  502 -0.33642929050E+02  0.14734956836E+01  0.57236829922E+01  0.34412945407E+02  0.41800000000E+01 0.  1.
        -11    1    3    3    0    0  0.49185276005E+02 -0.51288007941E+02  0.59456910219E+01  0.71309202604E+02  0.00000000000E+00 0. -1.
         11    1    3    3    0    0  0.31032946773E+02  0.24306477029E+02  0.35707575408E+02  0.53187212302E+02  0.00000000000E+00 0.  1.
</event>
<event>
 7    1  0.5831876E-006  0.2058564E+03  0.7561462E-02  0.1144890E+00
         -2   -1    0    0    0  501 -0.00000000000E+00  0.00000000000E+00  0.55792073366E+02  0.55792073366E+02  0.00000000000E+00 0.  1.
          2   -1    0    0  501    0  0.00000000000E+00 -0.00000000000E+00 -0.80160246898E+03  0.80160246898E+03  0.00000000000E+00 0. -1.
         23    2    1    2    0    0 -0.12113209968E+03 -0.13126262482E+03 -0.30030922414E+03  0.36138980676E+03  0.92271881303E+02 0.  0.
          5    1    1    2  502    0 -0.22440877156E+02  0.31382802648E+02 -0.48123619698E+02  0.61820938544E+02  0.41800000000E+01 0.  1.
         -5    1    1    2    0  502  0.14357297684E+03  0.99879822173E+02 -0.39737755178E+03  0.43418379704E+03  0.41800000000E+01 0.  1.
        -11    1    3    3    0    0 -0.23016049130E+02 -0.87587314758E+02 -0.10636937196E+03  0.13969867399E+03  0.00000000000E+00 0.  1.
         11    1    3    3    0    0 -0.98116050553E+02 -0.43675310064E+02 -0.19393985218E+03  0.22169113277E+03  0.00000000000E+00 0. -1.
</event>
<event>
 7    1  0.5831876E-006  0.1054745E+03  0.7561462E-02  0.1269188E+00
         -2   -1    0    0    0  501 -0.00000000000E+00  0.00000000000E+00  0.74095884891E+02  0.74095884891E+02  0.00000000000E+00 0.  1.
          2   -1    0    0  501    0  0.00000000000E+00 -0.00000000000E+00 -0.23321407312E+03  0.23321407312E+03  0.00000000000E+00 0. -1.
         23    2    1    2    0    0  0.74283526679E+01 -0.14478037591E+02  0.14412236172E+02  0.92776673540E+02  0.90194260382E+02 0.  0.
          5    1    1    2  502    0 -0.46093953530E+02  0.49380413669E+02 -0.12983447097E+03  0.14641564144E+03  0.41800000000E+01 0. -1.
         -5    1    1    2    0  502  0.38665600862E+02 -0.34902376078E+02 -0.43695953430E+02  0.68117643031E+02  0.41800000000E+01 0. -1.
        -11    1    3    3    0    0  0.45852548983E+02 -0.23529621447E+02  0.13560585577E+02  0.53291545435E+02  0.00000000000E+00 0.  1.
         11    1    3    3    0    0 -0.38424196315E+02  0.90515838555E+01  0.85165059550E+00  0.39485128105E+02  0.00000000000E+00 0. -1.
</event>
<event>
 7    1  0.5831876E-006  0.1116056E+03  0.7561462E-02  0.1257625E+00
          2   -1    0    0  501    0  0.00000000000E+00  0.00000000000E+00  0.45432875540E+03  0.45432875540E+03  0.00000000000E+00 0. -1.
         -2   -1    0    0    0  501 -0.00000000000E+00 -0.00000000000E+00 -0.34203943533E+02  0.34203943533E+02  0.00000000000E+00 0.  1.
         23    2    1    2    0    0  0.37661859501E+02  0.32772555866E+02  0.11388586580E+03  0.15398432155E+03  0.90822490466E+02 0.  0.
          5    1    1    2  502    0 -0.60655849907E+02 -0.68023445760E+02  0.22866067256E+03  0.24618996096E+03  0.41800000000E+01 0.  1.
         -5    1    1    2    0  502  0.22993990405E+02  0.35250889894E+02  0.77578273503E+02  0.88358416423E+02  0.41800000000E+01 0.  1.
        -11    1    3    3    0    0 -0.12367953121E+02 -0.15723765543E+02 -0.54140457290E+00  0.20012400810E+02  0.00000000000E+00 0.  1.
         11    1    3    3    0    0  0.50029812622E+02  0.48496321409E+02  0.11442727037E+03  0.13397192074E+03  0.00000000000E+00 0. -1.
</event>
<event>
 7    1  0.5831876E-006  0.1859881E+03  0.7561462E-02  0.1162130E+00
          1   -1    0    0  501    0  0.00000000000E+00  0.00000000000E+00  0.13889062380E+03  0.13889062380E+03  0.00000000000E+00 0. -1.
         -1   -1    0    0    0  501 -0.00000000000E+00 -0.00000000000E+00 -0.33995559704E+03  0.33995559704E+03  0.00000000000E+00 0.  1.
         23    2    1    2    0    0  0.70333235353E+02  0.15952456958E+03 -0.17503418172E+03  0.26270146318E+03  0.89332198518E+02 0.  0.
          5    1    1    2  502    0 -0.80761637591E+01 -0.64363965925E+02  0.47634635435E+02  0.80588308232E+02  0.41800000000E+01 0.  1.
         -5    1    1    2    0  502 -0.62257071594E+02 -0.95160603655E+02 -0.73665426961E+02  0.13555644943E+03  0.41800000000E+01 0.  1.
        -11    1    3    3    0    0  0.75832574142E+02  0.69116530184E+02 -0.71061123724E+02  0.12480928391E+03  0.00000000000E+00 0. -1.
         11    1    3    3    0    0 -0.54993387889E+01  0.90408039395E+02 -0.10397305800E+03  0.13789217927E+03  0.00000000000E+00 0.  1.
</event>
<event>
 7    1  0.5831876E-006  0.1530991E+03  0.7561462E-02  0.1196716E+00
         -2   -1    0    0    0  501 -0.00000000000E+00  0.00000000000E+00  0.49121050710E+03  0.49121050710E+03  0.00000000000E+00 0.  1.
          2   -1    0    0  501    0  0.00000000000E+00 -0.00000000000E+00 -0.58501013089E+02  0.58501013089E+02  0.00000000000E+00 0. -1.
         23    2    1    2    0    0 -0.67123416402E+02  0.83544925081E+02  0.32011864080E+03  0.35018946953E+03  0.93120421205E+02 0.  0.
          5    1    1    2  502    0 -0.21983441965E+02 -0.70663024107E+02  0.58313048042E+02  0.94310225683E+02  0.41800000000E+01 0.  1.
         -5    1    1    2    0  502  0.89106858367E+02 -0.12881900974E+02  0.54277805168E+02  0.10521182498E+03  0.41800000000E+01 0.  1.
        -11    1    3    3    0    0 -0.22956592720E+02  0.93830428572E+02  0.21459331463E+03  0.23533262663E+03  0.00000000000E+00 0. -1.
         11    1    3    3    0    0 -0.44166823682E+02 -0.10285503491E+02  0.10552532617E+03  0.11485684289E+03  0.00000000000E+00 0.  1.
</event>
<event>
 7    1  0.5831876E-006  0.7494345E+02  0.7561462E-02  0.1344046E+00
          2   -1    0    0  501    0  0.00000000000E+00  0.00000000000E+00  0.53711265722E+03  0.53711265722E+03  0.00000000000E+00 0. -1.
         -2   -1    0    0    0  501 -0.00000000000E+00 -0.00000000000E+00 -0.24026837740E+02  0.24026837740E+02  0.00000000000E+00 0.  1.
         23    2    1    2    0    0 -0.20222648742E+02  0.16300554102E+02  0.13359606429E+03  0.16072203776E+03  0.85492698185E+02 0.  0.
          5    1    1    2  502    0 -0.27931278835E+02 -0.32603465297E+02  0.46044049635E+02  0.63092544675E+02  0.41800000000E+01 0. -1.
         -5    1    1    2    0  502  0.48153927577E+02  0.16302911195E+02  0.33344570556E+03  0.33732491253E+03  0.41800000000E+01 0. -1.
        -11    1    3    3    0    0  0.16021597848E+02  0.51474545123E-01 -0.48109140657E+01  0.16728393269E+02  0.00000000000E+00 0.  1.
         11    1    3    3    0    0 -0.36244246589E+02  0.16249079557E+02  0.13840697835E+03  0.14399364449E+03  0.00000000000E+00 0. -1.
</event>
<event>
 7    1  0.5831876E-006  0.1424559E+03  0.7561462E-02  0.1210062E+00
          2   -1    0    0  501    0  0.00000000000E+00  0.00000000000E+00  0.22025151870E+03  0.22025151870E+03  0.00000000000E+00 0. -1.
         -2   -1    0    0    0  501 -0.00000000000E+00 -0.00000000000E+00 -0.10304690789E+03  0.10304690789E+03  0.00000000000E+00 0.  1.
         23    2    1    2    0    0 -0.19211242314E+02  0.48015229802E+02  0.41387108281E+01  0.10433339380E+03  0.90519578045E+02 0.  0.
          5    1    1    2  502    0 -0.13368500940E+02 -0.11233370165E+03  0.84660667425E+02  0.14135939429E+03  0.41800000000E+01 0. -1.
         -5    1    1    2    0  502  0.32579743254E+02  0.64318471849E+02  0.28405232553E+02  0.77605638506E+02  0.41800000000E+01 0.  1.
        -11    1    3    3    0    0  0.33274220755E+02  0.10213648633E+02 -0.13431361935E+02  0.37308093877E+02  0.00000000000E+00 0. -1.
         11    1    3    3    0    0 -0.52485463069E+02  0.37801581168E+02  0.17570072763E+02  0.67025299919E+02  0.00000000000E+00 0.  1.
</event>
<event>
 7    1  0.5831876E-006  0.1322129E+03  0.7561462E-02  0.1224209E+00
         -1   -1    0    0    0  501 -0.00000000000E+00  0.00000000000E+00  0.33864956996E+02  0.33864956996E+02  0.00000000000E+00 0.  1.
          1   -1    0    0  501    0  0.00000000000E+00 -0.00000000000E+00 -0.57434681813E+03  0.57434681813E+03  0.00000000000E+00 0. -1.
         23    2    1    2    0    0  0.86885969750E+02  0.22879488098E+01 -0.27161261460E+03  0.29919408064E+03  0.90494635374E+02 0.  0.
          5    1    1    2  502    0 -0.34318668402E+02 -0.58182864403E+02 -0.78050583277E+02  0.10330722463E+03  0.41800000000E+01 0.  1.
         -5    1    1    2    0  502 -0.52567301348E+02  0.55894915594E+02 -0.19081866325E+03  0.20571046985E+03  0.41800000000E+01 0.  1.
        -11    1    3    3    0    0 -0.40117250845E+01 -0.24746402410E+02 -0.27009548139E+02  0.36850970965E+02  0.00000000000E+00 0.  1.
         11    1    3    3    0    0  0.90897694835E+02  0.27034351220E+02 -0.24460306646E+03  0.26234310968E+03  0.00000000000E+00 0. -1.
</event>
<event>
 7    1  0.5831876E-006  0.6631570E+02  0.7561462E-02  0.1373090E+00
          2   -1    0    0  501    0  0.00000000000E+00  0.00000000000E+00  0.34213564654E+03  0.34213564654E+03  0.00000000000E+00 0. -1.
         -2   -1    0    0    0  501 -0.00000000000E+00 -0.00000000000E+00 -0.37373040957E+02  0.37373040957E+02  0.00000000000E+00 0.  1.
         23    2    1    2    0    0 -0.35208223194E+01 -0.64680065943E+01  0.77794201814E+02  0.12024919246E+03  0.91398573028E+02 0.  0.
          5    1    1    2  502    0  0.32184300281E+02  0.17323187134E+02  0.22529669599E+03  0.22828051958E+03  0.41800000000E+01 0.  1.
         -5    1    1    2    0  502 -0.28663477961E+02 -0.10855180540E+02  0.16717077766E+01  0.30978975455E+02  0.41800000000E+01 0.  1.
        -11    1    3    3    0    0 -0.29942653292E+02 -0.19210186045E+02 -0.15980966266E+01  0.35611060738E+02  0.00000000000E+00 0.  1.
         11    1    3    3    0    0  0.26421830973E+02  0.12742179451E+02  0.79392298440E+02  0.84638131718E+02  0.00000000000E+00 0. -1.
</event>
<event>
 7    1  0.5831876E-006  0.8128053E+02  0.7561462E-02  0.1325456E+00
          2   -1    0    0  501    0  0.00000000000E+00  0.00000000000E+00  0.34338395652E+03  0.34338395652E+03  0.00000000000E+00 0. -1.
         -2   -1    0    0    0  501 -0.00000000000E+00 -0.00000000000E+00 -0.41244856407E+02  0.41244856407E+02  0.00000000000E+00 0.  1.
         23    2    1    2    0    0  0.49713563922E+02  0.17652620906E+01  0.10901190359E+03  0.14921707400E+03  0.88924605499E+02 0.  0.
          5    1    1    2  502    0 -0.28982754715E+02 -0.31465278585E+02  0.44143435238E+01  0.43209057570E+02  0.41800000000E+01 0.  1.
         -5    1    1    2    0  502 -0.20730809207E+02  0.29700016495E+02  0.18871285300E+03  0.19220268135E+03  0.41800000000E+01 0.  1.
        -11    1    3    3    0    0  0.70928205886E+01  0.30761756726E+02  0.34701129635E+01  0.31759021785E+02  0.00000000000E+00 0.  1.
         11    1    3    3    0    0  0.42620743333E+02 -0.28996494636E+02  0.10554179062E+03  0.11745805222E+03  0.00000000000E+00 0. -1.
</event>
<event>
 7    1  0.5831876E-006  0.1614865E+03  0.7561462E-02  0.1187029E+00
          1   -1    0    0  501    0  0.00000000000E+00  0.00000000000E+00  0.27068205844E+02  0.27068205844E+02  0.00000000000E+00 0. -1.
         -1   -1    0    0    0  501 -0.00000000000E+00 -0.00000000000E+00 -0.11360714588E+04  0.11360714588E+04  0.00000000000E+00 0.  1.
         23    2    1    2    0    0  0.53194982433E+02  0.12594852037E+03 -0.56695945889E+03  0.59029365962E+03  0.91163811997E+02 0.  0.
          5    1    1    2  502    0 -0.34486803950E+02 -0.14077849125E+03 -0.34381261467E+03  0.37313872708E+03  0.41800000000E+01 0. -1.
         -5    1    1    2    0  502 -0.18708178483E+02  0.14829970880E+02 -0.19823117941E+03  0.19970727796E+03  0.41800000000E+01 0. -1.
        -11    1    3    3    0    0  0.48511631441E+02  0.28682376666E+02 -0.31822427155E+03  0.32317602653E+03  0.00000000000E+00 0.  1.
         11    1    3    3    0    0  0.46833509923E+01  0.97266143701E+02 -0.24873518734E+03  0.26711763309E+03  0.00000000000E+00 0. -1.
</event>
<event>
 7    1  0.5831876E-006  0.1289411E+03  0.7561462E-02  0.1229035E+00
          2   -1    0    0  501    0  0.00000000000E+00  0.00000000000E+00  0.37640240858E+02  0.37640240858E+02  0.00000000000E+00 0.  1.
         -2   -1    0    0    0  501 -0.00000000000E+00 -0.00000000000E+00 -0.69846908384E+03  0.69846908384E+03  0.00000000000E+00 0. -1.
         23    2    1    2    0    0  0.11274966594E+03  0.17525323144E+02 -0.39126664910E+03  0.41778522329E+03  0.91843769445E+02 0.  0.
          5    1    1    2  502    0 -0.20994054060E+02 -0.80567085261E+01 -0.20351639468E+03  0.20479759804E+03  0.41800000000E+01 0.  1.
         -5    1    1    2    0  502 -0.91755611881E+02 -0.94686146183E+01 -0.66045799208E+02  0.11352650337E+03  0.41800000000E+01 0.  1.
        -11    1    3    3    0    0  0.12059267288E+03  0.33256767415E+02 -0.30339118798E+03  0.32816888682E+03  0.00000000000E+00 0.  1.
         11    1    3    3    0    0 -0.78430069404E+01 -0.15731444271E+02 -0.87875461120E+02  0.89616336478E+02  0.00000000000E+00 0. -1.
</event>
<event>
 7    1  0.5831876E-006  0.1082724E+03  0.7561462E-02  0.1263803E+00
          1   -1    0    0  501    0  0.00000000000E+00  0.00000000000E+00  0.11077453207E+03  0.11077453207E+03  0.00000000000E+00 0. -1.
         -1   -1    0    0    0  501 -0.00000000000E+00 -0.00000000000E+00 -0.12456977229E+03  0.12456977229E+03  0.00000000000E+00 0.  1.
         23    2    1    2    0    0  0.16116575235E+02  0.30443333016E+02 -0.33496863759E+02  0.10410462588E+03  0.92353628654E+02 0.  0.
          5    1    1    2  502    0 -0.46632058998E+02 -0.59631178101E+02 -0.13943280925E+02  0.77086404839E+02  0.41800000000E+01 0.  1.
         -5    1    1    2    0  502  0.30515483763E+02  0.29187845084E+02  0.33644904462E+02  0.54153273643E+02  0.41800000000E+01 0.  1.
        -11    1    3    3    0    0  0.17185053472E+02  0.63214071881E+02 -0.25937371046E+02  0.70456313865E+02  0.00000000000E+00 0.  1.
         11    1    3    3    0    0 -0.10684782370E+01 -0.32770738864E+02 -0.75594927124E+01  0.33648312016E+02  0.00000000000E+00 0. -1.
</event>
<event>
 7    1  0.5831876E-006  0.1286895E+03  0.7561462E-02  0.1229413E+00
          2   -1    0    0  501    0  0.00000000000E+00  0.00000000000E+00  0.24527253566E+03  0.24527253566E+03  0.00000000000E+00 0. -1.
         -2   -1    0    0    0  501 -0.00000000000E+00 -0.00000000000E+00 -0.91369983719E+02  0.91369983719E+02  0.00000000000E+00 0.  1.
         23    2    1    2    0    0 -0.29421726006E+02  0.69428499070E+02  0.28409956077E+01  0.12651266632E+03  0.10154520687E+03 0.  0.
          5    1    1    2  502    0  0.33523366192E+02 -0.10484940670E+03  0.11313462312E+03  0.15790544485E+03  0.41800000000E+01 0.  1.
         -5    1    1    2    0  502 -0.41016401860E+01  0.35420907631E+02  0.37926933214E+02  0.52224408208E+02  0.41800000000E+01 0.  1.
        -11    1    3    3    0    0 -0.25174862623E+02 -0.13306888273E+02 -0.26230607651E+02  0.38715523519E+02  0.00000000000E+00 0.  1.
         11    1    3    3    0    0 -0.42468633829E+01  0.82735387343E+02  0.29071603259E+02  0.87797142798E+02  0.00000000000E+00 0. -1.
</event>
<event>
 7    1  0.5831876E-006  0.1389142E+03  0.7561462E-02  0.1214798E+00
         -2   -1    0    0    0  501 -0.00000000000E+00  0.00000000000E+00  0.13586345564E+03  0.13586345564E+03  0.00000000000E+00 0.  1.
          2   -1    0    0  501    0  0.00000000000E+00 -0.00000000000E+00 -0.27096681613E+03  0.27096681613E+03  0.00000000000E+00 0. -1.
         23    2    1    2    0    0 -0.11227869563E+03 -0.52237461231E+02  0.39878981231E+02  0.15864208522E+03  0.90783920432E+02 0.  0.
          5    1    1    2  502    0  0.25423957459E+02  0.37999387890E+02  0.65746216426E+01  0.46379188680E+02  0.41800000000E+01 0. -1.
         -5    1    1    2    0  502  0.86854738173E+02  0.14238073341E+02 -0.18155696336E+03  0.20180899787E+03  0.41800000000E+01 0. -1.
        -11    1    3    3    0    0 -0.66263447073E+02  0.93555671125E+01 -0.90197200747E+01  0.67525746232E+02  0.00000000000E+00 0.  1.
         11    1    3    3    0    0 -0.46015248559E+02 -0.61593028343E+02  0.48898701305E+02  0.91116338984E+02  0.00000000000E+00 0. -1.
</event>
<event>
 7    1  0.5831876E-006  0.1041426E+03  0.7561462E-02  0.1271818E+00
         -2   -1    0    0    0  501 -0.00000000000E+00  0.00000000000E+00  0.98192794777E+02  0.98192794777E+02  0.00000000000E+00 0. -1.
          2   -1    0    0  501    0  0.00000000000E+00 -0.00000000000E+00 -0.17433895032E+03  0.17433895032E+03  0.00000000000E+00 0.  1.
         23    2    1    2    0    0  0.58446244992E+01  0.78844385261E+02 -0.57037739193E+01  0.10863980777E+03  0.74293189953E+02 0.  0.
          5    1    1    2  502    0  0.45438343909E+01  0.13453093653E+02 -0.69349099909E+02  0.70911227729E+02  0.41800000000E+01 0. -1.
         -5    1    1    2    0  502 -0.10388458890E+02 -0.92297478914E+02 -0.10932817162E+01  0.92980709595E+02  0.41800000000E+01 0. -1.
        -11    1    3    3    0    0 -0.27142975485E+02  0.49042501345E+02 -0.23466384214E+02  0.60766596453E+02  0.00000000000E+00 0. -1.
         11    1    3    3    0    0  0.32987599985E+02  0.29801883916E+02  0.17762610294E+02  0.47873211321E+02  0.00000000000E+00 0.  1.
</event>
<event>
 7    1  0.5831876E-006  0.1065074E+03  0.7561462E-02  0.1267178E+00
         -2   -1    0    0    0  501 -0.00000000000E+00  0.00000000000E+00  0.20231324740E+02  0.20231324740E+02  0.00000000000E+00 0.  1.
          2   -1    0    0  501    0  0.00000000000E+00 -0.00000000000E+00 -0.99382278154E+03  0.99382278154E+03  0.00000000000E+00 0. -1.
         23    2    1    2    0    0 -0.58662601049E+01  0.62778516256E+02 -0.20726601103E+03  0.23503063536E+03  0.91129825634E+02 0.  0.
          5    1    1    2  502    0  0.32966426388E+02  0.11078319597E+02 -0.50165535361E+03  0.50287680463E+03  0.41800000000E+01 0.  1.
         -5    1    1    2    0  502 -0.27100166283E+02 -0.73856835853E+02 -0.26467009217E+03  0.27614666629E+03  0.41800000000E+01 0.  1.
        -11    1    3    3    0    0  0.64055928587E+01 -0.17166294575E+02 -0.80329787410E+01  0.20006050004E+02  0.00000000000E+00 0.  1.
         11    1    3    3    0    0 -0.12271852964E+02  0.79944810831E+02 -0.19923303229E+03  0.21502458536E+03  0.00000000000E+00 0. -1.
</event>
<event>
 7    1  0.5831876E-006  0.9367575E+02  0.7561462E-02  0.1294187E+00
          2   -1    0    0  501    0  0.00000000000E+00  0.00000000000E+00  0.26332009438E+02  0.26332009438E+02  0.00000000000E+00 0. -1.
         -2   -1    0    0    0  501 -0.00000000000E+00 -0.00000000000E+00 -0.58101029398E+03  0.58101029398E+03  0.00000000000E+00 0.  1.
         23    2    1    2    0    0  0.17936644127E+02 -0.57736045776E+02 -0.24150273891E+03  0.26473153165E+03  0.90022423678E+02 0.  0.
          5    1    1    2  502    0 -0.37576948409E+02  0.98029909268E+01 -0.18197913559E+02  0.43090162923E+02  0.41800000000E+01 0. -1.
         -5    1    1    2    0  502  0.19640304282E+02  0.47933054849E+02 -0.29497763208E+03  0.29952060885E+03  0.41800000000E+01 0. -1.
        -11    1    3    3    0    0  0.44793433669E+02 -0.17808127959E+02 -0.60034559721E+02  0.76991749442E+02  0.00000000000E+00 0. -1.
         11    1    3    3    0    0 -0.26856789542E+02 -0.39927917816E+02 -0.18146817919E+03  0.18773978221E+03  0.00000000000E+00 0.  1.
</event>
<event>
 7    1  0.5831876E-006  0.9732502E+02  0.7561462E-02  0.1286024E+00
         -2   -1    0    0    0  501 -0.00000000000E+00  0.00000000000E+00  0.23566326672E+03  0.23566326672E+03  0.00000000000E+00 0.  1.
          2   -1    0    0  501    0  0.00000000000E+00 -0.00000000000E+00 -0.63835986753E+02  0.63835986753E+02  0.00000000000E+00 0. -1.
         23    2    1    2    0    0 -0.41019778023E+02 -0.31658742835E+02  0.10233026258E+03  0.14730730296E+03  0.92428678883E+02 0.  0.
          5    1    1    2  502    0 -0.11379597675E+02 -0.24463020538E+02  0.70169806835E+02  0.75294148566E+02  0.41800000000E+01 0. -1.
         -5    1    1    2    0  502  0.52399375698E+02  0.56121763373E+02 -0.67278944875E+00  0.76897801941E+02  0.41800000000E+01 0. -1.
        -11    1    3    3    0    0 -0.12526700215E+02  0.24479161238E+02  0.72702682393E+02  0.77729193875E+02  0.00000000000E+00 0.  1.
         11    1    3    3    0    0 -0.28493077808E+02 -0.56137904074E+02  0.29627580185E+02  0.69578109089E+02  0.00000000000E+00 0. -1.
</event>
<event>
 7    1  0.5831876E-006  0.3755738E+03  0.7561462E-02  0.1052582E+00
          1   -1    0    0  501    0  0.00000000000E+00  0.00000000000E+00  0.11418173267E+04  0.11418173267E+04  0.00000000000E+00 0. -1.
         -1   -1    0    0    0  501 -0.00000000000E+00 -0.00000000000E+00 -0.14455052933E+03  0.14455052933E+03  0.00000000000E+00 0.  1.
         23    2    1    2    0    0  0.19924152936E+03 -0.31279326564E+03  0.29521337725E+03  0.48259241975E+03  0.90596310304E+02 0.  0.
          5    1    1    2  502    0 -0.29108056028E+02  0.96476959921E+01  0.16406659239E+02  0.35028671557E+02  0.41800000000E+01 0. -1.
         -5    1    1    2    0  502 -0.17013347334E+03  0.30314556965E+03  0.68564676086E+03  0.76874676470E+03  0.41800000000E+01 0. -1.
        -11    1    3    3    0    0  0.10474940799E+03 -0.19678461272E+03  0.12354856304E+03  0.25487422331E+03  0.00000000000E+00 0.  1.
         11    1    3    3    0    0  0.94492121373E+02 -0.11600865293E+03  0.17166481421E+03  0.22771819645E+03  0.00000000000E+00 0. -1.
</event>
<event>
 7    1  0.5831876E-006  0.9245981E+02  0.7561462E-02  0.1297002E+00
         -2   -1    0    0    0  501 -0.00000000000E+00  0.00000000000E+00  0.17168864288E+02  0.17168864288E+02  0.00000000000E+00 0.  1.
          2   -1    0    0  501    0  0.00000000000E+00 -0.00000000000E+00 -0.91406407226E+03  0.91406407226E+03  0.00000000000E+00 0. -1.
         23    2    1    2    0    0  0.48106043250E+02  0.39134454380E+02 -0.39155654592E+03  0.40696128097E+03  0.91952480312E+02 0.  0.
          5    1    1    2  502    0 -0.66778854699E+02 -0.26865465067E+02 -0.49331647013E+03  0.49855770052E+03  0.41800000000E+01 0.  1.
         -5    1    1    2    0  502  0.18672811449E+02 -0.12268989313E+02 -0.12022191921E+02  0.25713955059E+02  0.41800000000E+01 0.  1.
        -11    1    3    3    0    0  0.11198411854E+02 -0.18513650032E+02 -0.21058393753E+02  0.30192972908E+02  0.00000000000E+00 0.  1.
         11    1    3    3    0    0  0.36907631396E+02  0.57648104412E+02 -0.37049815217E+03  0.37676830806E+03  0.00000000000E+00 0. -1.
</event>
<event>
 7    1  0.5831876E-006  0.8690439E+02  0.7561462E-02  0.1310526E+00
          2   -1    0    0  501    0  0.00000000000E+00  0.00000000000E+00  0.13217404426E+04  0.13217404426E+04  0.00000000000E+00 0. -1.
         -2   -1    0    0    0  501 -0.00000000000E+00 -0.00000000000E+00 -0.99061589724E+01  0.99061589724E+01  0.00000000000E+00 0.  1.
         23    2    1    2    0    0  0.14765119087E+02  0.12245079142E+02  0.32054801657E+03  0.33365530866E+03  0.90591850438E+02 0.  0.
          5    1    1    2  502    0 -0.66673973919E+01  0.37509944318E+02  0.77183143961E+03  0.77278243618E+03  0.41800000000E+01 0. -1.
         -5    1    1    2    0  502 -0.80977216955E+01 -0.49755023460E+02  0.21945482740E+03  0.22520885668E+03  0.41800000000E+01 0.  1.
        -11    1    3    3    0    0 -0.31985522127E+02 -0.94613284371E+01  0.66101105289E+02  0.74040168030E+02  0.00000000000E+00 0.  1.
         11    1    3    3    0    0  0.46750641215E+02  0.21706407579E+02  0.25444691128E+03  0.25961514063E+03  0.00000000000E+00 0. -1.
</event>
<event>
 7    1  0.5831876E-006  0.1018235E+03  0.7561462E-02  0.1276507E+00
          1   -1    0    0  501    0  0.00000000000E+00  0.00000000000E+00  0.31655738408E+03  0.31655738408E+03  0.00000000000E+00 0. -1.
         -1   -1    0    0    0  501 -0.00000000000E+00 -0.00000000000E+00 -0.56924503148E+02  0.56924503148E+02  0.00000000000E+00 0.  1.
         23    2    1    2    0    0  0.11213988585E+02  0.72399415621E+02  0.75550637097E+02  0.13912626896E+03  0.90998851781E+02 0.  0.
          5    1    1    2  502    0 -0.26803733404E+02  0.18454664261E+02  0.11359242352E+03  0.11823589065E+03  0.41800000000E+01 0.  1.
         -5    1    1    2    0  502  0.15589744819E+02 -0.90854079882E+02  0.70489820322E+02  0.11611972763E+03  0.41800000000E+01 0.  1.
        -11    1    3    3    0    0 -0.95874172740E+01  0.26013046949E+02 -0.17718722794E+02  0.32902132439E+02  0.00000000000E+00 0.  1.
         11    1    3    3    0    0  0.20801405859E+02  0.46386368672E+02  0.93269359891E+02  0.10622413652E+03  0.00000000000E+00 0. -1.
</event>
<event>
 7    1  0.5831876E-006  0.8359254E+02  0.7561462E-02  0.1319155E+00
          4   -1    0    0  501    0  0.00000000000E+00  0.00000000000E+00  0.14054391830E+03  0.14054391830E+03  0.00000000000E+00 0. -1.
         -4   -1    0    0    0  501 -0.00000000000E+00 -0.00000000000E+00 -0.87134982647E+02  0.87134982647E+02  0.00000000000E+00 0.  1.
         23    2    1    2    0    0 -0.39918609469E+01  0.17710086551E+02  0.75785441495E+01  0.93225678924E+02  0.91126345037E+02 0.  0.
          5    1    1    2  502    0  0.64064180197E+02 -0.15974862061E+02  0.23797840254E+02  0.70308072103E+02  0.41800000000E+01 0. -1.
         -5    1    1    2    0  502 -0.60072319250E+02 -0.17352244898E+01  0.22032551254E+02  0.64145149924E+02  0.41800000000E+01 0. -1.
        -11    1    3    3    0    0 -0.15799673216E+01  0.29099551281E+02 -0.37030445689E+02  0.47122543325E+02  0.00000000000E+00 0.  1.
         11    1    3    3    0    0 -0.24118936253E+01 -0.11389464730E+02  0.44608989838E+02  0.46103135599E+02  0.00000000000E+00 0. -1.
</event>
<event>
 7    1  0.5831876E-006  0.9441397E+02  0.7561462E-02  0.1292501E+00
         -2   -1    0    0    0  501 -0.00000000000E+00  0.00000000000E+00  0.15195753352E+03  0.15195753352E+03  0.00000000000E+00 0.  1.
          2   -1    0    0  501    0  0.00000000000E+00 -0.00000000000E+00 -0.10366151985E+03  0.10366151985E+03  0.00000000000E+00 0. -1.
         23    2    1    2    0    0  0.15513735822E+02 -0.19570701998E+02  0.80109531178E+02  0.12415326407E+03  0.91503047040E+02 0.  0.
          5    1    1    2  502    0 -0.76497750746E+01  0.64665063480E+02 -0.49824404237E+02  0.82097704907E+02  0.41800000000E+01 0. -1.
         -5    1    1    2    0  502 -0.78639607470E+01 -0.45094361481E+02  0.18010886723E+02  0.49368084392E+02  0.41800000000E+01 0. -1.
        -11    1    3    3    0    0  0.49722647857E+01  0.28229373200E+02 -0.18130343978E+01  0.28721212058E+02  0.00000000000E+00 0. -1.
         11    1    3    3    0    0  0.10541471036E+02 -0.47800075198E+02  0.81922565576E+02  0.95432052011E+02  0.00000000000E+00 0.  1.
</event>
<event>
 7    1  0.5831876E-006  0.1727124E+03  0.7561462E-02  0.1175048E+00
          1   -1    0    0  501    0  0.00000000000E+00  0.00000000000E+00  0.15021203505E+03  0.15021203505E+03  0.00000000000E+00 0. -1.
         -1   -1    0    0    0  501 -0.00000000000E+00 -0.00000000000E+00 -0.26962543421E+03  0.26962543421E+03  0.00000000000E+00 0.  1.
         23    2    1    2    0    0  0.11796624341E+03 -0.81675153026E+02 -0.15060071676E+03  0.22694627890E+03  0.90758869608E+02 0.  0.
          5    1    1    2  502    0 -0.13840442750E+03  0.44075789663E+02  0.35763561518E+02  0.14964947551E+03  0.41800000000E+01 0.  1.
         -5    1    1    2    0  502  0.20438184098E+02  0.37599363362E+02 -0.45762439185E+01  0.43241714846E+02  0.41800000000E+01 0.  1.
        -11    1    3    3    0    0  0.75896823863E+02 -0.86141217232E+02 -0.14394246959E+03  0.18411972119E+03  0.00000000000E+00 0. -1.
         11    1    3    3    0    0  0.42069419544E+02  0.44660642069E+01 -0.66582471751E+01  0.42826557715E+02  0.00000000000E+00 0.  1.
</event>
<event>
 7    1  0.5831876E-006  0.9462985E+02  0.7561462E-02  0.1292012E+00
         -1   -1    0    0    0  501 -0.00000000000E+00  0.00000000000E+00  0.19009612578E+03  0.19009612578E+03  0.00000000000E+00 0.  1.
          1   -1    0    0  501    0  0.00000000000E+00 -0.00000000000E+00 -0.91843469818E+02  0.91843469818E+02  0.00000000000E+00 0. -1.
         23    2    1    2    0    0  0.60705932876E+01  0.22952590878E+02  0.12255606502E+03  0.15229363499E+03  0.87233529425E+02 0.  0.
          5    1    1    2  502    0 -0.43946692092E+02  0.21608250855E+02  0.23043648828E+02  0.54283610806E+02  0.41800000000E+01 0. -1.
         -5    1    1    2    0  502  0.37876098804E+02 -0.44560841732E+02 -0.47347057886E+02  0.75362349797E+02  0.41800000000E+01 0. -1.
        -11    1    3    3    0    0  0.40396096517E+02  0.24271302441E+02  0.36416891847E+02  0.59557793342E+02  0.00000000000E+00 0. -1.
         11    1    3    3    0    0 -0.34325503230E+02 -0.13187115630E+01  0.86139173172E+02  0.92735841652E+02  0.00000000000E+00 0.  1.
</event>
<event>
 7    1  0.5831876E-006  0.1512972E+03  0.7561462E-02  0.1198888E+00
          3   -1    0    0  501    0  0.00000000000E+00  0.00000000000E+00  0.28440247854E+03  0.28440247854E+03  0.00000000000E+00 0. -1.
         -3   -1    0    0    0  501 -0.00000000000E+00 -0.00000000000E+00 -0.11495739177E+03  0.11495739177E+03  0.00000000000E+00 0.  1.
         23    2    1    2    0    0 -0.14009996905E+03  0.33331971072E+02  0.53828580391E+02  0.17630433802E+03  0.86294159224E+02 0.  0.
          5    1    1    2  502    0  0.65561051843E+02 -0.48503052809E+02 -0.34169260049E+01  0.81730933152E+02  0.41800000000E+01 0.  1.
         -5    1    1    2    0  502  0.74538917202E+02  0.15171081738E+02  0.11903343238E+03  0.14132459914E+03  0.41800000000E+01 0.  1.
        -11    1    3    3    0    0 -0.89549818122E+02  0.14025941629E+02 -0.11620082796E+02  0.91383386282E+02  0.00000000000E+00 0.  1.
         11    1    3    3    0    0 -0.50550150923E+02  0.19306029443E+02  0.65448663187E+02  0.84920951739E+02  0.00000000000E+00 0. -1.
</event>
<event>
 7    1  0.5831876E-006  0.9955668E+02  0.7561462E-02  0.1281231E+00
          1   -1    0    0  501    0  0.00000000000E+00  0.00000000000E+00  0.11640798303E+04  0.11640798303E+04  0.00000000000E+00 0. -1.
         -1   -1    0    0    0  501 -0.00000000000E+00 -0.00000000000E+00 -0.20057537849E+02  0.20057537849E+02  0.00000000000E+00 0.  1.
         23    2    1    2    0    0 -0.14647284616E+02  0.46650925174E+02  0.15560211934E+03  0.18663289166E+03  0.90713642524E+02 0.  0.
          5    1    1    2  502    0  0.31897916849E+02  0.15582560946E+02  0.73774450377E+03  0.73860999083E+03  0.41800000000E+01 0. -1.
         -5    1    1    2    0  502 -0.17250632233E+02 -0.62233486120E+02  0.25067566935E+03  0.25889448567E+03  0.41800000000E+01 0. -1.
        -11    1    3    3    0    0  0.33902457932E+02  0.42016795036E+01  0.30099339081E+02  0.45530220487E+02  0.00000000000E+00 0. -1.
         11    1    3    3    0    0 -0.48549742548E+02  0.42449245670E+02  0.12550278025E+03  0.14110267117E+03  0.00000000000E+00 0.  1.
</event>
<event>
 7    1  0.5831876E-006  0.1624709E+03  0.7561462E-02  0.1185935E+00
         -2   -1    0    0    0  501 -0.00000000000E+00  0.00000000000E+00  0.32494907067E+02  0.32494907067E+02  0.00000000000E+00 0. -1.
          2   -1    0    0  501    0  0.00000000000E+00 -0.00000000000E+00 -0.11955778438E+04  0.11955778438E+04  0.00000000000E+00 0.  1.
         23    2    1    2    0    0  0.14659472171E+03 -0.31929709482E+02 -0.34270651470E+03  0.38469000530E+03  0.89605391462E+02 0.  0.
          5    1    1    2  502    0 -0.89383838201E+02  0.23679849733E+02 -0.20085964235E+03  0.22116119492E+03  0.41800000000E+01 0.  1.
         -5    1    1    2    0  502 -0.57210883507E+02  0.82498597489E+01 -0.61951677973E+03  0.62222155069E+03  0.41800000000E+01 0.  1.
        -11    1    3    3    0    0  0.24663174620E+02 -0.45487509385E+02 -0.91181079663E+02  0.10483975859E+03  0.00000000000E+00 0.  1.
         11    1    3    3    0    0  0.12193154709E+03  0.13557799903E+02 -0.25152543504E+03  0.27985024671E+03  0.00000000000E+00 0. -1.
</event>
<event>
 7    1  0.5831876E-006  0.4128233E+03  0.7561462E-02  0.1039428E+00
         -1   -1    0    0    0  501 -0.00000000000E+00  0.00000000000E+00  0.14818154316E+03  0.14818154316E+03  0.00000000000E+00 0.  1.
          1   -1    0    0  501    0  0.00000000000E+00 -0.00000000000E+00 -0.13951844192E+04  0.13951844192E+04  0.00000000000E+00 0. -1.
         23    2    1    2    0    0  0.53643688137E+02  0.40236184160E+03 -0.32364878261E+03  0.52699828715E+03  0.90586772342E+02 0.  0.
          5    1    1    2  502    0  0.83415606114E+01 -0.16243400726E+02 -0.13548791750E+03  0.13677674469E+03  0.41800000000E+01 0. -1.
         -5    1    1    2    0  502 -0.61985248748E+02 -0.38611844088E+03 -0.78786617591E+03  0.87959093049E+03  0.41800000000E+01 0. -1.
        -11    1    3    3    0    0  0.45823998715E+02  0.71808714960E+02 -0.70437774717E+02  0.11053420516E+03  0.00000000000E+00 0. -1.
         11    1    3    3    0    0  0.78196894220E+01  0.33055312664E+03 -0.25321100789E+03  0.41646408200E+03  0.00000000000E+00 0.  1.
</event>
<event>
 7    1  0.5831876E-006  0.1034261E+03  0.7561462E-02  0.1273252E+00
          1   -1    0    0  501    0  0.00000000000E+00  0.00000000000E+00  0.60042775437E+03  0.60042775437E+03  0.00000000000E+00 0. -1.
         -1   -1    0    0    0  501 -0.00000000000E+00 -0.00000000000E+00 -0.22678743226E+02  0.22678743226E+02  0.00000000000E+00 0.  1.
         23    2    1    2    0    0  0.36156384084E+02  0.13402538621E+02  0.18559849363E+03  0.20968645863E+03  0.89636476631E+02 0.  0.
          5    1    1    2  502    0 -0.26243591785E+02 -0.68809238212E+02  0.20082341605E+03  0.21394147379E+03  0.41800000000E+01 0. -1.
         -5    1    1    2    0  502 -0.99127922996E+01  0.55406699591E+02  0.19132710146E+03  0.19947856517E+03  0.41800000000E+01 0. -1.
        -11    1    3    3    0    0  0.35623675492E+02 -0.21587463878E+02  0.16250653602E+03  0.16776006408E+03  0.00000000000E+00 0. -1.
         11    1    3    3    0    0  0.53270859232E+00  0.34990002499E+02  0.23091957612E+02  0.41926394546E+02  0.00000000000E+00 0.  1.
</event>
<event>
 7    1  0.5831876E-006  0.1186770E+03  0.7561462E-02  0.1245296E+00
         -1   -1    0    0    0  501 -0.00000000000E+00  0.00000000000E+00  0.17076746945E+03  0.17076746945E+03  0.00000000000E+00 0.  1.
          1   -1    0    0  501    0  0.00000000000E+00 -0.00000000000E+00 -0.10239716172E+03  0.10239716172E+03  0.00000000000E+00 0. -1.
         23    2    1    2    0    0  0.58920688933E+02  0.49214811290E+02  0.41615468926E+02  0.12397517240E+03  0.88001425457E+02 0.  0.
          5    1    1    2  502    0 -0.18011807953E+02 -0.74020816608E+02 -0.23347544822E+02  0.79787760755E+02  0.41800000000E+01 0.  1.
         -5    1    1    2    0  502 -0.40908880980E+02  0.24806005318E+02  0.50102383622E+02  0.69401698016E+02  0.41800000000E+01 0.  1.
        -11    1    3    3    0    0  0.52416227525E+02 -0.10086027227E+02  0.35279716405E+02  0.63983179374E+02  0.00000000000E+00 0.  1.
         11    1    3    3    0    0  0.65044614084E+01  0.59300838517E+02  0.63357525205E+01  0.59991993024E+02  0.00000000000E+00 0. -1.
</event>
<event>
 7    1  0.5831876E-006  0.1225121E+03  0.7561462E-02  0.1239009E+00
         -1   -1    0    0    0  501 -0.00000000000E+00  0.00000000000E+00  0.12339019627E+03  0.12339019627E+03  0.00000000000E+00 0.  1.
          1   -1    0    0  501    0  0.00000000000E+00 -0.00000000000E+00 -0.12548597252E+03  0.12548597252E+03  0.00000000000E+00 0. -1.
         23    2    1    2    0    0 -0.13177582821E+02  0.55652164101E+02 -0.15493227819E+02  0.11068275866E+03  0.93487009252E+02 0.  0.
          5    1    1    2  502    0  0.20673292125E+02  0.37959692727E+02  0.16419756374E+01  0.43456780406E+02  0.41800000000E+01 0.  1.
         -5    1    1    2    0  502 -0.74957093048E+01 -0.93611856829E+02  0.11755475936E+02  0.94736629724E+02  0.41800000000E+01 0.  1.
        -11    1    3    3    0    0  0.32603992312E+02  0.52376503220E+02  0.15692266201E+01  0.61715321245E+02  0.00000000000E+00 0.  1.
         11    1    3    3    0    0 -0.45781575132E+02  0.32756608816E+01 -0.17062454439E+02  0.48967437418E+02  0.00000000000E+00 0. -1.
</event>
<event>
 7    1  0.5831876E-006  0.1052732E+03  0.7561462E-02  0.1269582E+00
         -1   -1    0    0    0  501 -0.00000000000E+00  0.00000000000E+00  0.15259290313E+03  0.15259290313E+03  0.00000000000E+00 0.  1.
          1   -1    0    0  501    0  0.00000000000E+00 -0.00000000000E+00 -0.29763985688E+03  0.29763985688E+03  0.00000000000E+00 0. -1.
         23    2    1    2    0    0 -0.62375255383E+02 -0.32488490728E+02  0.10896454662E+03  0.15848755720E+03  0.91098072707E+02 0.  0.
          5    1    1    2  502    0  0.76906925235E+02  0.71369796577E+01 -0.66744773888E+02  0.10216628049E+03  0.41800000000E+01 0. -1.
         -5    1    1    2    0  502 -0.14531669852E+02  0.25351511071E+02 -0.18726672649E+03  0.18957892233E+03  0.41800000000E+01 0. -1.
        -11    1    3    3    0    0  0.90295216085E+01 -0.30966929497E+02  0.54327660852E+01  0.32710822832E+02  0.00000000000E+00 0. -1.
         11    1    3    3    0    0 -0.71404776992E+02 -0.15215612309E+01  0.10353178054E+03  0.12577673436E+03  0.00000000000E+00 0.  1.
</event>
<event>
 7    1  0.5831876E-006  0.1066615E+03  0.7561462E-02  0.1266880E+00
          2   -1    0    0  501    0  0.00000000000E+00  0.00000000000E+00  0.21147966745E+03  0.21147966745E+03  0.00000000000E+00 0. -1.
         -2   -1    0    0    0  501 -0.00000000000E+00 -0.00000000000E+00 -0.78088363977E+02  0.78088363977E+02  0.00000000000E+00 0.  1.
         23    2    1    2    0    0  0.68197559137E+02  0.79759227966E+00  0.38591611514E+02  0.11842836834E+03  0.88794271897E+02 0.  0.
          5    1    1    2  502    0  0.36965279833E+02 -0.15840632952E+01  0.24491944260E+02  0.44567576816E+02  0.41800000000E+01 0. -1.
         -5    1    1    2    0  502 -0.10516283897E+03  0.78647101553E+00  0.70307747697E+02  0.12657208627E+03  0.41800000000E+01 0. -1.
        -11    1    3    3    0    0  0.30117765390E+02 -0.91592602459E+01 -0.27305022503E+02  0.41671766152E+02  0.00000000000E+00 0.  1.
         11    1    3    3    0    0  0.38079793748E+02  0.99568525255E+01  0.65896634017E+02  0.76756602184E+02  0.00000000000E+00 0. -1.
</event>
<event>
 7    1  0.5831876E-006  0.1440024E+03  0.7561462E-02  0.1208043E+00
          1   -1    0    0  501    0  0.00000000000E+00  0.00000000000E+00  0.58168362757E+03  0.58168362757E+03  0.00000000000E+00 0. -1.
         -1   -1    0    0    0  501 -0.00000000000E+00 -0.00000000000E+00 -0.53523258618E+02  0.53523258618E+02  0.00000000000E+00 0.  1.
         23    2    1    2    0    0 -0.61463406282E+02 -0.36308058068E+02  0.15329881783E+03  0.19088943878E+03  0.88556337417E+02 0.  0.
          5    1    1    2  502    0  0.67342304745E+02  0.99028888214E+02  0.36005284609E+03  0.37946967084E+03  0.41800000000E+01 0. -1.
         -5    1    1    2    0  502 -0.58788984630E+01 -0.62720830147E+02  0.14808705031E+02  0.64847776571E+02  0.41800000000E+01 0.  1.
        -11    1    3    3    0    0 -0.31723247533E+02  0.22668423944E+02  0.95379041630E+02  0.10304068837E+03  0.00000000000E+00 0. -1.
         11    1    3    3    0    0 -0.29740158749E+02 -0.58976482011E+02  0.57919776204E+02  0.87848750409E+02  0.00000000000E+00 0.  1.
</event>
<event>
 7    1  0.5831876E-006  0.2912581E+03  0.7561462E-02  0.1089694E+00
          2   -1    0    0  501    0  0.00000000000E+00  0.00000000000E+00  0.60726978808E+03  0.60726978808E+03  0.00000000000E+00 0. -1.
         -2   -1    0    0    0  501 -0.00000000000E+00 -0.00000000000E+00 -0.19496508928E+03  0.19496508928E+03  0.00000000000E+00 0.  1.
         23    2    1    2    0    0  0.18575358074E+03  0.20402808997E+03 -0.29554662754E-01  0.29057084927E+03  0.91101939131E+02 0.  0.
          5    1    1    2  502    0 -0.13270580473E+03 -0.62000664115E+02  0.15760951930E+03  0.21520489291E+03  0.41800000000E+01 0.  1.
         -5    1    1    2    0  502 -0.53047776015E+02 -0.14202742586E+03  0.25472473416E+03  0.29645913518E+03  0.41800000000E+01 0.  1.
        -11    1    3    3    0    0  0.14246905248E+03  0.19256098246E+03  0.22231681050E+02  0.24056477407E+03  0.00000000000E+00 0. -1.
         11    1    3    3    0    0  0.43284528261E+02  0.11467107519E+02 -0.22261235713E+02  0.50006075202E+02  0.00000000000E+00 0.  1.
</event>
<event>
 7    1  0.5831876E-006  0.8274600E+02  0.7561462E-02  0.1321434E+00
         -1   -1    0    0    0  501 -0.00000000000E+00  0.00000000000E+00  0.46021623899E+02  0.46021623899E+02  0.00000000000E+00 0.  1.
          1   -1    0    0  501    0  0.00000000000E+00 -0.00000000000E+00 -0.29926908272E+03  0.29926908272E+03  0.00000000000E+00 0. -1.
         23    2    1    2    0    0  0.33045212379E+02 -0.16488275159E+02 -0.71843985695E+02  0.12186898170E+03  0.91250430908E+02 0.  0.
          5    1    1    2  502    0 -0.59490829410E+02  0.31756448206E+02 -0.18034055343E+03  0.19258197838E+03  0.41800000000E+01 0.  1.
         -5    1    1    2    0  502  0.26445617031E+02 -0.15268173047E+02 -0.10629196978E+01  0.30839746540E+02  0.41800000000E+01 0.  1.
        -11    1    3    3    0    0 -0.15207511328E+02  0.21879050581E+01 -0.68300063536E+02  0.70006814014E+02  0.00000000000E+00 0. -1.
         11    1    3    3    0    0  0.48252723707E+02 -0.18676180217E+02 -0.35439221584E+01  0.51862167684E+02  0.00000000000E+00 0.  1.
</event>
<event>
 7    1  0.5831876E-006  0.1521481E+03  0.7561462E-02  0.1197858E+00
         -2   -1    0    0    0  501 -0.00000000000E+00  0.00000000000E+00  0.19549617590E+02  0.19549617590E+02  0.00000000000E+00 0.  1.
          2   -1    0    0  501    0  0.00000000000E+00 -0.00000000000E+00 -0.12621459267E+04  0.12621459267E+04  0.00000000000E+00 0. -1.
         23    2    1    2    0    0  0.59204411492E+02 -0.58646509873E+02 -0.38802913126E+03  0.40713152834E+03  0.90801427283E+02 0.  0.
          5    1    1    2  502    0 -0.19962765408E+02 -0.57888802185E+02 -0.23384404562E+03  0.24176462829E+03  0.41800000000E+01 0. -1.
         -5    1    1    2    0  502 -0.39241646083E+02  0.11653531206E+03 -0.62072313224E+03  0.63279938767E+03  0.41800000000E+01 0.  1.
        -11    1    3    3    0    0  0.41905860534E+02  0.14788327783E+02 -0.10083122740E+03  0.11018952856E+03  0.00000000000E+00 0.  1.
         11    1    3    3    0    0  0.17298550957E+02 -0.73434837656E+02 -0.28719790386E+03  0.29694199977E+03  0.00000000000E+00 0. -1.
</event>
<event>
 7    1  0.5831876E-006  0.1682504E+03  0.7561462E-02  0.1179685E+00
         -2   -1    0    0    0  501 -0.00000000000E+00  0.00000000000E+00  0.14728548520E+02  0.14728548520E+02  0.00000000000E+00 0.  1.
          2   -1    0    0  501    0  0.00000000000E+00 -0.00000000000E+00 -0.30797155102E+04  0.30797155102E+04  0.00000000000E+00 0. -1.
         23    2    1    2    0    0  0.15553766214E+03  0.26542342993E+02 -0.81326736415E+03  0.83373958180E+03  0.93922437941E+02 0.  0.
          5    1    1    2  502    0 -0.12627503177E+03 -0.27836587578E+02 -0.21689552269E+04  0.21728102789E+04  0.41800000000E+01 0. -1.
         -5    1    1    2    0  502 -0.29262630368E+02  0.12942445845E+01 -0.82764370576E+02  0.87894197999E+02  0.41800000000E+01 0. -1.
        -11    1    3    3    0    0  0.10000082489E+03  0.56062321604E+02 -0.61955262037E+03  0.63007031217E+03  0.00000000000E+00 0.  1.
         11    1    3    3    0    0  0.55536837256E+02 -0.29519978611E+02 -0.19371474379E+03  0.20366926963E+03  0.00000000000E+00 0. -1.
</event>
<event>
 7    1  0.5831876E-006  0.1125293E+03  0.7561462E-02  0.1255956E+00
         -2   -1    0    0    0  501 -0.00000000000E+00  0.00000000000E+00  0.11047832182E+03  0.11047832182E+03  0.00000000000E+00 0.  1.
          2   -1    0    0  501    0  0.00000000000E+00 -0.00000000000E+00 -0.13836899615E+03  0.13836899615E+03  0.00000000000E+00 0. -1.
         23    2    1    2    0    0 -0.24038503256E+02 -0.23048797633E+02  0.36663926994E+02  0.10421576596E+03  0.91692887517E+02 0.  0.
          5    1    1    2  502    0  0.66342167806E+02 -0.19045163340E+02 -0.28565716846E+02  0.74816268650E+02  0.41800000000E+01 0. -1.
         -5    1    1    2    0  502 -0.42303664550E+02  0.42093960974E+02 -0.35988884479E+02  0.69815283362E+02  0.41800000000E+01 0. -1.
        -11    1    3    3    0    0  0.55247607303E+01 -0.53418300213E+02  0.29370822284E+02  0.61210154226E+02  0.00000000000E+00 0.  1.
         11    1    3    3    0    0 -0.29563263986E+02  0.30369502580E+02  0.72931047101E+01  0.43005611736E+02  0.00000000000E+00 0. -1.
</event>
<event>
 7    1  0.5831876E-006  0.8505657E+02  0.7561462E-02  0.1315285E+00
          1   -1    0    0  501    0  0.00000000000E+00  0.00000000000E+00  0.30774514686E+03  0.30774514686E+03  0.00000000000E+00 0. -1.
         -1   -1    0    0    0  501 -0.00000000000E+00 -0.00000000000E+00 -0.32504863998E+02  0.32504863998E+02  0.00000000000E+00 0.  1.
         23    2    1    2    0    0 -0.80428732912E+01  0.16668354177E+02  0.92665269729E+02  0.11816002040E+03  0.70939526108E+02 0.  0.
          5    1    1    2  502    0 -0.19661099384E+02  0.45205359211E+02  0.11975385462E+03  0.12957060402E+03  0.41800000000E+01 0.  1.
         -5    1    1    2    0  502  0.27703972675E+02 -0.61873713387E+02  0.62821158514E+02  0.92519386441E+02  0.41800000000E+01 0.  1.
        -11    1    3    3    0    0  0.16248134118E+02 -0.79891283343E+01 -0.11707229961E+01  0.18143831630E+02  0.00000000000E+00 0.  1.
         11    1    3    3    0    0 -0.24291007410E+02  0.24657482511E+02  0.93835992725E+02  0.10001618877E+03  0.00000000000E+00 0. -1.
</event>
<event>
 7    1  0.5831876E-006  0.8977544E+02  0.7561462E-02  0.1303396E+00
         -3   -1    0    0    0  501 -0.00000000000E+00  0.00000000000E+00  0.24261476237E+02  0.24261476237E+02  0.00000000000E+00 0.  1.
          3   -1    0    0  501    0  0.00000000000E+00 -0.00000000000E+00 -0.66241061258E+03  0.66241061258E+03  0.00000000000E+00 0. -1.
         23    2    1    2    0    0 -0.35731536597E+02 -0.54132560221E+02 -0.31905109292E+03  0.33784955197E+03  0.90231053915E+02 0.  0.
          5    1    1    2  502    0  0.38783860470E+02  0.41684940927E+02 -0.32782798215E+03  0.33276189748E+03  0.41800000000E+01 0.  1.
         -5    1    1    2    0  502 -0.30523238728E+01  0.12447619294E+02  0.87299387182E+01  0.16060639375E+02  0.41800000000E+01 0.  1.
        -11    1    3    3    0    0 -0.50354868373E+02 -0.70752794663E+02 -0.22376638154E+03  0.24002700729E+03  0.00000000000E+00 0.  1.
         11    1    3    3    0    0  0.14623331776E+02  0.16620234442E+02 -0.95284711378E+02  0.97822544679E+02  0.00000000000E+00 0. -1.
</event>
<event>
 7    1  0.5831876E-006  0.8455031E+02  0.7561462E-02  0.1316613E+00
         -1   -1    0    0    0  501 -0.00000000000E+00  0.00000000000E+00  0.35231289791E+03  0.35231289791E+03  0.00000000000E+00 0.  1.
          1   -1    0    0  501    0  0.00000000000E+00 -0.00000000000E+00 -0.50936045821E+02  0.50936045821E+02  0.00000000000E+00 0. -1.
         23    2    1    2    0    0 -0.13568403898E+01 -0.10922321461E+02  0.25552549308E+03  0.26956747514E+03  0.85159896182E+02 0.  0.
          5    1    1    2  502    0  0.32233898225E+02 -0.22360108801E+02  0.71286112755E+02  0.81475032569E+02  0.41800000000E+01 0. -1.
         -5    1    1    2    0  502 -0.30877057835E+02  0.33282430263E+02 -0.25434753741E+02  0.52206436027E+02  0.41800000000E+01 0. -1.
        -11    1    3    3    0    0 -0.35109556883E+02  0.18137765632E+02  0.92959133640E+02  0.10101019777E+03  0.00000000000E+00 0. -1.
         11    1    3    3    0    0  0.33752716494E+02 -0.29060087093E+02  0.16256635944E+03  0.16855727737E+03  0.00000000000E+00 0.  1.
</event>
<event>
 7    1  0.5831876E-006  0.9999134E+02  0.7561462E-02  0.1280314E+00
          2   -1    0    0  501    0  0.00000000000E+00  0.00000000000E+00  0.62868733280E+03  0.62868733280E+03  0.00000000000E+00 0. -1.
         -2   -1    0    0    0  501 -0.00000000000E+00 -0.00000000000E+00 -0.21248153846E+02  0.21248153846E+02  0.00000000000E+00 0.  1.
         23    2    1    2    0    0  0.30471197868E+02 -0.12218103366E+02  0.22667651494E+03  0.24780976774E+03  0.94602656462E+02 0.  0.
          5    1    1    2  502    0 -0.14798777878E+01 -0.41705112123E+02  0.47953807056E+02  0.63706721990E+02  0.41800000000E+01 0. -1.
         -5    1    1    2    0  502 -0.28991320080E+02  0.53923215489E+02  0.33280885696E+03  0.33841899692E+03  0.41800000000E+01 0. -1.
        -11    1    3    3    0    0  0.49260947887E+02  0.24809036299E+02  0.96248527659E+02  0.11093199874E+03  0.00000000000E+00 0.  1.
         11    1    3    3    0    0 -0.18789750019E+02 -0.37027139664E+02  0.13042798728E+03  0.13687776899E+03  0.00000000000E+00 0. -1.
</event>
<event>
 7    1  0.5831876E-006  0.1885365E+03  0.7561462E-02  0.1159788E+00
         -2   -1    0    0    0  501 -0.00000000000E+00  0.00000000000E+00  0.17740392324E+03  0.17740392324E+03  0.00000000000E+00 0.  1.
          2   -1    0    0  501    0  0.00000000000E+00 -0.00000000000E+00 -0.59176570903E+03  0.59176570903E+03  0.00000000000E+00 0. -1.
         23    2    1    2    0    0 -0.14588598234E+03 -0.10000128919E+03  0.82920575277E+02  0.21515717461E+03  0.90187639395E+02 0.  0.
          5    1    1    2  502    0  0.14717149209E+03  0.97733956890E+02 -0.51033276446E+03  0.54006330859E+03  0.41800000000E+01 0. -1.
         -5    1    1    2    0  502 -0.12855097550E+01  0.22673322966E+01  0.13050403390E+02  0.13949149067E+02  0.41800000000E+01 0.  1.
        -11    1    3    3    0    0  0.10344455155E+02 -0.82106742716E+00 -0.34565102412E+01  0.10937521073E+02  0.00000000000E+00 0. -1.
         11    1    3    3    0    0 -0.15623043749E+03 -0.99180221759E+02  0.86377085518E+02  0.20421965353E+03  0.00000000000E+00 0.  1.
</event>
<event>
 7    1  0.5831876E-006  0.1710446E+03  0.7561462E-02  0.1176763E+00
          4   -1    0    0  501    0  0.00000000000E+00  0.00000000000E+00  0.35606948159E+03  0.35606948159E+03  0.00000000000E+00 0. -1.
         -4   -1    0    0    0  501 -0.00000000000E+00 -0.00000000000E+00 -0.11176046932E+03  0.11176046932E+03  0.00000000000E+00 0.  1.
         23    2    1    2    0    0 -0.15844420589E+03  0.12273388601E+02  0.92144677769E+02  0.20459672489E+03  0.90077609579E+02 0.  0.
          5    1    1    2  502    0  0.10391696474E+03 -0.29402293415E+01  0.17471482261E+03  0.20334729443E+03  0.41800000000E+01 0. -1.
         -5    1    1    2    0  502  0.54527241149E+02 -0.93331592592E+01 -0.22550488113E+02  0.59885931597E+02  0.41800000000E+01 0.  1.
        -11    1    3    3    0    0  0.94513457185E+01 -0.93398927384E+01  0.85444941098E+01  0.15797781865E+02  0.00000000000E+00 0.  1.
         11    1    3    3    0    0 -0.16789555161E+03  0.21613281339E+02  0.83600183659E+02  0.18879894303E+03  0.00000000000E+00 0. -1.
</event>
<event>
 7    1  0.5831876E-006  0.1748993E+03  0.7561462E-02  0.1172833E+00
         -2   -1    0    0    0  501 -0.00000000000E+00  0.00000000000E+00  0.37893431237E+02  0.37893431237E+02  0.00000000000E+00 0.  1.
          2   -1    0    0  501    0  0.00000000000E+00 -0.00000000000E+00 -0.90037774216E+03  0.90037774216E+03  0.00000000000E+00 0. -1.
         23    2    1    2    0    0  0.13945528936E+03  0.46056411938E+02 -0.37856641195E+03  0.41731716089E+03  0.96291815371E+02 0.  0.
          5    1    1    2  502    0 -0.70206702504E+02 -0.78334845367E+02 -0.18974746737E+03  0.21699516780E+03  0.41800000000E+01 0.  1.
         -5    1    1    2    0  502 -0.69248586852E+02  0.32278433429E+02 -0.29417043160E+03  0.30395884470E+03  0.41800000000E+01 0.  1.
        -11    1    3    3    0    0  0.16461210521E+02  0.41816960861E+02 -0.54314002602E+02  0.70495677500E+02  0.00000000000E+00 0.  1.
         11    1    3    3    0    0  0.12299407883E+03  0.42394510768E+01 -0.32425240935E+03  0.34682148339E+03  0.00000000000E+00 0. -1.
</event>
<event>
 7    1  0.5831876E-006  0.1181644E+03  0.7561462E-02  0.1246156E+00
         -2   -1    0    0    0  501 -0.00000000000E+00  0.00000000000E+00  0.32212704501E+02  0.32212704501E+02  0.00000000000E+00 0.  1.
          2   -1    0    0  501    0  0.00000000000E+00 -0.00000000000E+00 -0.52358146882E+03  0.52358146882E+03  0.00000000000E+00 0. -1.
         23    2    1    2    0    0  0.43239810219E+02  0.41704087478E+02 -0.13622126943E+03  0.17449908786E+03  0.91020796077E+02 0.  0.
          5    1    1    2  502    0 -0.84898907183E+02 -0.13245773693E+02 -0.19012796125E+03  0.20868490365E+03  0.41800000000E+01 0.  1.
         -5    1    1    2    0  502  0.41659096964E+02 -0.28458313784E+02 -0.16501953364E+03  0.17261018182E+03  0.41800000000E+01 0.  1.
        -11    1    3    3    0    0 -0.11359538798E+02  0.43588980474E+02 -0.27372437093E+02  0.52709474033E+02  0.00000000000E+00 0.  1.
         11    1    3    3    0    0  0.54599349018E+02 -0.18848929961E+01 -0.10884883234E+03  0.12178961383E+03  0.00000000000E+00 0. -1.
</event>
<event>
 7    1  0.5831876E-006  0.1076618E+03  0.7561462E-02  0.1264962E+00
         -3   -1    0    0    0  501 -0.00000000000E+00  0.00000000000E+00  0.36125827361E+03  0.36125827361E+03  0.00000000000E+00 0.  1.
          3   -1    0    0  501    0  0.00000000000E+00 -0.00000000000E+00 -0.43346371856E+02  0.43346371856E+02  0.00000000000E+00 0. -1.
         23    2    1    2    0    0 -0.23190066848E+02 -0.18355630577E+01  0.23734110786E+03  0.25400479115E+03  0.87444176221E+02 0.  0.
          5    1    1    2  502    0 -0.51307789155E+02 -0.65950019559E+01  0.28351479735E+02  0.59137653673E+02  0.41800000000E+01 0. -1.
         -5    1    1    2    0  502  0.74497856004E+02  0.84305650136E+01  0.52219314168E+02  0.91462200650E+02  0.41800000000E+01 0. -1.
        -11    1    3    3    0    0 -0.48673004694E+02  0.22025821871E+02  0.11543416307E+03  0.12719765807E+03  0.00000000000E+00 0. -1.
         11    1    3    3    0    0  0.25482937845E+02 -0.23861384929E+02  0.12190694479E+03  0.12680713308E+03  0.00000000000E+00 0.  1.
</event>
<event>
 7    1  0.5831876E-006  0.8625915E+02  0.7561462E-02  0.1312172E+00
          1   -1    0    0  501    0  0.00000000000E+00  0.00000000000E+00  0.12882920192E+03  0.12882920192E+03  0.00000000000E+00 0. -1.
         -1   -1    0    0    0  501 -0.00000000000E+00 -0.00000000000E+00 -0.13102071434E+03  0.13102071434E+03  0.00000000000E+00 0.  1.
         23    2    1    2    0    0  0.21543749344E+02  0.62010882158E+02 -0.22716833588E+02  0.11710292034E+03  0.94273839331E+02 0.  0.
          5    1    1    2  502    0  0.10183086852E+02 -0.25589072332E+02 -0.49957592994E+02  0.57199033020E+02  0.41800000000E+01 0. -1.
         -5    1    1    2    0  502 -0.31726836196E+02 -0.36421809826E+02  0.70482914162E+02  0.85547962891E+02  0.41800000000E+01 0. -1.
        -11    1    3    3    0    0  0.75783312126E+01  0.76020679646E+02 -0.43905890479E+02  0.88115277090E+02  0.00000000000E+00 0.  1.
         11    1    3    3    0    0  0.13965418131E+02 -0.14009797488E+02  0.21189056892E+02  0.28987643250E+02  0.00000000000E+00 0. -1.
</event>
<event>
 7    1  0.5831876E-006  0.2157660E+03  0.7561462E-02  0.1137080E+00
         -2   -1    0    0    0  501 -0.00000000000E+00  0.00000000000E+00  0.97611518265E+02  0.97611518265E+02  0.00000000000E+00 0. -1.
          2   -1    0    0  501    0  0.00000000000E+00 -0.00000000000E+00 -0.92644681139E+03  0.92644681139E+03  0.00000000000E+00 0.  1.
         23    2    1    2    0    0  0.92772231273E+02 -0.17137935163E+03 -0.62980565076E+02  0.22395879018E+03  0.90627915463E+02 0.  0.
          5    1    1    2  502    0 -0.11710045751E+03  0.13280194162E+03 -0.50261530692E+03  0.53290570648E+03  0.41800000000E+01 0. -1.
         -5    1    1    2    0  502  0.24328226239E+02  0.38577410007E+02 -0.26323942113E+03  0.26719383300E+03  0.41800000000E+01 0. -1.
        -11    1    3    3    0    0  0.37100834746E+02 -0.13976601594E+03 -0.67889355493E+02  0.15974972845E+03  0.00000000000E+00 0.  1.
         11    1    3    3    0    0  0.55671396527E+02 -0.31613335686E+02  0.49087904170E+01  0.64209061727E+02  0.00000000000E+00 0. -1.
</event>
<event>
 7    1  0.5831876E-006  0.2091017E+03  0.7561462E-02  0.1142279E+00
          2   -1    0    0  501    0  0.00000000000E+00  0.00000000000E+00  0.21255077843E+04  0.21255077843E+04  0.00000000000E+00 0. -1.
         -2   -1    0    0    0  501 -0.00000000000E+00 -0.00000000000E+00 -0.54010810564E+02  0.54010810564E+02  0.00000000000E+00 0.  1.
         23    2    1    2    0    0  0.49275397373E+02  0.78459801122E+02  0.54472857497E+02  0.14034951621E+03  0.90259012400E+02 0.  0.
          5    1    1    2  502    0  0.11341432089E+03 -0.15542255651E+02  0.54978852198E+03  0.56159528238E+03  0.41800000000E+01 0. -1.
         -5    1    1    2    0  502 -0.16268971826E+03 -0.62917545471E+02  0.14672355943E+04  0.14775737963E+04  0.41800000000E+01 0.  1.
        -11    1    3    3    0    0  0.75740659087E+02  0.52962167723E+02  0.42251101037E+02  0.10162083540E+03  0.00000000000E+00 0.  1.
         11    1    3    3    0    0 -0.26465261714E+02  0.25497633399E+02  0.12221756460E+02  0.38728680813E+02  0.00000000000E+00 0. -1.
</event>
<event>
 7    1  0.5831876E-006  0.1132274E+03  0.7561462E-02  0.1254707E+00
         -2   -1    0    0    0  501 -0.00000000000E+00  0.00000000000E+00  0.23807786302E+03  0.23807786302E+03  0.00000000000E+00 0.  1.
          2   -1    0    0  501    0  0.00000000000E+00 -0.00000000000E+00 -0.84512146999E+02  0.84512146999E+02  0.00000000000E+00 0. -1.
         23    2    1    2    0    0  0.34516685584E+02  0.81998073113E+01  0.14374490765E+03  0.19219626264E+03  0.12254862902E+03 0.  0.
          5    1    1    2  502    0  0.41101870411E+02  0.17129736313E+02 -0.14330451438E+02  0.46964091132E+02  0.41800000000E+01 0.  1.
         -5    1    1    2    0  502 -0.75618555995E+02 -0.25329543624E+02  0.24151259811E+02  0.83429656247E+02  0.41800000000E+01 0.  1.
        -11    1    3    3    0    0  0.10863158451E+02  0.51446217729E+02  0.15520177373E+02  0.54823329303E+02  0.00000000000E+00 0. -1.
         11    1    3    3    0    0  0.23653527133E+02 -0.43246410418E+02  0.12822473028E+03  0.13737293334E+03  0.00000000000E+00 0.  1.
</event>
<event>
 7    1  0.5831876E-006  0.1079853E+03  0.7561462E-02  0.1264347E+00
          2   -1    0    0  501    0  0.00000000000E+00  0.00000000000E+00  0.18517174068E+04  0.18517174068E+04  0.00000000000E+00 0. -1.
         -2   -1    0    0    0  501 -0.00000000000E+00 -0.00000000000E+00 -0.98399388645E+01  0.98399388645E+01  0.00000000000E+00 0.  1.
         23    2    1    2    0    0 -0.88482444322E+01 -0.66538865260E+02  0.54626517248E+03  0.55819029120E+03  0.93086253079E+02 0.  0.
          5    1    1    2  502    0 -0.30610207176E+02  0.10617850290E+02  0.88967015338E+02  0.94775132531E+02  0.41800000000E+01 0. -1.
         -5    1    1    2    0  502  0.39458451608E+02  0.55921014970E+02  0.12066452801E+04  0.12085919219E+04  0.41800000000E+01 0. -1.
        -11    1    3    3    0    0  0.33163170481E+02 -0.64674758641E+02  0.35211296053E+03  0.35953603054E+03  0.00000000000E+00 0.  1.
         11    1    3    3    0    0 -0.42011414913E+02 -0.18641066184E+01  0.19415221194E+03  0.19865426066E+03  0.00000000000E+00 0. -1.
</event>
<event>
 7    1  0.5831876E-006  0.1395747E+03  0.7561462E-02  0.1213902E+00
         -2   -1    0    0    0  501 -0.00000000000E+00  0.00000000000E+00  0.31423273647E+03  0.31423273647E+03  0.00000000000E+00 0.  1.
          2   -1    0    0  501    0  0.00000000000E+00 -0.00000000000E+00 -0.13890571577E+03  0.13890571577E+03  0.00000000000E+00 0. -1.
         23    2    1    2    0    0  0.10089591184E+03  0.48222023080E+02  0.23468729786E+03  0.27515067706E+03  0.90135557751E+02 0.  0.
          5    1    1    2  502    0 -0.79256309400E+02  0.25586446582E+02 -0.56839141286E+02  0.10091773487E+03  0.41800000000E+01 0. -1.
         -5    1    1    2    0  502 -0.21639602444E+02 -0.73808469662E+02 -0.25211358701E+01  0.77070040313E+02  0.41800000000E+01 0. -1.
        -11    1    3    3    0    0  0.52451206464E+02  0.31231119017E+01  0.31062802612E+02  0.61039172616E+02  0.00000000000E+00 0. -1.
         11    1    3    3    0    0  0.48444705380E+02  0.45098911178E+02  0.20362449525E+03  0.21411150444E+03  0.00000000000E+00 0.  1.
</event>
<event>
 7    1  0.5831876E-006  0.1423228E+03  0.7561462E-02  0.1210237E+00
         -1   -1    0    0    0  501 -0.00000000000E+00  0.00000000000E+00  0.94490238069E+02  0.94490238069E+02  0.00000000000E+00 0.  1.
          1   -1    0    0  501    0  0.00000000000E+00 -0.00000000000E+00 -0.22081624682E+03  0.22081624682E+03  0.00000000000E+00 0. -1.
         23    2    1    2    0    0  0.91515181155E+02  0.17227206462E+02 -0.68724659382E+02  0.14906353667E+03  0.93941759269E+02 0.  0.
          5    1    1    2  502    0 -0.10620569419E+03 -0.49091093300E+02 -0.28574157356E+02  0.12051364980E+03  0.41800000000E+01 0. -1.
         -5    1    1    2    0  502  0.14690513032E+02  0.31863886838E+02 -0.29027192014E+02  0.45729298418E+02  0.41800000000E+01 0. -1.
        -11    1    3    3    0    0 -0.14294794807E+02 -0.15878388353E+02 -0.97264421182E+01  0.23474838690E+02  0.00000000000E+00 0.  1.
         11    1    3    3    0    0  0.10580997596E+03  0.33105594815E+02 -0.58998217264E+02  0.12558869798E+03  0.00000000000E+00 0. -1.
</event>
<event>
 7    1  0.5831876E-006  0.1501149E+03  0.7561462E-02  0.1200332E+00
          3   -1    0    0  501    0  0.00000000000E+00  0.00000000000E+00  0.50903541163E+03  0.50903541163E+03  0.00000000000E+00 0. -1.
         -3   -1    0    0    0  501 -0.00000000000E+00 -0.00000000000E+00 -0.55547340547E+02  0.55547340547E+02  0.00000000000E+00 0.  1.
         23    2    1    2    0    0  0.93261419791E+02  0.88682671354E+02  0.19710745174E+03  0.25162744363E+03  0.88897211617E+02 0.  0.
          5    1    1    2  502    0 -0.74139944095E+02 -0.11111565968E+03  0.24850070512E+03  0.28215863266E+03  0.41800000000E+01 0.  1.
         -5    1    1    2    0  502 -0.19121475696E+02  0.22432988328E+02  0.78799142193E+01  0.30796675896E+02  0.41800000000E+01 0.  1.
        -11    1    3    3    0    0  0.42162635692E+02  0.71310494408E+02  0.17439664453E+03  0.19307269119E+03  0.00000000000E+00 0. -1.
         11    1    3    3    0    0  0.51098784099E+02  0.17372176946E+02  0.22710807213E+02  0.58554752433E+02  0.00000000000E+00 0.  1.
</event>
<event>
 7    1  0.5831876E-006  0.1201444E+03  0.7561462E-02  0.1242859E+00
          2   -1    0    0  501    0  0.00000000000E+00  0.00000000000E+00  0.95131779682E+03  0.95131779682E+03  0.00000000000E+00 0. -1.
         -2   -1    0    0    0  501 -0.00000000000E+00 -0.00000000000E+00 -0.18201798928E+02  0.18201798928E+02  0.00000000000E+00 0.  1.
         23    2    1    2    0    0 -0.41902320251E+02  0.61101245487E+02  0.31487491033E+03  0.33441439501E+03  0.84838739933E+02 0.  0.
          5    1    1    2  502    0  0.22609975922E+02  0.29951797900E+02  0.75395634273E+02  0.84322566826E+02  0.41800000000E+01 0.  1.
         -5    1    1    2    0  502  0.19292344329E+02 -0.91053043387E+02  0.54284545329E+03  0.55078263391E+03  0.41800000000E+01 0.  1.
        -11    1    3    3    0    0  0.10079845796E+02  0.56257671594E+02  0.12416300443E+03  0.13668569996E+03  0.00000000000E+00 0.  1.
         11    1    3    3    0    0 -0.51982166047E+02  0.48435738932E+01  0.19071190590E+03  0.19772869505E+03  0.00000000000E+00 0. -1.
</event>
<event>
 7    1  0.5831876E-006  0.1499754E+03  0.7561462E-02  0.1200503E+00
          1   -1    0    0  501    0  0.00000000000E+00  0.00000000000E+00  0.83593110235E+02  0.83593110235E+02  0.00000000000E+00 0. -1.
         -1   -1    0    0    0  501 -0.00000000000E+00 -0.00000000000E+00 -0.29156118812E+03  0.29156118812E+03  0.00000000000E+00 0.  1.
         23    2    1    2    0    0 -0.22192749738E+02  0.11094810365E+03 -0.10042464920E+03  0.17511664399E+03  0.88197103069E+02 0.  0.
          5    1    1    2  502    0 -0.40751151218E+02 -0.13248366476E+02 -0.21776798921E+01  0.43109050437E+02  0.41800000000E+01 0. -1.
         -5    1    1    2    0  502  0.62943900956E+02 -0.97699737178E+02 -0.10536574879E+03  0.15692860393E+03  0.41800000000E+01 0. -1.
        -11    1    3    3    0    0 -0.54268254286E+02  0.68151891805E+02 -0.78657968731E+02  0.11737461320E+03  0.00000000000E+00 0.  1.
         11    1    3    3    0    0  0.32075504548E+02  0.42796211848E+02 -0.21766680469E+02  0.57742030785E+02  0.00000000000E+00 0. -1.
</event>
<event>
 7    1  0.5831876E-006  0.7031093E+02  0.7561462E-02  0.1359039E+00
          2   -1    0    0  501    0  0.00000000000E+00  0.00000000000E+00  0.74301516828E+03  0.74301516828E+03  0.00000000000E+00 0. -1.
         -2   -1    0    0    0  501 -0.00000000000E+00 -0.00000000000E+00 -0.23488466293E+02  0.23488466293E+02  0.00000000000E+00 0.  1.
         23    2    1    2    0    0 -0.19172345746E+02  0.25941553452E+02  0.12369092167E+03  0.15682526188E+03  0.90852493756E+02 0.  0.
          5    1    1    2  502    0  0.45633511625E+02 -0.15931616152E+02  0.83694316616E+02  0.96739055248E+02  0.41800000000E+01 0. -1.
         -5    1    1    2    0  502 -0.26461165878E+02 -0.10009937300E+02  0.51214146370E+03  0.51293931744E+03  0.41800000000E+01 0. -1.
        -11    1    3    3    0    0 -0.29745965106E+02 -0.55764742707E+01  0.16189187001E+01  0.30307431483E+02  0.00000000000E+00 0.  1.
         11    1    3    3    0    0  0.10573619359E+02  0.31518027722E+02  0.12207200297E+03  0.12651783039E+03  0.00000000000E+00 0. -1.
</event>
<event>
 7    1  0.5831876E-006  0.9548654E+02  0.7561462E-02  0.1290084E+00
          3   -1    0    0  501    0  0.00000000000E+00  0.00000000000E+00  0.65101365310E+03  0.65101365310E+03  0.00000000000E+00 0. -1.
         -3   -1    0    0    0  501 -0.00000000000E+00 -0.00000000000E+00 -0.28527030042E+02  0.28527030042E+02  0.00000000000E+00 0.  1.
         23    2    1    2    0    0  0.58027548306E+02 -0.13255805552E+02  0.16561768681E+03  0.20213066160E+03  0.99421694967E+02 0.  0.
          5    1    1    2  502    0 -0.59246460878E+02  0.23579555287E+02  0.90050867651E+02  0.11042087538E+03  0.41800000000E+01 0. -1.
         -5    1    1    2    0  502  0.12189125717E+01 -0.10323749734E+02  0.36681806860E+03  0.36698914617E+03  0.41800000000E+01 0. -1.
        -11    1    3    3    0    0 -0.26851856356E+01 -0.46547004030E+02  0.65227558766E+02  0.80177729006E+02  0.00000000000E+00 0. -1.
         11    1    3    3    0    0  0.60712733942E+02  0.33291198478E+02  0.10039012804E+03  0.12195293259E+03  0.00000000000E+00 0.  1.
</event>
<event>
 7    1  0.5831876E-006  0.8272195E+02  0.7561462E-02  0.1321500E+00
          2   -1    0    0  501    0  0.00000000000E+00  0.00000000000E+00  0.43195789099E+03  0.43195789099E+03  0.00000000000E+00 0. -1.
         -2   -1    0    0    0  501 -0.00000000000E+00 -0.00000000000E+00 -0.31334744241E+02  0.31334744241E+02  0.00000000000E+00 0.  1.
         23    2    1    2    0    0 -0.29874865690E+01 -0.28789240822E+01  0.86758391188E+02  0.12538318439E+03  0.90425169098E+02 0.  0.
          5    1    1    2  502    0 -0.53703006847E+02  0.29732521753E+02  0.17423632996E+03  0.18478042882E+03  0.41800000000E+01 0. -1.
         -5    1    1    2    0  502  0.56690493416E+02 -0.26853597671E+02  0.13962842560E+03  0.15312902203E+03  0.41800000000E+01 0. -1.
        -11    1    3    3    0    0  0.18977468018E+02 -0.16786318901E+01  0.98584202337E+02  0.10040820209E+03  0.00000000000E+00 0. -1.
         11    1    3    3    0    0 -0.21964954587E+02 -0.12002921921E+01 -0.11825811149E+02  0.24974982296E+02  0.00000000000E+00 0.  1.
</event>
<event>
 7    1  0.5831876E-006  0.1250018E+03  0.7561462E-02  0.1235067E+00
          2   -1    0    0  501    0  0.00000000000E+00  0.00000000000E+00  0.98753456976E+03  0.98753456976E+03  0.00000000000E+00 0. -1.
         -2   -1    0    0    0  501 -0.00000000000E+00 -0.00000000000E+00 -0.19431711997E+02  0.19431711997E+02  0.00000000000E+00 0.  1.
         23    2    1    2    0    0 -0.49370974418E+02  0.44992637175E+02  0.24774287628E+03  0.27277771185E+03  0.92570604525E+02 0.  0.
          5    1    1    2  502    0 -0.76711695404E+01 -0.72729046196E+02  0.48037098700E+03  0.48592398434E+03  0.41800000000E+01 0. -1.
         -5    1    1    2    0  502  0.57042143958E+02  0.27736409021E+02  0.23998899448E+03  0.24826458556E+03  0.41800000000E+01 0. -1.
        -11    1    3    3    0    0 -0.26789013141E+01 -0.27133579554E+02  0.45557701622E+02  0.53093425476E+02  0.00000000000E+00 0.  1.
         11    1    3    3    0    0 -0.46692073104E+02  0.72126216728E+02  0.20218517465E+03  0.21968428638E+03  0.00000000000E+00 0. -1.
</event>
<event>
 7    1  0.5831876E-006  0.1100257E+03  0.7561462E-02  0.1260522E+00
         -1   -1    0    0    0  501 -0.00000000000E+00  0.00000000000E+00  0.15444735463E+02  0.15444735463E+02  0.00000000000E+00 0.  1.
          1   -1    0    0  501    0  0.00000000000E+00 -0.00000000000E+00 -0.79859628711E+03  0.79859628711E+03  0.00000000000E+00 0. -1.
         23    2    1    2    0    0 -0.11300544804E+02  0.22400661467E+02 -0.34062473179E+03  0.35348961879E+03  0.91105492338E+02 0.  0.
          5    1    1    2  502    0 -0.55730989419E+02 -0.23757650397E+01 -0.16132753095E+03  0.17075020376E+03  0.41800000000E+01 0.  1.
         -5    1    1    2    0  502  0.67031534223E+02 -0.20024896427E+02 -0.28119928890E+03  0.28980120002E+03  0.41800000000E+01 0.  1.
        -11    1    3    3    0    0 -0.47614707288E+02  0.30863692621E+02 -0.22238060336E+03  0.22950568756E+03  0.00000000000E+00 0.  1.
         11    1    3    3    0    0  0.36314162484E+02 -0.84630311538E+01 -0.11824412844E+03  0.12398393123E+03  0.00000000000E+00 0. -1.
</event>
<event>
 7    1  0.5831876E-006  0.1434066E+03  0.7561462E-02  0.1208817E+00
          2   -1    0    0  501    0  0.00000000000E+00  0.00000000000E+00  0.42027017463E+03  0.42027017463E+03  0.00000000000E+00 0. -1.
         -2   -1    0    0    0  501 -0.00000000000E+00 -0.00000000000E+00 -0.80062868211E+02  0.80062868211E+02  0.00000000000E+00 0.  1.
         23    2    1    2    0    0 -0.93403158803E+02  0.71286945434E+02  0.38385459907E+02  0.15313127588E+03  0.90386754879E+02 0.  0.
          5    1    1    2  502    0  0.31415303807E+02 -0.96991758606E+02  0.20909202640E+03  0.23266127838E+03  0.41800000000E+01 0.  1.
         -5    1    1    2    0  502  0.61987854996E+02  0.25704813172E+02  0.92729820113E+02  0.11454048859E+03  0.41800000000E+01 0.  1.
        -11    1    3    3    0    0 -0.84259873535E+02  0.63131079325E+02 -0.75817625469E+01  0.10555918997E+03  0.00000000000E+00 0.  1.
         11    1    3    3    0    0 -0.91432852680E+01  0.81558661089E+01  0.45967222454E+02  0.47572085908E+02  0.00000000000E+00 0. -1.
</event>
<event>
 7    1  0.5831876E-006  0.1086881E+03  0.7561462E-02  0.1263019E+00
         -2   -1    0    0    0  501 -0.00000000000E+00  0.00000000000E+00  0.40228685194E+02  0.40228685194E+02  0.00000000000E+00 0.  1.
          2   -1    0    0  501    0  0.00000000000E+00 -0.00000000000E+00 -0.49077956095E+03  0.49077956095E+03  0.00000000000E+00 0. -1.
         23    2    1    2    0    0 -0.54283319577E+02  0.69961316960E+02 -0.17518657882E+03  0.21586581545E+03  0.89813407827E+02 0.  0.
          5    1    1    2  502    0 -0.19513939873E+02 -0.43602738198E+01  0.21650282021E+01  0.20541800901E+02  0.41800000000E+01 0. -1.
         -5    1    1    2    0  502  0.73797259450E+02 -0.65601043141E+02 -0.27752932514E+03  0.29460062980E+03  0.41800000000E+01 0. -1.
        -11    1    3    3    0    0 -0.44209452906E+02  0.22507191679E+02 -0.20372755046E+02  0.53629269543E+02  0.00000000000E+00 0.  1.
         11    1    3    3    0    0 -0.10073866670E+02  0.47454125281E+02 -0.15481382377E+03  0.16223654590E+03  0.00000000000E+00 0. -1.
</event>
<event>
 7    1  0.5831876E-006  0.1340703E+03  0.7561462E-02  0.1221538E+00
          4   -1    0    0  501    0  0.00000000000E+00  0.00000000000E+00  0.86475534730E+03  0.86475534730E+03  0.00000000000E+00 0. -1.
         -4   -1    0    0    0  501 -0.00000000000E+00 -0.00000000000E+00 -0.34838683343E+02  0.34838683343E+02  0.00000000000E+00 0.  1.
         23    2    1    2    0    0  0.12988495389E+02  0.36825314357E+02  0.11512480055E+03  0.15084435846E+03  0.89305632448E+02 0.  0.
          5    1    1    2  502    0 -0.88277795003E+02  0.14263960847E+02  0.57484050131E+03  0.58176928762E+03  0.41800000000E+01 0. -1.
         -5    1    1    2    0  502  0.75289299614E+02 -0.51089275204E+02  0.13995136210E+03  0.16698038457E+03  0.41800000000E+01 0.  1.
        -11    1    3    3    0    0  0.38403487157E+02  0.46531196994E+02  0.10632788837E+03  0.12225219820E+03  0.00000000000E+00 0. -1.
         11    1    3    3    0    0 -0.25414991768E+02 -0.97058826370E+01  0.87969121814E+01  0.28592160259E+02  0.00000000000E+00 0.  1.
</event>
<event>
 7    1  0.5831876E-006  0.5336089E+02  0.7561462E-02  0.1428013E+00
         -2   -1    0    0    0  501 -0.00000000000E+00  0.00000000000E+00  0.85048798310E+02  0.85048798310E+02  0.00000000000E+00 0.  1.
          2   -1    0    0  501    0  0.00000000000E+00 -0.00000000000E+00 -0.17078007859E+03  0.17078007859E+03  0.00000000000E+00 0. -1.
         23    2    1    2    0    0  0.12102001006E+02  0.22126523684E+01  0.16912543160E+02  0.93550546253E+02  0.91182873004E+02 0.  0.
          5    1    1    2  502    0 -0.74168665212E+01 -0.31920032133E+01  0.29045702152E+02  0.30435571409E+02  0.41800000000E+01 0. -1.
         -5    1    1    2    0  502 -0.46851344851E+01  0.97935084489E+00 -0.13168952559E+03  0.13184275924E+03  0.41800000000E+01 0. -1.
        -11    1    3    3    0    0 -0.39013801166E+02 -0.60987523155E+01  0.14898616052E+01  0.39515707622E+02  0.00000000000E+00 0. -1.
         11    1    3    3    0    0  0.51115802173E+02  0.83114046839E+01  0.15422681554E+02  0.54034838631E+02  0.00000000000E+00 0.  1.
</event>
<event>
 7    1  0.5831876E-006  0.2593805E+03  0.7561462E-02  0.1107516E+00
          2   -1    0    0  501    0  0.00000000000E+00  0.00000000000E+00  0.38320202397E+03  0.38320202397E+03  0.00000000000E+00 0. -1.
         -2   -1    0    0    0  501 -0.00000000000E+00 -0.00000000000E+00 -0.20074433248E+03  0.20074433248E+03  0.00000000000E+00 0.  1.
         23    2    1    2    0    0 -0.24090809506E+03  0.85025491388E+02  0.77662560759E+02  0.28080294168E+03  0.86906698612E+02 0.  0.
          5    1    1    2  502    0  0.18918233996E+03 -0.42558884522E+02  0.12777349510E+03  0.23226010173E+03  0.41800000000E+01 0. -1.
         -5    1    1    2    0  502  0.51725755093E+02 -0.42466606866E+02 -0.22978364362E+02  0.70883313039E+02  0.41800000000E+01 0. -1.
        -11    1    3    3    0    0 -0.94071041204E+02  0.51063991519E+02  0.73850380910E+02  0.13004141949E+03  0.00000000000E+00 0.  1.
         11    1    3    3    0    0 -0.14683705385E+03  0.33961499869E+02  0.38121798489E+01  0.15076152219E+03  0.00000000000E+00 0. -1.
</event>
<event>
 7    1  0.5831876E-006  0.2676052E+03  0.7561462E-02  0.1102658E+00
         -1   -1    0    0    0  501 -0.00000000000E+00  0.00000000000E+00  0.78097085239E+03  0.78097085239E+03  0.00000000000E+00 0.  1.
          1   -1    0    0  501    0  0.00000000000E+00 -0.00000000000E+00 -0.11119851576E+03  0.11119851576E+03  0.00000000000E+00 0. -1.
         23    2    1    2    0    0  0.15322772311E+03  0.20419213553E+03  0.47675068171E+03  0.54854692349E+03  0.91865942665E+02 0.  0.
          5    1    1    2  502    0 -0.14053819176E+03 -0.97549248323E+02  0.84370697844E+02  0.19079498485E+03  0.41800000000E+01 0. -1.
         -5    1    1    2    0  502 -0.12689531357E+02 -0.10664288720E+03  0.10865095708E+03  0.15282745981E+03  0.41800000000E+01 0. -1.
        -11    1    3    3    0    0  0.86997134236E+02  0.13679033561E+03  0.38083092141E+03  0.41389888618E+03  0.00000000000E+00 0.  1.
         11    1    3    3    0    0  0.66230588879E+02  0.67401799920E+02  0.95919760296E+02  0.13464803731E+03  0.00000000000E+00 0. -1.
</event>
<event>
 7    1  0.5831876E-006  0.1482477E+03  0.7561462E-02  0.1202643E+00
         -1   -1    0    0    0  501 -0.00000000000E+00  0.00000000000E+00  0.42830004782E+03  0.42830004782E+03  0.00000000000E+00 0.  1.
          1   -1    0    0  501    0  0.00000000000E+00 -0.00000000000E+00 -0.52766387230E+02  0.52766387230E+02  0.00000000000E+00 0. -1.
         23    2    1    2    0    0  0.65355975613E+02 -0.76632221284E+02  0.13341585025E+03  0.19052802251E+03  0.91417927001E+02 0.  0.
          5    1    1    2  502    0 -0.38641366203E+02  0.11053676033E+03  0.18019907423E+03  0.21494350262E+03  0.41800000000E+01 0. -1.
         -5    1    1    2    0  502 -0.26714609410E+02 -0.33904539045E+02  0.61918736103E+02  0.75594909911E+02  0.41800000000E+01 0. -1.
        -11    1    3    3    0    0  0.68089456316E+02 -0.94754707940E+01  0.70310302117E+02  0.98333601541E+02  0.00000000000E+00 0.  1.
         11    1    3    3    0    0 -0.27334807026E+01 -0.67156750490E+02  0.63105548136E+02  0.92194420974E+02  0.00000000000E+00 0. -1.
</event>
<event>
 7    1  0.5831876E-006  0.1039424E+03  0.7561462E-02  0.1272217E+00
         -2   -1    0    0    0  501 -0.00000000000E+00  0.00000000000E+00  0.15177076544E+03  0.15177076544E+03  0.00000000000E+00 0.  1.
          2   -1    0    0  501    0  0.00000000000E+00 -0.00000000000E+00 -0.12162123039E+03  0.12162123039E+03  0.00000000000E+00 0. -1.
         23    2    1    2    0    0 -0.96546784516E+01 -0.38914129319E+02  0.81211192263E+02  0.13245963590E+03  0.96658031834E+02 0.  0.
          5    1    1    2  502    0  0.81768027057E+01 -0.31783327969E+02  0.21556692740E+02  0.39486750198E+02  0.41800000000E+01 0. -1.
         -5    1    1    2    0  502  0.14778757459E+01  0.70697457288E+02 -0.72618349947E+02  0.10144560973E+03  0.41800000000E+01 0. -1.
        -11    1    3    3    0    0 -0.78862203141E+01  0.32036292984E+02  0.18947092144E+02  0.38046140931E+02  0.00000000000E+00 0.  1.
         11    1    3    3    0    0 -0.17684581375E+01 -0.70950422303E+02  0.62264100120E+02  0.94413494972E+02  0.00000000000E+00 0. -1.
</event>
<event>
 7    1  0.5831876E-006  0.1023199E+03  0.7561462E-02  0.1275492E+00
          2   -1    0    0  501    0  0.00000000000E+00  0.00000000000E+00  0.24391166587E+03  0.24391166587E+03  0.00000000000E+00 0. -1.
         -2   -1    0    0    0  501 -0.00000000000E+00 -0.00000000000E+00 -0.56631950390E+02  0.56631950390E+02  0.00000000000E+00 0.  1.
         23    2    1    2    0    0 -0.41540782594E+02 -0.10380655375E+02  0.63446557484E+02  0.11939141164E+03  0.91626682203E+02 0.  0.
          5    1    1    2  502    0  0.38963894279E+02 -0.40238341454E+02  0.11707150045E+03  0.12984805658E+03  0.41800000000E+01 0. -1.
         -5    1    1    2    0  502  0.25768883150E+01  0.50618996829E+02  0.67616575443E+01  0.51304148040E+02  0.41800000000E+01 0. -1.
        -11    1    3    3    0    0  0.18906866881E+02 -0.28775585248E+02  0.80463763523E+01  0.35358847464E+02  0.00000000000E+00 0.  1.
         11    1    3    3    0    0 -0.60447649475E+02  0.18394929872E+02  0.55400181131E+02  0.84032564173E+02  0.00000000000E+00 0. -1.
</event>
<event>
 7    1  0.5831876E-006  0.1123423E+03  0.7561462E-02  0.1256293E+00
         -1   -1    0    0    0  501 -0.00000000000E+00  0.00000000000E+00  0.30202508907E+02  0.30202508907E+02  0.00000000000E+00 0.  1.
          1   -1    0    0  501    0  0.00000000000E+00 -0.00000000000E+00 -0.60182452284E+03  0.60182452284E+03  0.00000000000E+00 0. -1.
         23    2    1    2    0    0  0.32413031728E+02 -0.72011521706E+02 -0.24211254641E+03  0.27083470963E+03  0.92177496863E+02 0.  0.
          5    1    1    2  502    0 -0.40941465656E+02  0.95195307333E+02 -0.16571205179E+03  0.19548991446E+03  0.41800000000E+01 0. -1.
         -5    1    1    2    0  502  0.85284339279E+01 -0.23183785627E+02 -0.16379741573E+03  0.16570240765E+03  0.41800000000E+01 0. -1.
        -11    1    3    3    0    0  0.17756377014E+02 -0.78067975082E+02 -0.24208026451E+03  0.25497598342E+03  0.00000000000E+00 0. -1.
         11    1    3    3    0    0  0.14656654714E+02  0.60564533763E+01 -0.32281904264E-01  0.15858726211E+02  0.00000000000E+00 0.  1.
</event>
<event>
 7    1  0.5831876E-006  0.1035879E+03  0.7561462E-02  0.1272927E+00
         -1   -1    0    0    0  501 -0.00000000000E+00  0.00000000000E+00  0.39266629273E+02  0.39266629273E+02  0.00000000000E+00 0.  1.
          1   -1    0    0  501    0  0.00000000000E+00 -0.00000000000E+00 -0.30610099476E+03  0.30610099476E+03  0.00000000000E+00 0. -1.
         23    2    1    2    0    0  0.70260112519E+01  0.43784033354E+01 -0.90776473734E+02  0.12923668120E+03  0.91614498492E+02 0.  0.
          5    1    1    2  502    0 -0.62513069622E+02 -0.17903760352E+02 -0.11666053078E+03  0.13362477446E+03  0.41800000000E+01 0. -1.
         -5    1    1    2    0  502  0.55487058370E+02  0.13525357016E+02 -0.59397360975E+02  0.82506168374E+02  0.41800000000E+01 0. -1.
        -11    1    3    3    0    0  0.40728278236E+02 -0.17755246691E+02 -0.72354543010E+02  0.84907133548E+02  0.00000000000E+00 0.  1.
         11    1    3    3    0    0 -0.33702266984E+02  0.22133650027E+02 -0.18421930724E+02  0.44329547651E+02  0.00000000000E+00 0. -1.
</event>
<event>
 7    1  0.5831876E-006  0.1499880E+03  0.7561462E-02  0.1200488E+00
          2   -1    0    0  501    0  0.00000000000E+00  0.00000000000E+00  0.10268033598E+04  0.10268033598E+04  0.00000000000E+00 0. -1.
         -2   -1    0    0    0  501 -0.00000000000E+00 -0.00000000000E+00 -0.28137965668E+02  0.28137965668E+02  0.00000000000E+00 0.  1.
         23    2    1    2    0    0 -0.10046799615E+03 -0.68081192606E+02  0.36610541474E+03  0.39665939718E+03  0.92610127064E+02 0.  0.
          5    1    1    2  502    0  0.55488441942E+02 -0.10809481479E+02  0.45775130969E+03  0.46124781409E+03  0.41800000000E+01 0. -1.
         -5    1    1    2    0  502  0.44979554210E+02  0.78890674084E+02  0.17480866972E+03  0.19703411421E+03  0.41800000000E+01 0.  1.
        -11    1    3    3    0    0 -0.94218459691E+02 -0.10885146932E+02  0.21606887694E+03  0.23596898981E+03  0.00000000000E+00 0. -1.
         11    1    3    3    0    0 -0.62495364614E+01 -0.57196045673E+02  0.15003653780E+03  0.16069040737E+03  0.00000000000E+00 0.  1.
</event>
<event>
 7    1  0.5831876E-006  0.1159884E+03  0.7561462E-02  0.1249866E+00
          2   -1    0    0  501    0  0.00000000000E+00  0.00000000000E+00  0.27157245230E+03  0.27157245230E+03  0.00000000000E+00 0. -1.
         -2   -1    0    0    0  501 -0.00000000000E+00 -0.00000000000E+00 -0.87861881399E+02  0.87861881399E+02  0.00000000000E+00 0.  1.
         23    2    1    2    0    0 -0.71549961436E+02 -0.24717720398E+02 -0.78812126011E+01  0.11842376908E+03  0.90728787536E+02 0.  0.
          5    1    1    2  502    0  0.45629620111E+02  0.60682715713E+02  0.46248651606E+02  0.88999238161E+02  0.41800000000E+01 0.  1.
         -5    1    1    2    0  502  0.25920341324E+02 -0.35964995315E+02  0.14534313190E+03  0.15201132646E+03  0.41800000000E+01 0.  1.
        -11    1    3    3    0    0  0.10348869671E+02 -0.27582548564E+02 -0.19966200264E+02  0.35588554926E+02  0.00000000000E+00 0.  1.
         11    1    3    3    0    0 -0.81898831107E+02  0.28648281661E+01  0.12084987663E+02  0.82835214153E+02  0.00000000000E+00 0. -1.
</event>
<event>
 7    1  0.5831876E-006  0.9345082E+02  0.7561462E-02  0.1294704E+00
         -2   -1    0    0    0  501 -0.00000000000E+00  0.00000000000E+00  0.25937259993E+03  0.25937259993E+03  0.00000000000E+00 0.  1.
          2   -1    0    0  501    0  0.00000000000E+00 -0.00000000000E+00 -0.58670005309E+02  0.58670005309E+02  0.00000000000E+00 0. -1.
         23    2    1    2    0    0 -0.56769363831E+02  0.35340686760E+02  0.10618812884E+03  0.15570085828E+03  0.92168941369E+02 0.  0.
          5    1    1    2  502    0  0.57989570221E+02 -0.39308018795E+02  0.25901258832E+01  0.70228852675E+02  0.41800000000E+01 0. -1.
         -5    1    1    2    0  502 -0.12202063891E+01  0.39673320352E+01  0.91924339896E+02  0.92112894278E+02  0.41800000000E+01 0.  1.
        -11    1    3    3    0    0 -0.79098424023E+02  0.14761860677E+02  0.91880941415E+02  0.12213345409E+03  0.00000000000E+00 0.  1.
         11    1    3    3    0    0  0.22329060192E+02  0.20578826082E+02  0.14307187423E+02  0.33567404188E+02  0.00000000000E+00 0. -1.
</event>
<event>
 7    1  0.5831876E-006  0.6590805E+02  0.7561462E-02  0.1374588E+00
          2   -1    0    0  501    0  0.00000000000E+00  0.00000000000E+00  0.48809625014E+03  0.48809625014E+03  0.00000000000E+00 0. -1.
         -2   -1    0    0    0  501 -0.00000000000E+00 -0.00000000000E+00 -0.43337871289E+02  0.43337871289E+02  0.00000000000E+00 0.  1.
         23    2    1    2    0    0 -0.32370893920E+02  0.37627780909E+02  0.78620240907E+02  0.12849373953E+03  0.88689199729E+02 0.  0.
          5    1    1    2  502    0  0.28685047228E+02 -0.14088900202E+02  0.37558954371E+03  0.37696990170E+03  0.41800000000E+01 0. -1.
         -5    1    1    2    0  502  0.36858466919E+01 -0.23538880708E+02 -0.94514057668E+01  0.25970480199E+02  0.41800000000E+01 0.  1.
        -11    1    3    3    0    0 -0.83725849792E+01  0.48379990903E+02  0.87837046830E+02  0.10062837818E+03  0.00000000000E+00 0.  1.
         11    1    3    3    0    0 -0.23998308941E+02 -0.10752209994E+02 -0.92168059234E+01  0.27865361350E+02  0.00000000000E+00 0. -1.
</event>
<event>
 7    1  0.5831876E-006  0.1019903E+03  0.7561462E-02  0.1276165E+00
         -1   -1    0    0    0  501 -0.00000000000E+00  0.00000000000E+00  0.12110344903E+03  0.12110344903E+03  0.00000000000E+00 0.  1.
          1   -1    0    0  501    0  0.00000000000E+00 -0.00000000000E+00 -0.16987496264E+03  0.16987496264E+03  0.00000000000E+00 0. -1.
         23    2    1    2    0    0 -0.61075077790E+02  0.55728792835E+02  0.22927602793E+02  0.12477146186E+03  0.90589068029E+02 0.  0.
          5    1    1    2  502    0  0.24626209597E+02 -0.22587066763E+02  0.35024166186E+02  0.48587965600E+02  0.41800000000E+01 0. -1.
         -5    1    1    2    0  502  0.36448868193E+02 -0.33141726072E+02 -0.10672328259E+03  0.11761898421E+03  0.41800000000E+01 0. -1.
        -11    1    3    3    0    0 -0.44251913467E+02 -0.16101112709E+02  0.19351174648E+02  0.50911154340E+02  0.00000000000E+00 0.  1.
         11    1    3    3    0    0 -0.16823164323E+02  0.71829905544E+02  0.35764281443E+01  0.73860307518E+02  0.00000000000E+00 0. -1.
</event>
<event>
 7    1  0.5831876E-006  0.1065943E+03  0.7561462E-02  0.1267010E+00
          3   -1    0    0  501    0  0.00000000000E+00  0.00000000000E+00  0.42842719262E+03  0.42842719262E+03  0.00000000000E+00 0. -1.
         -3   -1    0    0    0  501 -0.00000000000E+00 -0.00000000000E+00 -0.33960186633E+02  0.33960186633E+02  0.00000000000E+00 0.  1.
         23    2    1    2    0    0  0.15045858538E+02 -0.44551089260E+02  0.13121284937E+03  0.16715267873E+03  0.92260656589E+02 0.  0.
          5    1    1    2  502    0 -0.22400122626E+02 -0.30949066498E+02  0.17320809060E+03  0.17742075769E+03  0.41800000000E+01 0. -1.
         -5    1    1    2    0  502  0.73542640876E+01  0.75500155758E+02  0.90046066021E+02  0.11781394283E+03  0.41800000000E+01 0. -1.
        -11    1    3    3    0    0 -0.26370963088E+02 -0.50471268828E+02  0.49932398877E+02  0.75736524405E+02  0.00000000000E+00 0.  1.
         11    1    3    3    0    0  0.41416821626E+02  0.59201795682E+01  0.81280450495E+02  0.91416154329E+02  0.00000000000E+00 0. -1.
</event>
<event>
 7    1  0.5831876E-006  0.1081051E+03  0.7561462E-02  0.1264120E+00
         -2   -1    0    0    0  501 -0.00000000000E+00  0.00000000000E+00  0.24130164162E+02  0.24130164162E+02  0.00000000000E+00 0.  1.
          2   -1    0    0  501    0  0.00000000000E+00 -0.00000000000E+00 -0.68027513305E+03  0.68027513305E+03  0.00000000000E+00 0. -1.
         23    2    1    2    0    0 -0.51663986525E+02 -0.12430442358E+02 -0.17282974377E+03  0.20234458113E+03  0.90826900100E+02 0.  0.
          5    1    1    2  502    0  0.83824317372E+02  0.40293100089E+02 -0.33769102871E+03  0.35028952792E+03  0.41800000000E+01 0.  1.
         -5    1    1    2    0  502 -0.32160330847E+02 -0.27862657731E+02 -0.14562419641E+03  0.15177118816E+03  0.41800000000E+01 0.  1.
        -11    1    3    3    0    0 -0.18674250975E+02 -0.35490811869E+02 -0.20998641543E+02  0.45268844951E+02  0.00000000000E+00 0.  1.
         11    1    3    3    0    0 -0.32989735550E+02  0.23060369511E+02 -0.15183110223E+03  0.15707573618E+03  0.00000000000E+00 0. -1.
</event>
<event>
 7    1  0.5831876E-006  0.1177977E+03  0.7561462E-02  0.1246775E+00
         -1   -1    0    0    0  501 -0.00000000000E+00  0.00000000000E+00  0.20166737458E+03  0.20166737458E+03  0.00000000000E+00 0.  1.
          1   -1    0    0  501    0  0.00000000000E+00 -0.00000000000E+00 -0.95583303037E+02  0.95583303037E+02  0.00000000000E+00 0. -1.
         23    2    1    2    0    0 -0.31108122490E+02  0.18226711189E+01  0.66693541872E+02  0.11656446897E+03  0.90378147155E+02 0.  0.
          5    1    1    2  502    0  0.87465187966E+02 -0.94514844945E+01 -0.27990024992E+02  0.92414303894E+02  0.41800000000E+01 0. -1.
         -5    1    1    2    0  502 -0.56357065477E+02  0.76288133756E+01  0.67380554665E+02  0.88271904758E+02  0.41800000000E+01 0.  1.
        -11    1    3    3    0    0 -0.32346682832E+01  0.41710360834E+02  0.12355067450E+02  0.43621840533E+02  0.00000000000E+00 0. -1.
         11    1    3    3    0    0 -0.27873454207E+02 -0.39887689715E+02  0.54338474422E+02  0.72942628433E+02  0.00000000000E+00 0.  1.
</event>
<event>
 7    1  0.5831876E-006  0.1005721E+03  0.7561462E-02  0.1279097E+00
         -1   -1    0    0    0  501 -0.00000000000E+00  0.00000000000E+00  0.18236565924E+03  0.18236565924E+03  0.00000000000E+00 0.  1.
          1   -1    0    0  501    0  0.00000000000E+00 -0.00000000000E+00 -0.80366977744E+02  0.80366977744E+02  0.00000000000E+00 0. -1.
         23    2    1    2    0    0  0.39620609206E+02 -0.39873385944E+02  0.42837048171E+02  0.11337548397E+03  0.88652738760E+02 0.  0.
          5    1    1    2  502    0 -0.70221291825E+02 -0.14722491139E+02  0.17230000333E+02  0.73906203274E+02  0.41800000000E+01 0. -1.
         -5    1    1    2    0  502  0.30600682619E+02  0.54595877083E+02  0.41931632997E+02  0.75450949742E+02  0.41800000000E+01 0. -1.
        -11    1    3    3    0    0  0.17513656399E+02 -0.40822701109E+02  0.67142309420E+02  0.80506588554E+02  0.00000000000E+00 0.  1.
         11    1    3    3    0    0  0.22106952807E+02  0.94931516590E+00 -0.24305261249E+02  0.32868895419E+02  0.00000000000E+00 0. -1.
</event>
<event>
 7    1  0.5831876E-006  0.8940318E+02  0.7561462E-02  0.1304303E+00
          2   -1    0    0  501    0  0.00000000000E+00  0.00000000000E+00  0.18698626366E+03  0.18698626366E+03  0.00000000000E+00 0. -1.
         -2   -1    0    0    0  501 -0.00000000000E+00 -0.00000000000E+00 -0.88599912829E+02  0.88599912829E+02  0.00000000000E+00 0.  1.
         23    2    1    2    0    0  0.43717917921E+02 -0.31270536217E+02 -0.65298900787E+01  0.10370243246E+03  0.88444628168E+02 0.  0.
          5    1    1    2  502    0 -0.25974532310E+02  0.45252165338E+02 -0.11189680251E+02  0.53526779658E+02  0.41800000000E+01 0.  1.
         -5    1    1    2    0  502 -0.17743385611E+02 -0.13981629120E+02  0.11610592116E+03  0.11835696436E+03  0.41800000000E+01 0.  1.
        -11    1    3    3    0    0  0.59401120979E+01 -0.57302946559E+02 -0.42757192628E+01  0.57768454984E+02  0.00000000000E+00 0. -1.
         11    1    3    3    0    0  0.37777805824E+02  0.26032410342E+02 -0.22541708159E+01  0.45933977480E+02  0.00000000000E+00 0.  1.
</event>
<event>
 7    1  0.5831876E-006  0.4955805E+02  0.7561462E-02  0.1447740E+00
          1   -1    0    0  501    0  0.00000000000E+00  0.00000000000E+00  0.30290435703E+03  0.30290435703E+03  0.00000000000E+00 0. -1.
         -1   -1    0    0    0  501 -0.00000000000E+00 -0.00000000000E+00 -0.42173940167E+02  0.42173940167E+02  0.00000000000E+00 0.  1.
         23    2    1    2    0    0 -0.19854448960E+01 -0.27692818541E+02  0.83182647149E+02  0.12612431819E+03  0.90648533693E+02 0.  0.
          5    1    1    2  502    0 -0.65072055966E+01  0.26636674309E+02 -0.11238856827E+02  0.29927252558E+02  0.41800000000E+01 0.  1.
         -5    1    1    2    0  502  0.84926504926E+01  0.10561442321E+01  0.18878662654E+03  0.18902672645E+03  0.41800000000E+01 0.  1.
        -11    1    3    3    0    0 -0.27782765321E+01 -0.44721577087E+02  0.38411717160E+01  0.44972134459E+02  0.00000000000E+00 0.  1.
         11    1    3    3    0    0  0.79283163610E+00  0.17028758546E+02  0.79341475433E+02  0.81152183727E+02  0.00000000000E+00 0. -1.
</event>
<event>
 7    1  0.5831876E-006  0.1248670E+03  0.7561462E-02  0.1235277E+00
         -3   -1    0    0    0  501 -0.00000000000E+00  0.00000000000E+00  0.97863938811E+02  0.97863938811E+02  0.00000000000E+00 0.  1.
          3   -1    0    0  501    0  0.00000000000E+00 -0.00000000000E+00 -0.29821558982E+03  0.29821558982E+03  0.00000000000E+00 0. -1.
         23    2    1    2    0    0 -0.13997145041E+02 -0.94344603953E+02  0.12681565330E+02  0.13126837514E+03  0.89295799722E+02 0.  0.
          5    1    1    2  502    0  0.30958895077E+02  0.11882394909E+03 -0.14261148607E+03  0.18823679880E+03  0.41800000000E+01 0. -1.
         -5    1    1    2    0  502 -0.16961750036E+02 -0.24479345140E+02 -0.70421730271E+02  0.76574354696E+02  0.41800000000E+01 0. -1.
        -11    1    3    3    0    0 -0.11125855365E+02 -0.24645415471E+02  0.46464748036E+02  0.53760152264E+02  0.00000000000E+00 0.  1.
         11    1    3    3    0    0 -0.28712896768E+01 -0.69699188482E+02 -0.33783182706E+02  0.77508222875E+02  0.00000000000E+00 0. -1.
</event>
<event>
 7    1  0.5831876E-006  0.8840147E+02  0.7561462E-02  0.1306770E+00
         -4   -1    0    0    0  501 -0.00000000000E+00  0.00000000000E+00  0.82324259030E+02  0.82324259030E+02  0.00000000000E+00 0.  1.
          4   -1    0    0  501    0  0.00000000000E+00 -0.00000000000E+00 -0.33432248777E+03  0.33432248777E+03  0.00000000000E+00 0. -1.
         23    2    1    2    0    0  0.75415765535E+02 -0.39742733662E+02 -0.15201825036E+01  0.12398034220E+03  0.90009953483E+02 0.  0.
          5    1    1    2  502    0 -0.33169280034E+02  0.14380528359E+02 -0.23918977385E+03  0.24194259867E+03  0.41800000000E+01 0.  1.
         -5    1    1    2    0  502 -0.42246485501E+02  0.25362205304E+02 -0.11288272380E+02  0.50723805934E+02  0.41800000000E+01 0.  1.
        -11    1    3    3    0    0  0.70786063586E+02 -0.24307640666E+02  0.36069989164E+02  0.83081720680E+02  0.00000000000E+00 0.  1.
         11    1    3    3    0    0  0.46297019489E+01 -0.15435092996E+02 -0.37590171668E+02  0.40898621517E+02  0.00000000000E+00 0. -1.
</event>
<event>
 7    1  0.5831876E-006  0.1656731E+03  0.7561462E-02  0.1182437E+00
          1   -1    0    0  501    0  0.00000000000E+00  0.00000000000E+00  0.20539938947E+03  0.20539938947E+03  0.00000000000E+00 0. -1.
         -1   -1    0    0    0  501 -0.00000000000E+00 -0.00000000000E+00 -0.15792357315E+03  0.15792357315E+03  0.00000000000E+00 0.  1.
         23    2    1    2    0    0  0.13599728561E+03 -0.28139390617E+02 -0.10562364409E+02  0.16650877135E+03  0.91249769292E+02 0.  0.
          5    1    1    2  502    0 -0.12620110296E+03 -0.25419119867E+02  0.20197844568E+02  0.13037743427E+03  0.41800000000E+01 0. -1.
         -5    1    1    2    0  502 -0.97961826554E+01  0.53558510484E+02  0.37840336166E+02  0.66436757003E+02  0.41800000000E+01 0.  1.
        -11    1    3    3    0    0  0.75856288194E+02 -0.41301281697E+02 -0.43478545246E+02  0.96697240008E+02  0.00000000000E+00 0.  1.
         11    1    3    3    0    0  0.60140997416E+02  0.13161891080E+02  0.32916180837E+02  0.69811531339E+02  0.00000000000E+00 0. -1.
</event>
<event>
 7    1  0.5831876E-006  0.1241908E+03  0.7561462E-02  0.1236339E+00
         -2   -1    0    0    0  501 -0.00000000000E+00  0.00000000000E+00  0.51286043095E+02  0.51286043095E+02  0.00000000000E+00 0. -1.
          2   -1    0    0  501    0  0.00000000000E+00 -0.00000000000E+00 -0.45265003336E+03  0.45265003336E+03  0.00000000000E+00 0.  1.
         23    2    1    2    0    0 -0.76111706741E+01 -0.99838239510E+02 -0.12330101843E+03  0.18301196707E+03  0.90910037713E+02 0.  0.
          5    1    1    2  502    0 -0.44977199993E+02  0.47336069994E+02 -0.21039286922E+03  0.22033221249E+03  0.41800000000E+01 0. -1.
         -5    1    1    2    0  502  0.52588370667E+02  0.52502169516E+02 -0.67670102617E+02  0.10059189690E+03  0.41800000000E+01 0. -1.
        -11    1    3    3    0    0 -0.23637652692E+02 -0.77543692993E+02 -0.31129665505E+02  0.86837889324E+02  0.00000000000E+00 0.  1.
         11    1    3    3    0    0  0.16026482017E+02 -0.22294546516E+02 -0.92171352921E+02  0.96174077742E+02  0.00000000000E+00 0. -1.
</event>
<event>
 7    1  0.5831876E-006  0.1617507E+03  0.7561462E-02  0.1186734E+00
         -1   -1    0    0    0  501 -0.00000000000E+00  0.00000000000E+00  0.41583505865E+03  0.41583505865E+03  0.00000000000E+00 0.  1.
          1   -1    0    0  501    0  0.00000000000E+00 -0.00000000000E+00 -0.76534476085E+02  0.76534476085E+02  0.00000000000E+00 0. -1.
         23    2    1    2    0    0 -0.12405333332E+03  0.47253998904E+02  0.22639794891E+03  0.27785598454E+03  0.91245531157E+02 0.  0.
          5    1    1    2  502    0  0.11645944154E+03 -0.17337172915E+01  0.12040394225E+03  0.16757204125E+03  0.41800000000E+01 0.  1.
         -5    1    1    2    0  502  0.75938917862E+01 -0.45520281612E+02 -0.75013086007E+01  0.46941508937E+02  0.41800000000E+01 0.  1.
        -11    1    3    3    0    0 -0.38843502674E+02  0.62952673734E+02  0.93773787068E+02  0.11943776610E+03  0.00000000000E+00 0.  1.
         11    1    3    3    0    0 -0.85209830650E+02 -0.15698674830E+02  0.13262416184E+03  0.15841821844E+03  0.00000000000E+00 0. -1.
</event>
<event>
 7    1  0.5831876E-006  0.9301682E+02  0.7561462E-02  0.1295706E+00
          2   -1    0    0  501    0  0.00000000000E+00  0.00000000000E+00  0.22806602669E+03  0.22806602669E+03  0.00000000000E+00 0. -1.
         -2   -1    0    0    0  501 -0.00000000000E+00 -0.00000000000E+00 -0.70859625417E+02  0.70859625417E+02  0.00000000000E+00 0.  1.
         23    2    1    2    0    0 -0.33864831327E+02  0.25730622546E+02  0.10584720338E+02  0.10155672242E+03  0.91612443627E+02 0.  0.
          5    1    1    2  502    0 -0.33040274165E+02 -0.47668524212E+02  0.88890069659E+02  0.10622083036E+03  0.41800000000E+01 0.  1.
         -5    1    1    2    0  502  0.66905105493E+02  0.21937901665E+02  0.57731611274E+02  0.91148099326E+02  0.41800000000E+01 0.  1.
        -11    1    3    3    0    0  0.74366512137E+01  0.11442136769E+02  0.44303584135E+02  0.46357672960E+02  0.00000000000E+00 0. -1.
         11    1    3    3    0    0 -0.41301482541E+02  0.14288485777E+02 -0.33718863797E+02  0.55199049463E+02  0.00000000000E+00 0.  1.
</event>
<event>
 7    1  0.5831876E-006  0.1343624E+03  0.7561462E-02  0.1221123E+00
         -4   -1    0    0    0  501 -0.00000000000E+00  0.00000000000E+00  0.37554981088E+03  0.37554981088E+03  0.00000000000E+00 0.  1.
          4   -1    0    0  501    0  0.00000000000E+00 -0.00000000000E+00 -0.75831030998E+02  0.75831030998E+02  0.00000000000E+00 0. -1.
         23    2    1    2    0    0  0.38225322145E+02 -0.10581443772E+03  0.22400039680E+03  0.26688206332E+03  0.91607791551E+02 0.  0.
          5    1    1    2  502    0 -0.52892335475E+02  0.10060348101E+03  0.10258690248E+03  0.15316724357E+03  0.41800000000E+01 0.  1.
         -5    1    1    2    0  502  0.14667013330E+02  0.52109567059E+01 -0.26868519399E+02  0.31331534985E+02  0.41800000000E+01 0.  1.
        -11    1    3    3    0    0 -0.24500200207E+02 -0.15784382162E+02  0.20329533765E+02  0.35534440667E+02  0.00000000000E+00 0. -1.
         11    1    3    3    0    0  0.62725522352E+02 -0.90030055554E+02  0.20367086303E+03  0.23134762265E+03  0.00000000000E+00 0.  1.
</event>
<event>
 7    1  0.5831876E-006  0.1097785E+03  0.7561462E-02  0.1260981E+00
          1   -1    0    0  501    0  0.00000000000E+00  0.00000000000E+00  0.48577265980E+03  0.48577265980E+03  0.00000000000E+00 0. -1.
         -1   -1    0    0    0  501 -0.00000000000E+00 -0.00000000000E+00 -0.58658013864E+02  0.58658013864E+02  0.00000000000E+00 0.  1.
         23    2    1    2    0    0 -0.50151851564E+02  0.28698207150E+02  0.27779831721E+02  0.12198820558E+03  0.10378153950E+03 0.  0.
          5    1    1    2  502    0  0.50690449701E+02  0.33626192528E+02  0.29161154745E+03  0.29791778987E+03  0.41800000000E+01 0.  1.
         -5    1    1    2    0  502 -0.53859813689E+00 -0.62324399678E+02  0.10772326677E+03  0.12452467823E+03  0.41800000000E+01 0.  1.
        -11    1    3    3    0    0  0.13113504436E+02  0.30103963101E+02 -0.23631245658E+02  0.40455510927E+02  0.00000000000E+00 0.  1.
         11    1    3    3    0    0 -0.63265355999E+02 -0.14057559509E+01  0.51411077378E+02  0.81532694649E+02  0.00000000000E+00 0. -1.
</event>
<event>
 7    1  0.5831876E-006  0.1487984E+03  0.7561462E-02  0.1201957E+00
         -2   -1    0    0    0  501 -0.00000000000E+00  0.00000000000E+00  0.31011762218E+02  0.31011762218E+02  0.00000000000E+00 0.  1.
          2   -1    0    0  501    0  0.00000000000E+00 -0.00000000000E+00 -0.80115899013E+03  0.80115899013E+03  0.00000000000E+00 0. -1.
         23    2    1    2    0    0  0.48554798996E+02 -0.10130340354E+03 -0.31516505314E+03  0.34664915373E+03  0.90645887867E+02 0.  0.
          5    1    1    2  502    0  0.32303191935E+02  0.50557274084E+02 -0.27759257589E+03  0.28403282339E+03  0.41800000000E+01 0. -1.
         -5    1    1    2    0  502 -0.80857990931E+02  0.50746129455E+02 -0.17738959888E+03  0.20148877523E+03  0.41800000000E+01 0.  1.
        -11    1    3    3    0    0  0.66602773912E+02 -0.10415473994E+03 -0.29237609504E+03  0.31743963253E+03  0.00000000000E+00 0. -1.
         11    1    3    3    0    0 -0.18047974916E+02  0.28513364034E+01 -0.22788958094E+02  0.29209521202E+02  0.00000000000E+00 0.  1.
</event>
<event>
 7    1  0.5831876E-006  0.1523427E+03  0.7561462E-02  0.1197624E+00
         -1   -1    0    0    0  501 -0.00000000000E+00  0.00000000000E+00  0.54351069091E+02  0.54351069091E+02  0.00000000000E+00 0.  1.
          1   -1    0    0  501    0  0.00000000000E+00 -0.00000000000E+00 -0.51234663064E+03  0.51234663064E+03  0.00000000000E+00 0. -1.
         23    2    1    2    0    0 -0.47204738488E+02 -0.11659286264E+03 -0.19401160574E+03  0.24864514135E+03  0.91442442007E+02 0.  0.
          5    1    1    2  502    0  0.16736300740E+02  0.13852719909E+03 -0.20551496014E+03  0.24844266922E+03  0.41800000000E+01 0.  1.
         -5    1    1    2    0  502  0.30468437748E+02 -0.21934336445E+02 -0.58468995666E+02  0.69609889156E+02  0.41800000000E+01 0.  1.
        -11    1    3    3    0    0 -0.46580443701E+02 -0.95925862879E+02 -0.81409443358E+02  0.13416037557E+03  0.00000000000E+00 0.  1.
         11    1    3    3    0    0 -0.62429478683E+00 -0.20666999763E+02 -0.11260216238E+03  0.11448476578E+03  0.00000000000E+00 0. -1.
</event>
<event>
 7    1  0.5831876E-006  0.9104608E+02  0.7561462E-02  0.1300338E+00
         -2   -1    0    0    0  501 -0.00000000000E+00  0.00000000000E+00  0.13351124688E+03  0.13351124688E+03  0.00000000000E+00 0.  1.
          2   -1    0    0  501    0  0.00000000000E+00 -0.00000000000E+00 -0.95874256334E+02  0.95874256334E+02  0.00000000000E+00 0. -1.
         23    2    1    2    0    0 -0.14751582887E+01  0.33967543734E+02  0.12241527987E+02  0.97290716627E+02  0.90330827601E+02 0.  0.
          5    1    1    2  502    0 -0.12882784508E+02 -0.75531046471E+02  0.38727852117E+02  0.85954779084E+02  0.41800000000E+01 0.  1.
         -5    1    1    2    0  502  0.14357942797E+02  0.41563502737E+02 -0.13332389558E+02  0.46140007504E+02  0.41800000000E+01 0.  1.
        -11    1    3    3    0    0 -0.16205518211E+02 -0.69974236107E+01 -0.31164015223E+02  0.35815898739E+02  0.00000000000E+00 0. -1.
         11    1    3    3    0    0  0.14730359922E+02  0.40964967345E+02  0.43405543210E+02  0.61474817888E+02  0.00000000000E+00 0.  1.
</event>
<event>
 7    1  0.5831876E-006  0.2291296E+03  0.7561462E-02  0.1127254E+00
         -2   -1    0    0    0  501 -0.00000000000E+00  0.00000000000E+00  0.32931547923E+02  0.32931547923E+02  0.00000000000E+00 0.  1.
          2   -1    0    0  501    0  0.00000000000E+00 -0.00000000000E+00 -0.19450050273E+04  0.19450050273E+04  0.00000000000E+00 0. -1.
         23    2    1    2    0    0  0.98165106809E+02 -0.17699497576E+03 -0.51151102856E+03  0.55730809794E+03  0.89359801066E+02 0.  0.
          5    1    1    2  502    0 -0.18375154940E+02 -0.18688889495E+02 -0.15037384085E+03  0.15269802003E+03  0.41800000000E+01 0. -1.
         -5    1    1    2    0  502 -0.79789951869E+02  0.19568386526E+03 -0.12501886099E+04  0.12679304572E+04  0.41800000000E+01 0. -1.
        -11    1    3    3    0    0  0.11841696382E+02 -0.11115843652E+03 -0.23447018377E+03  0.25975505935E+03  0.00000000000E+00 0.  1.
         11    1    3    3    0    0  0.86323410427E+02 -0.65836539239E+02 -0.27704084479E+03  0.29755303858E+03  0.00000000000E+00 0. -1.
</event>
<event>
 7    1  0.5831876E-006  0.5350861E+02  0.7561462E-02  0.1427286E+00
         -1   -1    0    0    0  501 -0.00000000000E+00  0.00000000000E+00  0.28111329882E+02  0.28111329882E+02  0.00000000000E+00 0.  1.
          1   -1    0    0  501    0  0.00000000000E+00 -0.00000000000E+00 -0.51044366359E+03  0.51044366359E+03  0.00000000000E+00 0. -1.
         23    2    1    2    0    0  0.15077008455E+02  0.22358995504E+02 -0.12317289558E+03  0.15728251635E+03  0.94015886308E+02 0.  0.
          5    1    1    2  502    0 -0.26925264039E+02 -0.23388058135E+02 -0.36543203215E+03  0.36719206640E+03  0.41800000000E+01 0.  1.
         -5    1    1    2    0  502  0.11848255583E+02  0.10290626304E+01  0.62725940269E+01  0.14080410722E+02  0.41800000000E+01 0.  1.
        -11    1    3    3    0    0  0.33804971110E+02  0.20840912216E+02 -0.13103038929E+03  0.13691633434E+03  0.00000000000E+00 0. -1.
         11    1    3    3    0    0 -0.18727962655E+02  0.15180832880E+01  0.78574937038E+01  0.20366182003E+02  0.00000000000E+00 0.  1.
</event>
<event>
 7    1  0.5831876E-006  0.1062341E+03  0.7561462E-02  0.1267707E+00
         -1   -1    0    0    0  501 -0.00000000000E+00  0.00000000000E+00  0.16616391752E+03  0.16616391752E+03  0.00000000000E+00 0.  1.
          1   -1    0    0  501    0  0.00000000000E+00 -0.00000000000E+00 -0.86556129090E+02  0.86556129090E+02  0.00000000000E+00 0. -1.
         23    2    1    2    0    0  0.12443451735E+02 -0.50749736297E+02  0.35196788311E+02  0.11006647000E+03  0.90252084111E+02 0.  0.
          5    1    1    2  502    0 -0.37533375440E+02  0.74388321630E+02 -0.34804385824E+01  0.83498278542E+02  0.41800000000E+01 0.  1.
         -5    1    1    2    0  502  0.25089923705E+02 -0.23638585333E+02  0.47891438698E+02  0.59155298061E+02  0.41800000000E+01 0.  1.
        -11    1    3    3    0    0  0.45116328818E+02 -0.38875222581E+02 -0.14254971300E+01  0.59571789454E+02  0.00000000000E+00 0. -1.
         11    1    3    3    0    0 -0.32672877083E+02 -0.11874513715E+02  0.36622285441E+02  0.50494680549E+02  0.00000000000E+00 0.  1.
</event>
<event>
 7    1  0.5831876E-006  0.4925201E+02  0.7561462E-02  0.1449418E+00
         -1   -1    0    0    0  501 -0.00000000000E+00  0.00000000000E+00  0.57059616757E+02  0.57059616757E+02  0.00000000000E+00 0.  1.
          1   -1    0    0  501    0  0.00000000000E+00 -0.00000000000E+00 -0.21575962156E+03  0.21575962156E+03  0.00000000000E+00 0. -1.
         23    2    1    2    0    0 -0.27356247981E+02  0.24756364330E+01 -0.80515802646E+02  0.12277498695E+03  0.88523498948E+02 0.  0.
          5    1    1    2  502    0  0.30441097944E+02  0.32370035364E+01 -0.11157417123E+03  0.11577308289E+03  0.41800000000E+01 0. -1.
         -5    1    1    2    0  502 -0.30848499623E+01 -0.57126399694E+01  0.33389969068E+02  0.34271168481E+02  0.41800000000E+01 0. -1.
        -11    1    3    3    0    0 -0.24027168865E+02  0.26419605062E+02  0.29939641579E+01  0.35836632050E+02  0.00000000000E+00 0.  1.
         11    1    3    3    0    0 -0.33290791161E+01 -0.23943968629E+02 -0.83509766804E+02  0.86938354903E+02  0.00000000000E+00 0. -1.
</event>
<event>
 7    1  0.5831876E-006  0.1026037E+03  0.7561462E-02  0.1274914E+00
          1   -1    0    0  501    0  0.00000000000E+00  0.00000000000E+00  0.17875545962E+03  0.17875545962E+03  0.00000000000E+00 0. -1.
         -1   -1    0    0    0  501 -0.00000000000E+00 -0.00000000000E+00 -0.82362577629E+02  0.82362577629E+02  0.00000000000E+00 0.  1.
         23    2    1    2    0    0  0.47857684678E+02 -0.18020062358E+02  0.56005415675E+02  0.12008159037E+03  0.93101563523E+02 0.  0.
          5    1    1    2  502    0 -0.24377747471E+02  0.70225911395E+02  0.38001459092E+02  0.83591485787E+02  0.41800000000E+01 0.  1.
         -5    1    1    2    0  502 -0.23479937207E+02 -0.52205849037E+02  0.23860072275E+01  0.57444961097E+02  0.41800000000E+01 0.  1.
        -11    1    3    3    0    0  0.44061253359E+02 -0.34804598244E+02  0.75492185864E+02  0.94084133800E+02  0.00000000000E+00 0. -1.
         11    1    3    3    0    0  0.37964313190E+01  0.16784535885E+02 -0.19486770189E+02  0.25997456569E+02  0.00000000000E+00 0.  1.
</event>
<event>
 7    1  0.5831876E-006  0.1334489E+03  0.7561462E-02  0.1222426E+00
         -1   -1    0    0    0  501 -0.00000000000E+00  0.00000000000E+00  0.17396085698E+03  0.17396085698E+03  0.00000000000E+00 0.  1.
          1   -1    0    0  501    0  0.00000000000E+00 -0.00000000000E+00 -0.38877826612E+03  0.38877826612E+03  0.00000000000E+00 0. -1.
         23    2    1    2    0    0  0.22753106385E+02  0.37237830752E+01  0.13134580086E+03  0.16203645565E+03  0.92046309773E+02 0.  0.
          5    1    1    2  502    0 -0.10129986768E+03 -0.21580867138E+02 -0.11000064491E+03  0.15114566252E+03  0.41800000000E+01 0. -1.
         -5    1    1    2    0  502  0.78546761298E+02  0.17857084063E+02 -0.23616256509E+03  0.24955700493E+03  0.41800000000E+01 0.  1.
        -11    1    3    3    0    0  0.51444557497E+02  0.11787949774E+02  0.11822939956E+03  0.12947466616E+03  0.00000000000E+00 0.  1.
         11    1    3    3    0    0 -0.28691451111E+02 -0.80641666988E+01  0.13116401300E+02  0.32561789485E+02  0.00000000000E+00 0. -1.
</event>
<event>
 7    1  0.5831876E-006  0.7708621E+02  0.7561462E-02  0.1337530E+00
          2   -1    0    0  501    0  0.00000000000E+00  0.00000000000E+00  0.57810559617E+02  0.57810559617E+02  0.00000000000E+00 0.  1.
         -2   -1    0    0    0  501 -0.00000000000E+00 -0.00000000000E+00 -0.28196727676E+03  0.28196727676E+03  0.00000000000E+00 0. -1.
         23    2    1    2    0    0 -0.69417885331E+02 -0.43548251690E+01 -0.10050864998E+03  0.15063880924E+03  0.88046889903E+02 0.  0.
          5    1    1    2  502    0  0.18129022103E+02 -0.54257185568E+01 -0.13429640594E+03  0.13568749726E+03  0.41800000000E+01 0.  1.
         -5    1    1    2    0  502  0.51288863228E+02  0.97805437259E+01  0.10648338785E+02  0.53451529872E+02  0.41800000000E+01 0.  1.
        -11    1    3    3    0    0 -0.61204075037E+02  0.13574505163E+02 -0.17172240970E+02  0.65000706546E+02  0.00000000000E+00 0.  1.
         11    1    3    3    0    0 -0.82138102934E+01 -0.17929330332E+02 -0.83336409013E+02  0.85638102693E+02  0.00000000000E+00 0. -1.
</event>
<event>
 7    1  0.5831876E-006  0.1525159E+03  0.7561462E-02  0.1197415E+00
          2   -1    0    0  501    0  0.00000000000E+00  0.00000000000E+00  0.60020796738E+03  0.60020796738E+03  0.00000000000E+00 0. -1.
         -2   -1    0    0    0  501 -0.00000000000E+00 -0.00000000000E+00 -0.51036662195E+02  0.51036662195E+02  0.00000000000E+00 0.  1.
         23    2    1    2    0    0 -0.86011017278E+02  0.10282333822E+03  0.30911605004E+03  0.34917702914E+03  0.91658776500E+02 0.  0.
          5    1    1    2  502    0  0.56713780086E+02 -0.65388238722E+01  0.16998208800E+03  0.17936162273E+03  0.41800000000E+01 0.  1.
         -5    1    1    2    0  502  0.29297237192E+02 -0.96284514346E+02  0.70073167144E+02  0.12270597770E+03  0.41800000000E+01 0.  1.
        -11    1    3    3    0    0 -0.47607421706E+02  0.97218322863E+02  0.28135283961E+03  0.30145860289E+03  0.00000000000E+00 0.  1.
         11    1    3    3    0    0 -0.38403595572E+02  0.56050153555E+01  0.27763210435E+02  0.47718426249E+02  0.00000000000E+00 0. -1.
</event>
<event>
 7    1  0.5831876E-006  0.3471685E+02  0.7561462E-02  0.1551129E+00
         -1   -1    0    0    0  501 -0.00000000000E+00  0.00000000000E+00  0.45649842093E+02  0.45649842093E+02  0.00000000000E+00 0.  1.
          1   -1    0    0  501    0  0.00000000000E+00 -0.00000000000E+00 -0.25520605040E+03  0.25520605040E+03  0.00000000000E+00 0. -1.
         23    2    1    2    0    0  0.13634443543E+02  0.86366090741E+00 -0.75757580631E+02  0.11717578189E+03  0.88341999506E+02 0.  0.
          5    1    1    2  502    0 -0.14730020668E+01  0.13331452151E+02 -0.15469605986E+03  0.15533267746E+03  0.41800000000E+01 0. -1.
         -5    1    1    2    0  502 -0.12161441476E+02 -0.14195113059E+02  0.20897432189E+02  0.28347433140E+02  0.41800000000E+01 0. -1.
        -11    1    3    3    0    0 -0.22240892573E+01  0.14892565164E+02 -0.90263049755E+02  0.91510399525E+02  0.00000000000E+00 0. -1.
         11    1    3    3    0    0  0.15858532800E+02 -0.14028904257E+02  0.14505469124E+02  0.25665382361E+02  0.00000000000E+00 0.  1.
</event>
<event>
 7    1  0.5831876E-006  0.1429108E+03  0.7561462E-02  0.1209465E+00
         -1   -1    0    0    0  501 -0.00000000000E+00  0.00000000000E+00  0.17268647354E+02  0.17268647354E+02  0.00000000000E+00 0.  1.
          1   -1    0    0  501    0  0.00000000000E+00 -0.00000000000E+00 -0.13632914940E+04  0.13632914940E+04  0.00000000000E+00 0. -1.
         23    2    1    2    0    0 -0.80972265171E+02 -0.66131843220E+02 -0.47120247536E+03  0.49067949498E+03  0.88344018478E+02 0.  0.
          5    1    1    2  502    0  0.19783091458E+02 -0.29280148607E+02 -0.40510595509E+03  0.40666571661E+03  0.41800000000E+01 0.  1.
         -5    1    1    2    0  502  0.61189173712E+02  0.95411991828E+02 -0.46971441619E+03  0.48321492975E+03  0.41800000000E+01 0.  1.
        -11    1    3    3    0    0 -0.73941634439E+02 -0.87360333778E+02 -0.39942834305E+03  0.41550233989E+03  0.00000000000E+00 0. -1.
         11    1    3    3    0    0 -0.70306307315E+01  0.21228490558E+02 -0.71774132303E+02  0.75177155092E+02  0.00000000000E+00 0.  1.
</event>
<event>
 7    1  0.5831876E-006  0.1427002E+03  0.7561462E-02  0.1209741E+00
         -1   -1    0    0    0  501 -0.00000000000E+00  0.00000000000E+00  0.15207196132E+03  0.15207196132E+03  0.00000000000E+00 0.  1.
          1   -1    0    0  501    0  0.00000000000E+00 -0.00000000000E+00 -0.15431338985E+03  0.15431338985E+03  0.00000000000E+00 0. -1.
         23    2    1    2    0    0 -0.32572234111E+02  0.99152846370E+02  0.25401957574E+02  0.14114754330E+03  0.91570367227E+02 0.  0.
          5    1    1    2  502    0  0.30093234566E+02 -0.12593810515E+03 -0.39653150089E+02  0.13548377692E+03  0.41800000000E+01 0.  1.
         -5    1    1    2    0  502  0.24789995446E+01  0.26785258780E+02  0.12009763982E+02  0.29754030946E+02  0.41800000000E+01 0.  1.
        -11    1    3    3    0    0  0.51917867699E+01  0.89497469106E+02  0.41733105459E+02  0.98885811508E+02  0.00000000000E+00 0.  1.
         11    1    3    3    0    0 -0.37764020881E+02  0.96553772634E+01 -0.16331147885E+02  0.42261731797E+02  0.00000000000E+00 0. -1.
</event>
<event>
 7    1  0.5831876E-006  0.1159338E+03  0.7561462E-02  0.1249960E+00
          2   -1    0    0  501    0  0.00000000000E+00  0.00000000000E+00  0.13190613111E+03  0.13190613111E+03  0.00000000000E+00 0. -1.
         -2   -1    0    0    0  501 -0.00000000000E+00 -0.00000000000E+00 -0.10274476460E+03  0.10274476460E+03  0.00000000000E+00 0.  1.
         23    2    1    2    0    0  0.34940747661E+02  0.22945492311E+02  0.12722372882E+02  0.10174276328E+03  0.91882422925E+02 0.  0.
          5    1    1    2  502    0 -0.72117442574E+02  0.19731684552E+02  0.13394970959E+02  0.76073402354E+02  0.41800000000E+01 0.  1.
         -5    1    1    2    0  502  0.37176694913E+02 -0.42677176863E+02  0.30440226667E+01  0.56834730083E+02  0.41800000000E+01 0.  1.
        -11    1    3    3    0    0  0.58166511557E+02  0.40702797044E+02  0.34729097436E+01  0.71078279777E+02  0.00000000000E+00 0.  1.
         11    1    3    3    0    0 -0.23225763895E+02 -0.17757304733E+02  0.92494631380E+01  0.30664483499E+02  0.00000000000E+00 0. -1.
</event>
<event>
 7    1  0.5831876E-006  0.8654554E+02  0.7561462E-02  0.1311440E+00
         -1   -1    0    0    0  501 -0.00000000000E+00  0.00000000000E+00  0.19404061868E+03  0.19404061868E+03  0.00000000000E+00 0.  1.
          1   -1    0    0  501    0  0.00000000000E+00 -0.00000000000E+00 -0.75263609423E+02  0.75263609423E+02  0.00000000000E+00 0. -1.
         23    2    1    2    0    0 -0.14277259373E+02 -0.13606976680E+02  0.10653631162E+03  0.14208667165E+03  0.91921959383E+02 0.  0.
          5    1    1    2  502    0  0.24908463728E+02  0.47612989537E+02  0.51142751716E+02  0.74299944758E+02  0.41800000000E+01 0.  1.
         -5    1    1    2    0  502 -0.10631204355E+02 -0.34006012857E+02 -0.38902054077E+02  0.52917611699E+02  0.41800000000E+01 0.  1.
        -11    1    3    3    0    0 -0.32462550472E+02 -0.39845999666E+02  0.30852034019E+02  0.59944715161E+02  0.00000000000E+00 0. -1.
         11    1    3    3    0    0  0.18185291099E+02  0.26239022987E+02  0.75684277598E+02  0.82141956485E+02  0.00000000000E+00 0.  1.
</event>
<event>
 7    1  0.5831876E-006  0.1133792E+03  0.7561462E-02  0.1254437E+00
          2   -1    0    0  501    0  0.00000000000E+00  0.00000000000E+00  0.56463428234E+03  0.56463428234E+03  0.00000000000E+00 0. -1.
         -2   -1    0    0    0  501 -0.00000000000E+00 -0.00000000000E+00 -0.90051502470E+02  0.90051502470E+02  0.00000000000E+00 0.  1.
         23    2    1    2    0    0  0.48235987814E+02 -0.75126187351E+02 -0.29330322191E+02  0.12989293060E+03  0.89673023109E+02 0.  0.
          5    1    1    2  502    0 -0.22029370295E+02  0.80627901708E+02  0.48394846626E+03  0.49113108442E+03  0.41800000000E+01 0. -1.
         -5    1    1    2    0  502 -0.26206617519E+02 -0.55017143576E+01  0.19964635799E+02  0.33661769788E+02  0.41800000000E+01 0.  1.
        -11    1    3    3    0    0 -0.20054322788E+02 -0.17021743303E+02  0.14557538040E+02  0.30063890656E+02  0.00000000000E+00 0. -1.
         11    1    3    3    0    0  0.68290310602E+02 -0.58104444048E+02 -0.43887860232E+02  0.99829039943E+02  0.00000000000E+00 0.  1.
</event>
<event>
 7    1  0.5831876E-006  0.1006229E+03  0.7561462E-02  0.1278991E+00
          1   -1    0    0  501    0  0.00000000000E+00  0.00000000000E+00  0.86508708408E+03  0.86508708408E+03  0.00000000000E+00 0. -1.
         -1   -1    0    0    0  501 -0.00000000000E+00 -0.00000000000E+00 -0.27727115847E+02  0.27727115847E+02  0.00000000000E+00 0.  1.
         23    2    1    2    0    0  0.54831584917E+02  0.36887453339E+02  0.15667271942E+03  0.19757977297E+03  0.10061927628E+03 0.  0.
          5    1    1    2  502    0 -0.83313652023E+02 -0.15293201145E+02  0.27077754680E+03  0.28374812575E+03  0.41800000000E+01 0. -1.
         -5    1    1    2    0  502  0.28482067106E+02 -0.21594252193E+02  0.40990970202E+03  0.41148630121E+03  0.41800000000E+01 0. -1.
        -11    1    3    3    0    0  0.36332044408E+01  0.28306069621E+02 -0.39188165867E+01  0.28806090941E+02  0.00000000000E+00 0.  1.
         11    1    3    3    0    0  0.51198380477E+02  0.85813837180E+01  0.16059153600E+03  0.16877368203E+03  0.00000000000E+00 0. -1.
</event>
<event>
 7    1  0.5831876E-006  0.1436047E+03  0.7561462E-02  0.1208559E+00
         -1   -1    0    0    0  501 -0.00000000000E+00  0.00000000000E+00  0.14106577493E+03  0.14106577493E+03  0.00000000000E+00 0.  1.
          1   -1    0    0  501    0  0.00000000000E+00 -0.00000000000E+00 -0.20647653998E+03  0.20647653998E+03  0.00000000000E+00 0. -1.
         23    2    1    2    0    0 -0.82830566611E+02  0.87192921027E+02  0.20537645703E+02  0.15389219888E+03  0.93795019821E+02 0.  0.
          5    1    1    2  502    0 -0.22252159388E+02  0.81120414885E+01 -0.35793153164E+02  0.43122917665E+02  0.41800000000E+01 0. -1.
         -5    1    1    2    0  502  0.10508272600E+03 -0.95304962516E+02 -0.50155257587E+02  0.15052719836E+03  0.41800000000E+01 0. -1.
        -11    1    3    3    0    0 -0.17018145403E+02  0.97889138025E+01  0.45253497629E+02  0.49328684900E+02  0.00000000000E+00 0.  1.
         11    1    3    3    0    0 -0.65812421209E+02  0.77404007225E+02 -0.24715851925E+02  0.10456351398E+03  0.00000000000E+00 0. -1.
</event>
<event>
 7    1  0.5831876E-006  0.9258625E+02  0.7561462E-02  0.1296707E+00
         -2   -1    0    0    0  501 -0.00000000000E+00  0.00000000000E+00  0.28116128515E+02  0.28116128515E+02  0.00000000000E+00 0.  1.
          2   -1    0    0  501    0  0.00000000000E+00 -0.00000000000E+00 -0.52646256927E+03  0.52646256927E+03  0.00000000000E+00 0. -1.
         23    2    1    2    0    0  0.14332678880E+02  0.47389172280E+01 -0.97731018386E+02  0.13461501735E+03  0.91334374255E+02 0.  0.
          5    1    1    2  502    0 -0.35476046292E+02  0.43357391991E+02 -0.99437540929E+02  0.11420906377E+03  0.41800000000E+01 0.  1.
         -5    1    1    2    0  502  0.21143367412E+02 -0.48096309219E+02 -0.30117788143E+03  0.30575461666E+03  0.41800000000E+01 0.  1.
        -11    1    3    3    0    0 -0.17844738324E+02  0.30321535775E+02 -0.82411691482E+01  0.36135122617E+02  0.00000000000E+00 0.  1.
         11    1    3    3    0    0  0.32177417204E+02 -0.25582618547E+02 -0.89489849238E+02  0.98479894731E+02  0.00000000000E+00 0. -1.
</event>
<event>
 7    1  0.5831876E-006  0.9491934E+02  0.7561462E-02  0.1291358E+00
         -2   -1    0    0    0  501 -0.00000000000E+00  0.00000000000E+00  0.11973401849E+03  0.11973401849E+03  0.00000000000E+00 0. -1.
          2   -1    0    0  501    0  0.00000000000E+00 -0.00000000000E+00 -0.11462125096E+03  0.11462125096E+03  0.00000000000E+00 0.  1.
         23    2    1    2    0    0  0.45637900561E+02 -0.17347766984E+01  0.78964523755E+01  0.10116065018E+03  0.89918272711E+02 0.  0.
          5    1    1    2  502    0 -0.73806412653E+02 -0.98032995555E+01  0.36741319782E+02  0.83131752118E+02  0.41800000000E+01 0. -1.
         -5    1    1    2    0  502  0.28168512092E+02  0.11538076254E+02 -0.39525004620E+02  0.50062867150E+02  0.41800000000E+01 0. -1.
        -11    1    3    3    0    0  0.48825614361E+02 -0.29200412310E+02 -0.21486693527E+02  0.60813507508E+02  0.00000000000E+00 0.  1.
         11    1    3    3    0    0 -0.31877137995E+01  0.27465635611E+02  0.29383145902E+02  0.40347142674E+02  0.00000000000E+00 0. -1.
</event>
<event>
 7    1  0.5831876E-006  0.1022443E+03  0.7561462E-02  0.1275646E+00
         -1   -1    0    0    0  501 -0.00000000000E+00  0.00000000000E+00  0.29474905162E+02  0.29474905162E+02  0.00000000000E+00 0.  1.
          1   -1    0    0  501    0  0.00000000000E+00 -0.00000000000E+00 -0.55156516896E+03  0.55156516896E+03  0.00000000000E+00 0. -1.
         23    2    1    2    0    0  0.44220994841E+02  0.34993933864E+02 -0.14663238907E+03  0.18129590169E+03  0.90482454939E+02 0.  0.
          5    1    1    2  502    0  0.40913885405E+02  0.60690225559E+01 -0.93205637674E+02  0.10205656445E+03  0.41800000000E+01 0.  1.
         -5    1    1    2    0  502 -0.85134880245E+02 -0.41062956420E+02 -0.28225223706E+03  0.29768760799E+03  0.41800000000E+01 0.  1.
        -11    1    3    3    0    0  0.17547507753E+02 -0.67203550836E+01  0.68690651003E+01  0.20006555329E+02  0.00000000000E+00 0.  1.
         11    1    3    3    0    0  0.26673487088E+02  0.41714288947E+02 -0.15350145417E+03  0.16128934636E+03  0.00000000000E+00 0. -1.
</event>
<event>
 7    1  0.7467807E-006  0.1589455E+03  0.7561462E-02  0.1189892E+00
         -1   -1    0    0    0  501 -0.00000000000E+00  0.00000000000E+00  0.53430205763E+02  0.53430205763E+02  0.00000000000E+00 0. -1.
          1   -1    0    0  501    0  0.00000000000E+00 -0.00000000000E+00 -0.53938582993E+03  0.53938582993E+03  0.00000000000E+00 0.  1.
         23    2    1    2    0    0 -0.34081537522E+02  0.12679878475E+03 -0.15308696567E+03  0.21375350199E+03  0.70819895086E+02 0.  0.
          5    1    1    2  502    0 -0.29970426073E+02 -0.31413401158E+01 -0.19549398034E+02  0.36162768425E+02  0.41800000000E+01 0.  1.
         -5    1    1    2    0  502  0.64051963594E+02 -0.12365744463E+03 -0.31331926046E+03  0.34289976528E+03  0.41800000000E+01 0.  1.
        -11    1    3    3    0    0  0.12815822453E+02  0.82969320213E+02 -0.99084571294E+02  0.12986880176E+03  0.00000000000E+00 0. -1.
         11    1    3    3    0    0 -0.46897359974E+02  0.43829464535E+02 -0.54002394381E+02  0.83884700231E+02  0.00000000000E+00 0.  1.
</event>
<event>
 7    1  0.5831876E-006  0.2676771E+03  0.7561462E-02  0.1102616E+00
          1   -1    0    0  501    0  0.00000000000E+00  0.00000000000E+00  0.11674951369E+04  0.11674951369E+04  0.00000000000E+00 0. -1.
         -1   -1    0    0    0  501 -0.00000000000E+00 -0.00000000000E+00 -0.66612598202E+02  0.66612598202E+02  0.00000000000E+00 0.  1.
         23    2    1    2    0    0 -0.13147470823E+03 -0.20656464211E+03  0.70764999025E+03  0.75427925861E+03  0.90631898381E+02 0.  0.
          5    1    1    2  502    0  0.14648721254E+03  0.12922511750E+03  0.29501119070E+03  0.35384560117E+03  0.41800000000E+01 0. -1.
         -5    1    1    2    0  502 -0.15012504317E+02  0.77339524609E+02  0.98221357722E+02  0.12598287529E+03  0.41800000000E+01 0. -1.
        -11    1    3    3    0    0 -0.89295094859E+02 -0.19914528717E+03  0.58848866835E+03  0.62765545656E+03  0.00000000000E+00 0.  1.
         11    1    3    3    0    0 -0.42179613367E+02 -0.74193549448E+01  0.11916132190E+03  0.12662380206E+03  0.00000000000E+00 0. -1.
</event>
<event>
 7    1  0.5831876E-006  0.9843412E+02  0.7561462E-02  0.1283624E+00
          1   -1    0    0  501    0  0.00000000000E+00  0.00000000000E+00  0.58342828088E+02  0.58342828088E+02  0.00000000000E+00 0. -1.
         -1   -1    0    0    0  501 -0.00000000000E+00 -0.00000000000E+00 -0.27766192545E+03  0.27766192545E+03  0.00000000000E+00 0.  1.
         23    2    1    2    0    0  0.62371454486E+02 -0.11716174990E+02 -0.12397283656E+03  0.16639239599E+03  0.91047779470E+02 0.  0.
          5    1    1    2  502    0 -0.48513776877E+02 -0.18741332231E+02  0.14950787987E+02  0.54275432215E+02  0.41800000000E+01 0.  1.
         -5    1    1    2    0  502 -0.13857677609E+02  0.30457507221E+02 -0.11029704879E+03  0.11533692534E+03  0.41800000000E+01 0.  1.
        -11    1    3    3    0    0  0.31707775543E+02 -0.51659755407E+02 -0.66496029772E+02  0.89976859992E+02  0.00000000000E+00 0.  1.
         11    1    3    3    0    0  0.30663678943E+02  0.39943580417E+02 -0.57476806792E+02  0.76415535998E+02  0.00000000000E+00 0. -1.
</event>
<event>
 7    1  0.5831876E-006  0.1245310E+03  0.7561462E-02  0.1235804E+00
          1   -1    0    0  501    0  0.00000000000E+00  0.00000000000E+00  0.27178905169E+03  0.27178905169E+03  0.00000000000E+00 0. -1.
         -1   -1    0    0    0  501 -0.00000000000E+00 -0.00000000000E+00 -0.84282927867E+02  0.84282927867E+02  0.00000000000E+00 0.  1.
         23    2    1    2    0    0  0.59664873988E+02  0.18623235432E+02 -0.13351650666E+02  0.11133186835E+03  0.91158083834E+02 0.  0.
          5    1    1    2  502    0 -0.70134854215E+02  0.39490231790E+02  0.11873931837E+03  0.14350914365E+03  0.41800000000E+01 0.  1.
         -5    1    1    2    0  502  0.10469980227E+02 -0.58113467223E+02  0.82118456114E+02  0.10123096756E+03  0.41800000000E+01 0.  1.
        -11    1    3    3    0    0  0.49764593464E+02  0.53468517314E+02 -0.97133335199E+00  0.73050260745E+02  0.00000000000E+00 0.  1.
         11    1    3    3    0    0  0.99002805241E+01 -0.34845281882E+02 -0.12380317314E+02  0.38281607603E+02  0.00000000000E+00 0. -1.
</event>
<event>
 7    1  0.5831876E-006  0.9959462E+02  0.7561462E-02  0.1281151E+00
          2   -1    0    0  501    0  0.00000000000E+00  0.00000000000E+00  0.70768165317E+03  0.70768165317E+03  0.00000000000E+00 0. -1.
         -2   -1    0    0    0  501 -0.00000000000E+00 -0.00000000000E+00 -0.21198189148E+02  0.21198189148E+02  0.00000000000E+00 0.  1.
         23    2    1    2    0    0 -0.52311112995E+02 -0.38299307323E+02  0.22544636796E+03  0.24679464002E+03  0.76669681323E+02 0.  0.
          5    1    1    2  502    0  0.51893707146E+02  0.59321476355E+02  0.45196849252E+03  0.45880822249E+03  0.41800000000E+01 0.  1.
         -5    1    1    2    0  502  0.41740584846E+00 -0.21022169032E+02  0.90686035454E+01  0.23276979803E+02  0.41800000000E+01 0.  1.
        -11    1    3    3    0    0  0.15397611457E+02  0.74534860294E+01  0.58032569886E+02  0.60501405440E+02  0.00000000000E+00 0.  1.
         11    1    3    3    0    0 -0.67708724452E+02 -0.45752793352E+02  0.16741379807E+03  0.18629323458E+03  0.00000000000E+00 0. -1.
</event>
<event>
 7    1  0.5831876E-006  0.9200091E+02  0.7561462E-02  0.1298077E+00
         -2   -1    0    0    0  501 -0.00000000000E+00  0.00000000000E+00  0.46859811279E+02  0.46859811279E+02  0.00000000000E+00 0.  1.
          2   -1    0    0  501    0  0.00000000000E+00 -0.00000000000E+00 -0.49809925220E+03  0.49809925220E+03  0.00000000000E+00 0. -1.
         23    2    1    2    0    0  0.51922786894E+02 -0.13607225271E+01 -0.34634752460E+02  0.10688941203E+03  0.86763776780E+02 0.  0.
          5    1    1    2  502    0 -0.26394064066E+02 -0.31725418080E+02 -0.38029760970E+03  0.38255312456E+03  0.41800000000E+01 0.  1.
         -5    1    1    2    0  502 -0.25528722828E+02  0.33086140607E+02 -0.36307078763E+02  0.55516526889E+02  0.41800000000E+01 0.  1.
        -11    1    3    3    0    0  0.29026859274E+02  0.42254028708E+02 -0.23469552938E+02  0.56380683008E+02  0.00000000000E+00 0. -1.
         11    1    3    3    0    0  0.22895927620E+02 -0.43614751235E+02 -0.11165199523E+02  0.50508729020E+02  0.00000000000E+00 0.  1.
</event>
<event>
 7    1  0.5831876E-006  0.1202676E+03  0.7561462E-02  0.1242656E+00
         -4   -1    0    0    0  501 -0.00000000000E+00  0.00000000000E+00  0.66455538624E+03  0.66455538624E+03  0.00000000000E+00 0.  1.
          4   -1    0    0  501    0  0.00000000000E+00 -0.00000000000E+00 -0.23475704081E+02  0.23475704081E+02  0.00000000000E+00 0. -1.
         23    2    1    2    0    0 -0.40747720465E+02 -0.48177924330E+02  0.38907042339E+03  0.40477466435E+03  0.92115391924E+02 0.  0.
          5    1    1    2  502    0 -0.44366017184E+01  0.75613124236E+02  0.15969673031E+03  0.17679803750E+03  0.41800000000E+01 0. -1.
         -5    1    1    2    0  502  0.45184322183E+02 -0.27435199906E+02  0.92312528463E+02  0.10645838847E+03  0.41800000000E+01 0.  1.
        -11    1    3    3    0    0  0.48511900034E+01 -0.63394408315E+02  0.22324694627E+03  0.23212407042E+03  0.00000000000E+00 0.  1.
         11    1    3    3    0    0 -0.45598910468E+02  0.15216483985E+02  0.16582347712E+03  0.17265059393E+03  0.00000000000E+00 0. -1.
</event>
<event>
 7    1  0.5831876E-006  0.8849166E+02  0.7561462E-02  0.1306546E+00
          2   -1    0    0  501    0  0.00000000000E+00  0.00000000000E+00  0.29092814540E+03  0.29092814540E+03  0.00000000000E+00 0.  1.
         -2   -1    0    0    0  501 -0.00000000000E+00 -0.00000000000E+00 -0.57105651272E+02  0.57105651272E+02  0.00000000000E+00 0. -1.
         23    2    1    2    0    0  0.42437449204E+02 -0.30652719511E+02  0.36260046315E+02  0.10840760150E+03  0.87731925750E+02 0.  0.
          5    1    1    2  502    0 -0.34004993241E+02  0.72595998828E+02  0.75442477455E+02  0.11016151059E+03  0.41800000000E+01 0.  1.
         -5    1    1    2    0  502 -0.84324559633E+01 -0.41943279317E+02  0.12211997036E+03  0.12946468458E+03  0.41800000000E+01 0.  1.
        -11    1    3    3    0    0  0.28765922629E+02 -0.13467072984E+02 -0.26847180992E+02  0.41588598036E+02  0.00000000000E+00 0. -1.
         11    1    3    3    0    0  0.13671526576E+02 -0.17185646528E+02  0.63107227307E+02  0.66819003463E+02  0.00000000000E+00 0.  1.
</event>
<event>
 7    1  0.5831876E-006  0.1202814E+03  0.7561462E-02  0.1242633E+00
          3   -1    0    0  501    0  0.00000000000E+00  0.00000000000E+00  0.13904769440E+03  0.13904769440E+03  0.00000000000E+00 0. -1.
         -3   -1    0    0    0  501 -0.00000000000E+00 -0.00000000000E+00 -0.17889888080E+03  0.17889888080E+03  0.00000000000E+00 0.  1.
         23    2    1    2    0    0  0.56240535076E+01 -0.75735243563E+02 -0.10426357519E+03  0.15805881797E+03  0.91346810185E+02 0.  0.
          5    1    1    2  502    0  0.58434581389E+02  0.22142317107E+02  0.24889194694E+02  0.67393077698E+02  0.41800000000E+01 0. -1.
         -5    1    1    2    0  502 -0.64058634897E+02  0.53592926456E+02  0.39523194088E+02  0.92494679533E+02  0.41800000000E+01 0. -1.
        -11    1    3    3    0    0 -0.19047178765E+02 -0.54382183540E+01 -0.75735308421E+02  0.78282860061E+02  0.00000000000E+00 0.  1.
         11    1    3    3    0    0  0.24671232273E+02 -0.70297025209E+02 -0.28528266767E+02  0.79775957906E+02  0.00000000000E+00 0. -1.
</event>
<event>
 7    1  0.5831876E-006  0.9524837E+02  0.7561462E-02  0.1290618E+00
         -4   -1    0    0    0  501 -0.00000000000E+00  0.00000000000E+00  0.42052843476E+02  0.42052843476E+02  0.00000000000E+00 0. -1.
          4   -1    0    0  501    0  0.00000000000E+00 -0.00000000000E+00 -0.34133569663E+03  0.34133569663E+03  0.00000000000E+00 0.  1.
         23    2    1    2    0    0 -0.32243299142E+01  0.53344787030E+02 -0.11935097855E+03  0.15782387604E+03  0.88360948172E+02 0.  0.
          5    1    1    2  502    0  0.49357081794E+02  0.98437598401E+01 -0.37133904228E+02  0.62685088930E+02  0.41800000000E+01 0.  1.
         -5    1    1    2    0  502 -0.46132751880E+02 -0.63188546870E+02 -0.14279797038E+03  0.16287957514E+03  0.41800000000E+01 0.  1.
        -11    1    3    3    0    0  0.11579498362E+02  0.40246529962E+02 -0.12914381208E+03  0.13576447309E+03  0.00000000000E+00 0.  1.
         11    1    3    3    0    0 -0.14803828276E+02  0.13098257068E+02  0.97928335315E+01  0.22059402948E+02  0.00000000000E+00 0. -1.
</event>
<event>
 7    1  0.5831876E-006  0.1196007E+03  0.7561462E-02  0.1243757E+00
         -1   -1    0    0    0  501 -0.00000000000E+00  0.00000000000E+00  0.30469329100E+03  0.30469329100E+03  0.00000000000E+00 0.  1.
          1   -1    0    0  501    0  0.00000000000E+00 -0.00000000000E+00 -0.68734616753E+02  0.68734616753E+02  0.00000000000E+00 0. -1.
         23    2    1    2    0    0  0.85514835922E+02  0.37620790819E+02  0.13205324398E+03  0.18588590559E+03  0.91582747206E+02 0.  0.
          5    1    1    2  502    0 -0.92174685764E+02 -0.53700016120E+02  0.12198309649E+03  0.16210247578E+03  0.41800000000E+01 0. -1.
         -5    1    1    2    0  502  0.66598498427E+01  0.16079225301E+02 -0.18077666224E+02  0.25439526378E+02  0.41800000000E+01 0. -1.
        -11    1    3    3    0    0  0.94891524474E+01  0.37330807996E+02  0.64333977024E+01  0.39051528085E+02  0.00000000000E+00 0. -1.
         11    1    3    3    0    0  0.76025683474E+02  0.28998282329E+00  0.12561984628E+03  0.14683437750E+03  0.00000000000E+00 0.  1.
</event>
<event>
 7    1  0.5831876E-006  0.1110313E+03  0.7561462E-02  0.1258672E+00
          2   -1    0    0  501    0  0.00000000000E+00  0.00000000000E+00  0.65155162994E+03  0.65155162994E+03  0.00000000000E+00 0. -1.
         -2   -1    0    0    0  501 -0.00000000000E+00 -0.00000000000E+00 -0.30055067759E+02  0.30055067759E+02  0.00000000000E+00 0.  1.
         23    2    1    2    0    0  0.39284261818E+02  0.28120087925E+02  0.10637920086E+03  0.14932154719E+03  0.92986007066E+02 0.  0.
          5    1    1    2  502    0 -0.70437311208E+02  0.11771352591E+02  0.40164459128E+03  0.40796547606E+03  0.41800000000E+01 0. -1.
         -5    1    1    2    0  502  0.31153049390E+02 -0.39891440516E+02  0.11347277004E+03  0.12431967444E+03  0.41800000000E+01 0. -1.
        -11    1    3    3    0    0 -0.21631779381E+02  0.32083230282E+02  0.64758202217E+02  0.75438003015E+02  0.00000000000E+00 0.  1.
         11    1    3    3    0    0  0.60916041199E+02 -0.39631423572E+01  0.41620998640E+02  0.73883544179E+02  0.00000000000E+00 0. -1.
</event>
<event>
 7    1  0.5831876E-006  0.1072688E+03  0.7561462E-02  0.1265713E+00
         -1   -1    0    0    0  501 -0.00000000000E+00  0.00000000000E+00  0.58543375710E+02  0.58543375710E+02  0.00000000000E+00 0.  1.
          1   -1    0    0  501    0  0.00000000000E+00 -0.00000000000E+00 -0.28721750953E+03  0.28721750953E+03  0.00000000000E+00 0. -1.
         23    2    1    2    0    0  0.53211985252E+01  0.44291911931E+02 -0.33404256551E+02  0.10960674552E+03  0.94380642572E+02 0.  0.
          5    1    1    2  502    0 -0.52596570628E+02 -0.17123809557E+02 -0.32157350030E+02  0.64118574973E+02  0.41800000000E+01 0.  1.
         -5    1    1    2    0  502  0.47275372103E+02 -0.27168102374E+02 -0.16311252723E+03  0.17203556474E+03  0.41800000000E+01 0.  1.
        -11    1    3    3    0    0  0.45151776869E+02  0.45983620390E+00 -0.13616524006E+02  0.47162528874E+02  0.00000000000E+00 0.  1.
         11    1    3    3    0    0 -0.39830578344E+02  0.43832075727E+02 -0.19787732546E+02  0.62444216650E+02  0.00000000000E+00 0. -1.
</event>
<event>
 7    1  0.5831876E-006  0.1522489E+03  0.7561462E-02  0.1197736E+00
         -2   -1    0    0    0  501 -0.00000000000E+00  0.00000000000E+00  0.46901732564E+02  0.46901732564E+02  0.00000000000E+00 0.  1.
          2   -1    0    0  501    0  0.00000000000E+00 -0.00000000000E+00 -0.11072151921E+04  0.11072151921E+04  0.00000000000E+00 0. -1.
         23    2    1    2    0    0  0.10709277121E+03  0.65766103280E+02 -0.11411120420E+03  0.19144341879E+03  0.88516516468E+02 0.  0.
          5    1    1    2  502    0 -0.12193873546E+03 -0.49916147821E+02 -0.53957039510E+03  0.55544069052E+03  0.41800000000E+01 0. -1.
         -5    1    1    2    0  502  0.14845964246E+02 -0.15849955460E+02 -0.40663186028E+03  0.40723281540E+03  0.41800000000E+01 0. -1.
        -11    1    3    3    0    0  0.40027928048E+02  0.72845584397E+02 -0.43542366995E+02  0.93833106703E+02  0.00000000000E+00 0.  1.
         11    1    3    3    0    0  0.67064843162E+02 -0.70794811169E+01 -0.70568837204E+02  0.97610312086E+02  0.00000000000E+00 0. -1.
</event>
<event>
 7    1  0.5831876E-006  0.9623827E+02  0.7561462E-02  0.1288411E+00
         -1   -1    0    0    0  501 -0.00000000000E+00  0.00000000000E+00  0.69406994074E+02  0.69406994074E+02  0.00000000000E+00 0.  1.
          1   -1    0    0  501    0  0.00000000000E+00 -0.00000000000E+00 -0.20240308350E+03  0.20240308350E+03  0.00000000000E+00 0. -1.
         23    2    1    2    0    0 -0.24138960046E+01  0.44535893726E+02 -0.77756088347E+02  0.12797070476E+03  0.91330275801E+02 0.  0.
          5    1    1    2  502    0 -0.29867658710E+02  0.61313520618E+01  0.27656646306E+02  0.41376720505E+02  0.41800000000E+01 0.  1.
         -5    1    1    2    0  502  0.32281554714E+02 -0.50667245788E+02 -0.82896647387E+02  0.10246265231E+03  0.41800000000E+01 0.  1.
        -11    1    3    3    0    0  0.14581786701E+00  0.72949557496E+02 -0.52608771851E+02  0.89940769829E+02  0.00000000000E+00 0.  1.
         11    1    3    3    0    0 -0.25597138716E+01 -0.28413663770E+02 -0.25147316496E+02  0.38029934931E+02  0.00000000000E+00 0. -1.
</event>
<event>
 7    1  0.5831876E-006  0.1160857E+03  0.7561462E-02  0.1249698E+00
          1   -1    0    0  501    0  0.00000000000E+00  0.00000000000E+00  0.50068666859E+02  0.50068666859E+02  0.00000000000E+00 0. -1.
         -1   -1    0    0    0  501 -0.00000000000E+00 -0.00000000000E+00 -0.46664037152E+03  0.46664037152E+03  0.00000000000E+00 0.  1.
         23    2    1    2    0    0 -0.69464379964E+02 -0.42476783578E+02 -0.34138461280E+03  0.36050298902E+03  0.82397657769E+02 0.  0.
          5    1    1    2  502    0  0.41785518259E+02  0.67121295851E+02 -0.82811922719E+01  0.79607464715E+02  0.41800000000E+01 0. -1.
         -5    1    1    2    0  502  0.27678861705E+02 -0.24644512273E+02 -0.66905899585E+02  0.76598584646E+02  0.41800000000E+01 0.  1.
        -11    1    3    3    0    0 -0.57110321441E+02  0.13244661248E+02 -0.18182301426E+03  0.19104088144E+03  0.00000000000E+00 0. -1.
         11    1    3    3    0    0 -0.12354058523E+02 -0.55721444826E+02 -0.15956159854E+03  0.16946210758E+03  0.00000000000E+00 0.  1.
</event>
<event>
 7    1  0.5831876E-006  0.1021939E+03  0.7561462E-02  0.1275749E+00
         -1   -1    0    0    0  501 -0.00000000000E+00  0.00000000000E+00  0.23274853178E+02  0.23274853178E+02  0.00000000000E+00 0.  1.
          1   -1    0    0  501    0  0.00000000000E+00 -0.00000000000E+00 -0.63404251511E+03  0.63404251511E+03  0.00000000000E+00 0. -1.
         23    2    1    2    0    0  0.47604877692E+01 -0.40200333733E+02 -0.29738601934E+03  0.31746848755E+03  0.10348462212E+03 0.  0.
          5    1    1    2  502    0  0.31534446985E+02  0.71022732400E+02 -0.14200106923E+03  0.16192722417E+03  0.41800000000E+01 0.  1.
         -5    1    1    2    0  502 -0.36294934754E+02 -0.30822398667E+02 -0.17138057336E+03  0.17792165656E+03  0.41800000000E+01 0.  1.
        -11    1    3    3    0    0 -0.17486729760E+02  0.12545326947E+02 -0.87859812920E+01  0.23245739677E+02  0.00000000000E+00 0.  1.
         11    1    3    3    0    0  0.22247217529E+02 -0.52745660679E+02 -0.28860003804E+03  0.29422274787E+03  0.00000000000E+00 0. -1.
</event>
<event>
 7    1  0.5831876E-006  0.9288113E+02  0.7561462E-02  0.1296021E+00
          2   -1    0    0  501    0  0.00000000000E+00  0.00000000000E+00  0.18960418353E+03  0.18960418353E+03  0.00000000000E+00 0. -1.
         -2   -1    0    0    0  501 -0.00000000000E+00 -0.00000000000E+00 -0.80166041168E+02  0.80166041168E+02  0.00000000000E+00 0.  1.
         23    2    1    2    0    0 -0.13843233092E+02 -0.61510102364E+02  0.74589492099E+02  0.12541188342E+03  0.78672869379E+02 0.  0.
          5    1    1    2  502    0  0.21846760784E+02 -0.90833081456E+01  0.63305443644E+02  0.67711439496E+02  0.41800000000E+01 0.  1.
         -5    1    1    2    0  502 -0.80035276927E+01  0.70593410510E+02 -0.28456793382E+02  0.76646901780E+02  0.41800000000E+01 0.  1.
        -11    1    3    3    0    0 -0.28840294801E+02 -0.16830064561E+01  0.52451357550E+02  0.59881048954E+02  0.00000000000E+00 0. -1.
         11    1    3    3    0    0  0.14997061709E+02 -0.59827095908E+02  0.22138134549E+02  0.65530834467E+02  0.00000000000E+00 0.  1.
</event>
<event>
 7    1  0.5831876E-006  0.7097514E+02  0.7561462E-02  0.1356808E+00
         -1   -1    0    0    0  501 -0.00000000000E+00  0.00000000000E+00  0.24525036527E+02  0.24525036527E+02  0.00000000000E+00 0.  1.
          1   -1    0    0  501    0  0.00000000000E+00 -0.00000000000E+00 -0.68335432609E+03  0.68335432609E+03  0.00000000000E+00 0. -1.
         23    2    1    2    0    0 -0.12273784670E+01 -0.65375961824E+02 -0.22483864159E+03  0.25151263811E+03  0.91818677486E+02 0.  0.
          5    1    1    2  502    0  0.88902236782E+01  0.38287803352E+02 -0.42454382251E+03  0.42638002017E+03  0.41800000000E+01 0.  1.
         -5    1    1    2    0  502 -0.76628452113E+01  0.27088158473E+02 -0.94468254672E+01  0.29986704347E+02  0.41800000000E+01 0.  1.
        -11    1    3    3    0    0 -0.17142747223E+02 -0.22921613585E+02 -0.76300635463E+01  0.29622491817E+02  0.00000000000E+00 0.  1.
         11    1    3    3    0    0  0.15915368756E+02 -0.42454348239E+02 -0.21720857804E+03  0.22189014629E+03  0.00000000000E+00 0. -1.
</event>
<event>
 7    1  0.5831876E-006  0.1143167E+03  0.7561462E-02  0.1252779E+00
         -2   -1    0    0    0  501 -0.00000000000E+00  0.00000000000E+00  0.49737610175E+03  0.49737610175E+03  0.00000000000E+00 0.  1.
          2   -1    0    0  501    0  0.00000000000E+00 -0.00000000000E+00 -0.42976630745E+02  0.42976630745E+02  0.00000000000E+00 0. -1.
         23    2    1    2    0    0 -0.40626258638E+02 -0.88314157560E+02  0.16245690515E+03  0.20821240358E+03  0.86661846593E+02 0.  0.
          5    1    1    2  502    0 -0.24866448674E+02  0.19906514229E+02  0.19092518137E+03  0.19360916006E+03  0.41800000000E+01 0. -1.
         -5    1    1    2    0  502  0.65492707311E+02  0.68407643332E+02  0.10101738448E+03  0.13853116886E+03  0.41800000000E+01 0. -1.
        -11    1    3    3    0    0 -0.33861680207E+02 -0.37812538977E+02  0.14615086805E+03  0.15471418074E+03  0.00000000000E+00 0.  1.
         11    1    3    3    0    0 -0.67645784309E+01 -0.50501618583E+02  0.16306037105E+02  0.53498222839E+02  0.00000000000E+00 0. -1.
</event>
<event>
 7    1  0.5831876E-006  0.7836433E+02  0.7561462E-02  0.1333758E+00
          1   -1    0    0  501    0  0.00000000000E+00  0.00000000000E+00  0.25285628542E+04  0.25285628542E+04  0.00000000000E+00 0. -1.
         -1   -1    0    0    0  501 -0.00000000000E+00 -0.00000000000E+00 -0.76161465945E+01  0.76161465945E+01  0.00000000000E+00 0.  1.
         23    2    1    2    0    0 -0.20185996347E+02 -0.20546846564E+02  0.37848830779E+03  0.38987844579E+03  0.89006494203E+02 0.  0.
          5    1    1    2  502    0  0.37170357092E+02 -0.41669607917E+01  0.20128818802E+04  0.20132337010E+04  0.41800000000E+01 0.  1.
         -5    1    1    2    0  502 -0.16984360745E+02  0.24713807356E+02  0.12957651962E+03  0.13306685396E+03  0.41800000000E+01 0.  1.
        -11    1    3    3    0    0  0.28091970474E+02 -0.28349905651E+02  0.11101822597E+03  0.11797424487E+03  0.00000000000E+00 0.  1.
         11    1    3    3    0    0 -0.48277966822E+02  0.78030590870E+01  0.26747008182E+03  0.27190420092E+03  0.00000000000E+00 0. -1.
</event>
<event>
 7    1  0.5831876E-006  0.9433698E+02  0.7561462E-02  0.1292676E+00
         -2   -1    0    0    0  501 -0.00000000000E+00  0.00000000000E+00  0.25149473056E+02  0.25149473056E+02  0.00000000000E+00 0.  1.
          2   -1    0    0  501    0  0.00000000000E+00 -0.00000000000E+00 -0.98641616995E+03  0.98641616995E+03  0.00000000000E+00 0. -1.
         23    2    1    2    0    0  0.50611080948E+02 -0.19244138569E+02 -0.12372013093E+03  0.16363495129E+03  0.92400801410E+02 0.  0.
          5    1    1    2  502    0  0.22910517713E+02 -0.19503939553E+02 -0.47443240565E+03  0.47540390765E+03  0.41800000000E+01 0. -1.
         -5    1    1    2    0  502 -0.73521598662E+02  0.38748078122E+02 -0.36311416031E+03  0.37252678407E+03  0.41800000000E+01 0.  1.
        -11    1    3    3    0    0  0.61048116464E+02 -0.11582578753E+02 -0.13360368011E+03  0.14734643529E+03  0.00000000000E+00 0.  1.
         11    1    3    3    0    0 -0.10437035515E+02 -0.76615598154E+01  0.98835491748E+01  0.16288515999E+02  0.00000000000E+00 0. -1.
</event>
<event>
 7    1  0.5831876E-006  0.1249846E+03  0.7561462E-02  0.1235093E+00
          3   -1    0    0  501    0  0.00000000000E+00  0.00000000000E+00  0.19947512518E+03  0.19947512518E+03  0.00000000000E+00 0. -1.
         -3   -1    0    0    0  501 -0.00000000000E+00 -0.00000000000E+00 -0.11419490628E+03  0.11419490628E+03  0.00000000000E+00 0.  1.
         23    2    1    2    0    0  0.90448486254E+02 -0.46455985296E+02  0.64566774424E+02  0.15113853552E+03  0.91295680755E+02 0.  0.
          5    1    1    2  502    0 -0.10511740412E+03  0.43670326301E+02 -0.22952834727E+02  0.11619410944E+03  0.41800000000E+01 0. -1.
         -5    1    1    2    0  502  0.14668917863E+02  0.27856589953E+01  0.43666279201E+02  0.46337386488E+02  0.41800000000E+01 0. -1.
        -11    1    3    3    0    0  0.44721882080E+02 -0.58152699305E+02  0.72657046646E+02  0.10325129346E+03  0.00000000000E+00 0. -1.
         11    1    3    3    0    0  0.45726604173E+02  0.11696714009E+02 -0.80902722221E+01  0.47887242064E+02  0.00000000000E+00 0.  1.
</event>
<event>
 7    1  0.5831876E-006  0.1466400E+03  0.7561462E-02  0.1204664E+00
          2   -1    0    0  501    0  0.00000000000E+00  0.00000000000E+00  0.11685784569E+04  0.11685784569E+04  0.00000000000E+00 0. -1.
         -2   -1    0    0    0  501 -0.00000000000E+00 -0.00000000000E+00 -0.19087036924E+02  0.19087036924E+02  0.00000000000E+00 0.  1.
         23    2    1    2    0    0  0.59255285985E+02  0.80419500084E+02  0.44879808322E+03  0.46891818863E+03  0.92119830720E+02 0.  0.
          5    1    1    2  502    0 -0.70895146423E+01 -0.10132741443E+03  0.39301169669E+03  0.40594725306E+03  0.41800000000E+01 0.  1.
         -5    1    1    2    0  502 -0.52165771342E+02  0.20907914345E+02  0.30768164003E+03  0.31280005210E+03  0.41800000000E+01 0.  1.
        -11    1    3    3    0    0 -0.24752911243E+02  0.18160759878E+02  0.84195907059E+02  0.89618472314E+02  0.00000000000E+00 0. -1.
         11    1    3    3    0    0  0.84008197228E+02  0.62258740206E+02  0.36460217616E+03  0.37929971631E+03  0.00000000000E+00 0.  1.
</event>
<event>
 7    1  0.5831876E-006  0.8348746E+02  0.7561462E-02  0.1319436E+00
          1   -1    0    0  501    0  0.00000000000E+00  0.00000000000E+00  0.61083595499E+02  0.61083595499E+02  0.00000000000E+00 0. -1.
         -1   -1    0    0    0  501 -0.00000000000E+00 -0.00000000000E+00 -0.25945684508E+03  0.25945684508E+03  0.00000000000E+00 0.  1.
         23    2    1    2    0    0 -0.29513979969E+02  0.35214153086E+02 -0.10177342997E+03  0.15595675594E+03  0.10887408822E+03 0.  0.
          5    1    1    2  502    0 -0.33466439710E+02  0.16838872829E+02  0.38648572185E+00  0.37698434931E+02  0.41800000000E+01 0. -1.
         -5    1    1    2    0  502  0.62980419679E+02 -0.52053025915E+02 -0.96986305334E+02  0.12688524970E+03  0.41800000000E+01 0. -1.
        -11    1    3    3    0    0 -0.12028026166E+02  0.23554094048E+02 -0.12316240821E+03  0.12597002642E+03  0.00000000000E+00 0.  1.
         11    1    3    3    0    0 -0.17485953803E+02  0.11660059039E+02  0.21388978244E+02  0.29986729523E+02  0.00000000000E+00 0. -1.
</event>
<event>
 7    1  0.5831876E-006  0.1305046E+03  0.7561462E-02  0.1226709E+00
          3   -1    0    0  501    0  0.00000000000E+00  0.00000000000E+00  0.19001586056E+03  0.19001586056E+03  0.00000000000E+00 0. -1.
         -3   -1    0    0    0  501 -0.00000000000E+00 -0.00000000000E+00 -0.11714816259E+03  0.11714816259E+03  0.00000000000E+00 0.  1.
         23    2    1    2    0    0 -0.99741419323E+02  0.10906270316E+02  0.65813253058E+01  0.13365050667E+03  0.88044571829E+02 0.  0.
          5    1    1    2  502    0  0.18069853221E+02  0.40735759243E+02 -0.14965109403E+02  0.47194793950E+02  0.41800000000E+01 0.  1.
         -5    1    1    2    0  502  0.81671566103E+02 -0.51642029559E+02  0.81251482066E+02  0.12631872254E+03  0.41800000000E+01 0.  1.
        -11    1    3    3    0    0 -0.97061590790E+02  0.28951636410E+02 -0.18168066971E+02  0.10290397619E+03  0.00000000000E+00 0.  1.
         11    1    3    3    0    0 -0.26798285329E+01 -0.18045366094E+02  0.24749392277E+02  0.30746530479E+02  0.00000000000E+00 0. -1.
</event>
<event>
 7    1  0.5831876E-006  0.9501960E+02  0.7561462E-02  0.1291132E+00
         -2   -1    0    0    0  501 -0.00000000000E+00  0.00000000000E+00  0.47539522996E+02  0.47539522996E+02  0.00000000000E+00 0.  1.
          2   -1    0    0  501    0  0.00000000000E+00 -0.00000000000E+00 -0.25387621047E+03  0.25387621047E+03  0.00000000000E+00 0. -1.
         23    2    1    2    0    0 -0.20265551198E+02 -0.74614123194E+01 -0.88975279366E+02  0.12852396629E+03  0.90196698020E+02 0.  0.
          5    1    1    2  502    0 -0.14119818555E+02 -0.41748509359E+02 -0.10138509552E+03  0.11062873634E+03  0.41800000000E+01 0.  1.
         -5    1    1    2    0  502  0.34385369754E+02  0.49209921678E+02 -0.15976312582E+02  0.62263030832E+02  0.41800000000E+01 0.  1.
        -11    1    3    3    0    0 -0.22537528929E+02 -0.43759480332E+02 -0.74688337037E+02  0.89449315361E+02  0.00000000000E+00 0. -1.
         11    1    3    3    0    0  0.22719777308E+01  0.36298068012E+02 -0.14286942329E+02  0.39074650930E+02  0.00000000000E+00 0.  1.
</event>
<event>
 7    1  0.5831876E-006  0.9159189E+02  0.7561462E-02  0.1299042E+00
          2   -1    0    0  501    0  0.00000000000E+00  0.00000000000E+00  0.79742011381E+03  0.79742011381E+03  0.00000000000E+00 0.  1.
         -2   -1    0    0    0  501 -0.00000000000E+00 -0.00000000000E+00 -0.16738225649E+02  0.16738225649E+02  0.00000000000E+00 0. -1.
         23    2    1    2    0    0  0.15643903995E+02  0.23362781899E+02  0.23653419670E+03  0.25511111964E+03  0.91338413857E+02 0.  0.
          5    1    1    2  502    0 -0.27851860163E+02  0.26562052882E+02  0.55396604513E+02  0.67583466613E+02  0.41800000000E+01 0.  1.
         -5    1    1    2    0  502  0.12207956167E+02 -0.49924834781E+02  0.48875108695E+03  0.49146375321E+03  0.41800000000E+01 0.  1.
        -11    1    3    3    0    0  0.37290436184E+02  0.47561323554E+02  0.18050960160E+03  0.19035853645E+03  0.00000000000E+00 0.  1.
         11    1    3    3    0    0 -0.21646532188E+02 -0.24198541655E+02  0.56024595097E+02  0.64752583191E+02  0.00000000000E+00 0. -1.
</event>
<event>
 7    1  0.5831876E-006  0.7536360E+02  0.7561462E-02  0.1342749E+00
         -1   -1    0    0    0  501 -0.00000000000E+00  0.00000000000E+00  0.27588220803E+02  0.27588220803E+02  0.00000000000E+00 0.  1.
          1   -1    0    0  501    0  0.00000000000E+00 -0.00000000000E+00 -0.43099395896E+03  0.43099395896E+03  0.00000000000E+00 0. -1.
         23    2    1    2    0    0 -0.32426411882E+01  0.63197944862E+01 -0.14484010663E+03  0.17126120785E+03  0.91111416952E+02 0.  0.
          5    1    1    2  502    0 -0.36768595435E+02  0.16390411008E+02 -0.22882999822E+03  0.23238161646E+03  0.41800000000E+01 0.  1.
         -5    1    1    2    0  502  0.40011236624E+02 -0.22710205494E+02 -0.29735633296E+02  0.54939355450E+02  0.41800000000E+01 0.  1.
        -11    1    3    3    0    0  0.19001358302E+02 -0.21333288909E+02 -0.76780961837E+01  0.29582325703E+02  0.00000000000E+00 0.  1.
         11    1    3    3    0    0 -0.22243999490E+02  0.27653083395E+02 -0.13716201045E+03  0.14167888214E+03  0.00000000000E+00 0. -1.
</event>
<event>
 7    1  0.5831876E-006  0.1336128E+03  0.7561462E-02  0.1222191E+00
          1   -1    0    0  501    0  0.00000000000E+00  0.00000000000E+00  0.47801928395E+02  0.47801928395E+02  0.00000000000E+00 0. -1.
         -1   -1    0    0    0  501 -0.00000000000E+00 -0.00000000000E+00 -0.41893933983E+03  0.41893933983E+03  0.00000000000E+00 0.  1.
         23    2    1    2    0    0 -0.80781176890E+02  0.15919422543E+02 -0.22432484252E+03  0.25702259669E+03  0.94657031862E+02 0.  0.
          5    1    1    2  502    0  0.10887218127E+03 -0.30115042671E+02 -0.13443078670E+03  0.17563933632E+03  0.41800000000E+01 0. -1.
         -5    1    1    2    0  502 -0.28091004385E+02  0.14195620128E+02 -0.12381782216E+02  0.34079335220E+02  0.41800000000E+01 0. -1.
        -11    1    3    3    0    0 -0.79197039409E+02  0.46484473515E+02 -0.14112930623E+03  0.16837594367E+03  0.00000000000E+00 0. -1.
         11    1    3    3    0    0 -0.15841374807E+01 -0.30565050971E+02 -0.83195536292E+02  0.88646653018E+02  0.00000000000E+00 0.  1.
</event>
<event>
 6    1  0.5831876E-006  0.1083913E+03  0.7561462E-02  0.1263578E+00
          1   -1    0    0  501    0  0.00000000000E+00  0.00000000000E+00  0.48612172078E+03  0.48612172078E+03  0.00000000000E+00 0. -1.
         -1   -1    0    0    0  501 -0.00000000000E+00 -0.00000000000E+00 -0.27657126191E+02  0.27657126191E+02  0.00000000000E+00 0.  1.
          5    1    1    2  502    0 -0.38721017558E+02 -0.22121173605E+02  0.17755554902E+03  0.18311774603E+03  0.41800000000E+01 0.  1.
         -5    1    1    2    0  502  0.82878479452E+02 -0.39969379154E+02  0.15570094108E+03  0.18090508307E+03  0.41800000000E+01 0.  1.
        -11    1    1    2    0    0 -0.29501331117E+02  0.57329299958E+02  0.11298503676E+03  0.13008687752E+03  0.00000000000E+00 0. -1.
         11    1    1    2    0    0 -0.14656130778E+02  0.47612528007E+01  0.12223067727E+02  0.19669140354E+02  0.00000000000E+00 0.  1.
</event>
<event>
 7    1  0.5831876E-006  0.9336566E+02  0.7561462E-02  0.1294900E+00
         -4   -1    0    0    0  501 -0.00000000000E+00  0.00000000000E+00  0.41953888853E+02  0.41953888853E+02  0.00000000000E+00 0. -1.
          4   -1    0    0  501    0  0.00000000000E+00 -0.00000000000E+00 -0.34108917413E+03  0.34108917413E+03  0.00000000000E+00 0.  1.
         23    2    1    2    0    0  0.75016666966E+01 -0.39593724338E+02 -0.80811979543E+02  0.12821750037E+03  0.91023147352E+02 0.  0.
          5    1    1    2  502    0 -0.30006371860E+02 -0.11343795195E+02 -0.31264865225E+01  0.32500943980E+02  0.41800000000E+01 0. -1.
         -5    1    1    2    0  502  0.22504705163E+02  0.50937519533E+02 -0.21519681921E+03  0.22232461863E+03  0.41800000000E+01 0. -1.
        -11    1    3    3    0    0  0.36927479687E+02  0.12265336849E+02 -0.40982682876E+02  0.56512454731E+02  0.00000000000E+00 0.  1.
         11    1    3    3    0    0 -0.29425812991E+02 -0.51859061187E+02 -0.39829296667E+02  0.71705045641E+02  0.00000000000E+00 0. -1.
</event>
<event>
 7    1  0.5831876E-006  0.2398130E+03  0.7561462E-02  0.1119917E+00
         -2   -1    0    0    0  501 -0.00000000000E+00  0.00000000000E+00  0.19457609005E+03  0.19457609005E+03  0.00000000000E+00 0. -1.
          2   -1    0    0  501    0  0.00000000000E+00 -0.00000000000E+00 -0.48768932487E+03  0.48768932487E+03  0.00000000000E+00 0.  1.
         23    2    1    2    0    0  0.14804094295E+02  0.21730144854E+03  0.65068723385E+02  0.24479807407E+03  0.90846450455E+02 0.  0.
          5    1    1    2  502    0  0.29218590457E+02 -0.74599972871E+01 -0.84218774331E+02  0.89552509387E+02  0.41800000000E+01 0. -1.
         -5    1    1    2    0  502 -0.44022684752E+02 -0.20984145125E+03 -0.27396318388E+03  0.34791483147E+03  0.41800000000E+01 0. -1.
        -11    1    3    3    0    0  0.55273162063E+01  0.22350397029E+03  0.56157520378E+02  0.23051733786E+03  0.00000000000E+00 0.  1.
         11    1    3    3    0    0  0.92767780887E+01 -0.62025217467E+01  0.89112030071E+01  0.14280736212E+02  0.00000000000E+00 0. -1.
</event>
<event>
 7    1  0.5831876E-006  0.1013222E+03  0.7561462E-02  0.1277540E+00
          2   -1    0    0  501    0  0.00000000000E+00  0.00000000000E+00  0.15174586222E+03  0.15174586222E+03  0.00000000000E+00 0.  1.
         -2   -1    0    0    0  501 -0.00000000000E+00 -0.00000000000E+00 -0.28283087287E+03  0.28283087287E+03  0.00000000000E+00 0. -1.
         23    2    1    2    0    0 -0.56973764906E+01 -0.44883881552E+02 -0.17646310440E+03  0.20383208073E+03  0.91439963895E+02 0.  0.
          5    1    1    2  502    0  0.54168529371E+02 -0.30606605940E+01  0.11867426840E+03  0.13055516688E+03  0.41800000000E+01 0.  1.
         -5    1    1    2    0  502 -0.48471152881E+02  0.47944542146E+02 -0.73296174645E+02  0.10018948748E+03  0.41800000000E+01 0. -1.
        -11    1    3    3    0    0  0.20152563104E+02  0.75046347134E+01 -0.12227194451E+03  0.12414859546E+03  0.00000000000E+00 0.  1.
         11    1    3    3    0    0 -0.25849939594E+02 -0.52388516265E+02 -0.54191159897E+02  0.79683485269E+02  0.00000000000E+00 0. -1.
</event>
<event>
 7    1  0.5831876E-006  0.1163797E+03  0.7561462E-02  0.1249192E+00
         -2   -1    0    0    0  501 -0.00000000000E+00  0.00000000000E+00  0.23619062722E+02  0.23619062722E+02  0.00000000000E+00 0.  1.
          2   -1    0    0  501    0  0.00000000000E+00 -0.00000000000E+00 -0.60230172820E+03  0.60230172820E+03  0.00000000000E+00 0. -1.
         23    2    1    2    0    0 -0.19846820733E+02  0.40155318154E+02 -0.21357129340E+03  0.23738757941E+03  0.93454906895E+02 0.  0.
          5    1    1    2  502    0  0.20575333426E+02 -0.83299153600E+02 -0.19686819305E+03  0.21479443934E+03  0.41800000000E+01 0. -1.
         -5    1    1    2    0  502 -0.72851269296E+00  0.43143835447E+02 -0.16824317902E+03  0.17373877217E+03  0.41800000000E+01 0. -1.
        -11    1    3    3    0    0  0.14489255789E+02 -0.25546915054E+02 -0.55325030295E+02  0.62637388030E+02  0.00000000000E+00 0.  1.
         11    1    3    3    0    0 -0.34336076521E+02  0.65702233208E+02 -0.15824626311E+03  0.17475019138E+03  0.00000000000E+00 0. -1.
</event>
<event>
 7    1  0.5831876E-006  0.1124695E+03  0.7561462E-02  0.1256064E+00
         -2   -1    0    0    0  501 -0.00000000000E+00  0.00000000000E+00  0.28016171564E+02  0.28016171564E+02  0.00000000000E+00 0.  1.
          2   -1    0    0  501    0  0.00000000000E+00 -0.00000000000E+00 -0.10171424900E+04  0.10171424900E+04  0.00000000000E+00 0. -1.
         23    2    1    2    0    0  0.96044463028E+02  0.43379264437E+02 -0.23532049905E+03  0.27381055289E+03  0.92142184371E+02 0.  0.
          5    1    1    2  502    0 -0.40863010412E+02 -0.48377035420E+02 -0.65437263640E+03  0.65744288182E+03  0.41800000000E+01 0.  1.
         -5    1    1    2    0  502 -0.55181452616E+02  0.49977709830E+01 -0.99433183009E+02  0.11390522688E+03  0.41800000000E+01 0.  1.
        -11    1    3    3    0    0  0.58052981664E+02  0.31810471062E+02 -0.22240783011E+03  0.23205020500E+03  0.00000000000E+00 0. -1.
         11    1    3    3    0    0  0.37991481364E+02  0.11568793375E+02 -0.12912668939E+02  0.41760347885E+02  0.00000000000E+00 0.  1.
</event>
<event>
 7    1  0.5831876E-006  0.1106864E+03  0.7561462E-02  0.1259304E+00
         -2   -1    0    0    0  501 -0.00000000000E+00  0.00000000000E+00  0.11059224486E+03  0.11059224486E+03  0.00000000000E+00 0. -1.
          2   -1    0    0  501    0  0.00000000000E+00 -0.00000000000E+00 -0.19694911906E+03  0.19694911906E+03  0.00000000000E+00 0.  1.
         23    2    1    2    0    0 -0.36617458572E+02 -0.87642287318E+02 -0.91172111629E+01  0.13251123972E+03  0.91946159870E+02 0.  0.
          5    1    1    2  502    0  0.29098673509E+02  0.56973441360E+01  0.28255752915E+02  0.41171015326E+02  0.41800000000E+01 0.  1.
         -5    1    1    2    0  502  0.75187850626E+01  0.81944943182E+02 -0.10549541595E+03  0.13385910887E+03  0.41800000000E+01 0.  1.
        -11    1    3    3    0    0  0.13978813588E+02 -0.23418902526E+02  0.31125694604E+02  0.41384309701E+02  0.00000000000E+00 0. -1.
         11    1    3    3    0    0 -0.50596272159E+02 -0.64223384792E+02 -0.40242905767E+02  0.91126930021E+02  0.00000000000E+00 0.  1.
</event>
<event>
 7    1  0.5831876E-006  0.1065008E+03  0.7561462E-02  0.1267191E+00
          1   -1    0    0  501    0  0.00000000000E+00  0.00000000000E+00  0.61125108428E+03  0.61125108428E+03  0.00000000000E+00 0. -1.
         -1   -1    0    0    0  501 -0.00000000000E+00 -0.00000000000E+00 -0.19671654146E+02  0.19671654146E+02  0.00000000000E+00 0.  1.
         23    2    1    2    0    0  0.51497587236E+01  0.30473156688E+01  0.24190224413E+03  0.25949701028E+03  0.93734713321E+02 0.  0.
          5    1    1    2  502    0  0.54182733537E+02 -0.22949884359E+02  0.12607807066E+03  0.13919632936E+03  0.41800000000E+01 0. -1.
         -5    1    1    2    0  502 -0.59332492260E+02  0.19902568691E+02  0.22359911534E+03  0.23222939879E+03  0.41800000000E+01 0. -1.
        -11    1    3    3    0    0 -0.36722837464E+02 -0.21695661985E+02  0.83001061654E+02  0.93319048302E+02  0.00000000000E+00 0.  1.
         11    1    3    3    0    0  0.41872596188E+02  0.24742977654E+02  0.15890118247E+03  0.16617796198E+03  0.00000000000E+00 0. -1.
</event>
<event>
 7    1  0.5831876E-006  0.1690448E+03  0.7561462E-02  0.1178848E+00
         -1   -1    0    0    0  501 -0.00000000000E+00  0.00000000000E+00  0.52474607517E+03  0.52474607517E+03  0.00000000000E+00 0.  1.
          1   -1    0    0  501    0  0.00000000000E+00 -0.00000000000E+00 -0.61589087482E+02  0.61589087482E+02  0.00000000000E+00 0. -1.
         23    2    1    2    0    0  0.92466454541E+02 -0.10704801892E+03  0.26608046730E+03  0.31339760050E+03  0.86080876804E+02 0.  0.
          5    1    1    2  502    0  0.10909424019E+02  0.58704507245E+02  0.12307739955E+03  0.13686034263E+03  0.41800000000E+01 0. -1.
         -5    1    1    2    0  502 -0.10337587856E+03  0.48343511678E+02  0.73999120842E+02  0.13607721953E+03  0.41800000000E+01 0. -1.
        -11    1    3    3    0    0  0.10837860031E+03 -0.93083288330E+02  0.24441135687E+03  0.28310303943E+03  0.00000000000E+00 0.  1.
         11    1    3    3    0    0 -0.15912145766E+02 -0.13964730592E+02  0.21669110431E+02  0.30294561067E+02  0.00000000000E+00 0. -1.
</event>
<event>
 7    1  0.1314876E-005  0.1441877E+03  0.7561462E-02  0.1207803E+00
         -1   -1    0    0    0  501 -0.00000000000E+00  0.00000000000E+00  0.16612759356E+03  0.16612759356E+03  0.00000000000E+00 0.  1.
          1   -1    0    0  501    0  0.00000000000E+00 -0.00000000000E+00 -0.17923338211E+03  0.17923338211E+03  0.00000000000E+00 0. -1.
         23    2    1    2    0    0 -0.76805401964E+02  0.10654265890E+03  0.45612088581E+02  0.15471492436E+03  0.67866319030E+02 0.  0.
          5    1    1    2  502    0  0.27162344513E+02 -0.26996025133E+01 -0.69678216172E+02  0.74950697276E+02  0.41800000000E+01 0. -1.
         -5    1    1    2    0  502  0.49643057451E+02 -0.10384305639E+03  0.10960339043E+02  0.11569535404E+03  0.41800000000E+01 0. -1.
        -11    1    3    3    0    0 -0.15036263950E+02  0.74496414041E+02  0.37219893589E+02  0.84623433028E+02  0.00000000000E+00 0.  1.
         11    1    3    3    0    0 -0.61769138014E+02  0.32046244862E+02  0.83921949911E+01  0.70091491335E+02  0.00000000000E+00 0. -1.
</event>
<event>
 7    1  0.5831876E-006  0.8784278E+02  0.7561462E-02  0.1308161E+00
          2   -1    0    0  501    0  0.00000000000E+00  0.00000000000E+00  0.53769414689E+03  0.53769414689E+03  0.00000000000E+00 0. -1.
         -2   -1    0    0    0  501 -0.00000000000E+00 -0.00000000000E+00 -0.32686816820E+02  0.32686816820E+02  0.00000000000E+00 0.  1.
         23    2    1    2    0    0  0.46637914659E+02 -0.46297597246E+02  0.11469065735E+03  0.15527387477E+03  0.81470649375E+02 0.  0.
          5    1    1    2  502    0 -0.48921291089E+02  0.43427477085E+02  0.39924408843E+03  0.40458936347E+03  0.41800000000E+01 0.  1.
         -5    1    1    2    0  502  0.22833764297E+01  0.28701201617E+01 -0.89274157102E+01  0.10517725463E+02  0.41800000000E+01 0.  1.
        -11    1    3    3    0    0  0.50970681452E+02 -0.66571425714E+02  0.94538583794E+02  0.12636181747E+03  0.00000000000E+00 0.  1.
         11    1    3    3    0    0 -0.43327667924E+01  0.20273828468E+02  0.20152073556E+02  0.28912057302E+02  0.00000000000E+00 0. -1.
</event>
<event>
 7    1  0.5831876E-006  0.1762970E+03  0.7561462E-02  0.1171436E+00
         -2   -1    0    0    0  501 -0.00000000000E+00  0.00000000000E+00  0.57012014814E+02  0.57012014814E+02  0.00000000000E+00 0.  1.
          2   -1    0    0  501    0  0.00000000000E+00 -0.00000000000E+00 -0.85424342461E+03  0.85424342461E+03  0.00000000000E+00 0. -1.
         23    2    1    2    0    0  0.13829691421E+03  0.20592628041E+02 -0.11248811751E+03  0.20127560226E+03  0.91149320774E+02 0.  0.
          5    1    1    2  502    0 -0.89797764517E+02  0.48390421056E+02 -0.33637289407E+03  0.35152449080E+03  0.41800000000E+01 0. -1.
         -5    1    1    2    0  502 -0.48499149691E+02 -0.68983049097E+02 -0.34837039821E+03  0.35845534636E+03  0.41800000000E+01 0. -1.
        -11    1    3    3    0    0  0.19331126174E+02  0.41038019467E+02 -0.22009486408E+02  0.50420521347E+02  0.00000000000E+00 0. -1.
         11    1    3    3    0    0  0.11896578803E+03 -0.20445391426E+02 -0.90478631100E+02  0.15085508092E+03  0.00000000000E+00 0.  1.
</event>
<event>
 7    1  0.1278108E-005  0.2008288E+03  0.7561462E-02  0.1149042E+00
          2   -1    0    0  501    0  0.00000000000E+00  0.00000000000E+00  0.92388538821E+02  0.92388538821E+02  0.00000000000E+00 0. -1.
         -2   -1    0    0    0  501 -0.00000000000E+00 -0.00000000000E+00 -0.50135066594E+03  0.50135066594E+03  0.00000000000E+00 0.  1.
         23    2    1    2    0    0 -0.47584784860E+02  0.18192189618E+03 -0.22706845782E+03  0.30375212948E+03  0.73112130118E+02 0.  0.
          5    1    1    2  502    0  0.37607751252E+02 -0.27791625288E+02  0.53189208149E+01  0.47249134479E+02  0.41800000000E+01 0.  1.
         -5    1    1    2    0  502  0.99770336083E+01 -0.15413027089E+03 -0.18721259011E+03  0.24273794080E+03  0.41800000000E+01 0.  1.
        -11    1    3    3    0    0  0.11670634560E+02  0.90528062910E+02 -0.12243574508E+03  0.15271557078E+03  0.00000000000E+00 0.  1.
         11    1    3    3    0    0 -0.59255419421E+02  0.91393833270E+02 -0.10463271274E+03  0.15103655871E+03  0.00000000000E+00 0. -1.
</event>
<event>
 7    1  0.5831876E-006  0.8833485E+02  0.7561462E-02  0.1306935E+00
         -2   -1    0    0    0  501 -0.00000000000E+00  0.00000000000E+00  0.45001016913E+02  0.45001016913E+02  0.00000000000E+00 0.  1.
          2   -1    0    0  501    0  0.00000000000E+00 -0.00000000000E+00 -0.29678449803E+03  0.29678449803E+03  0.00000000000E+00 0. -1.
         23    2    1    2    0    0  0.13005460779E+01  0.38896514543E+02 -0.87524033155E+02  0.13167847092E+03  0.90355592310E+02 0.  0.
          5    1    1    2  502    0 -0.59684960832E+02 -0.30215289673E+02 -0.58722066735E+02  0.89112354930E+02  0.41800000000E+01 0. -1.
         -5    1    1    2    0  502  0.58384414754E+02 -0.86812248700E+01 -0.10553738123E+03  0.12099468909E+03  0.41800000000E+01 0. -1.
        -11    1    3    3    0    0 -0.14347164070E+02  0.96259804675E+01 -0.95902794183E+02  0.97446634364E+02  0.00000000000E+00 0. -1.
         11    1    3    3    0    0  0.15647710148E+02  0.29270534075E+02  0.83787610280E+01  0.34231836560E+02  0.00000000000E+00 0.  1.
</event>
<event>
 7    1  0.5831876E-006  0.1108240E+03  0.7561462E-02  0.1259051E+00
          2   -1    0    0  501    0  0.00000000000E+00  0.00000000000E+00  0.20008358582E+03  0.20008358582E+03  0.00000000000E+00 0. -1.
         -2   -1    0    0    0  501 -0.00000000000E+00 -0.00000000000E+00 -0.68693732481E+02  0.68693732481E+02  0.00000000000E+00 0.  1.
         23    2    1    2    0    0  0.40849824185E+02 -0.13541696738E+02  0.32385580398E+02  0.10354868710E+03  0.88438787287E+02 0.  0.
          5    1    1    2  502    0  0.35309671293E+02 -0.23568464551E+02  0.13390384239E+02  0.44710403691E+02  0.41800000000E+01 0.  1.
         -5    1    1    2    0  502 -0.76159495478E+02  0.37110161289E+02  0.85613888705E+02  0.12051822751E+03  0.41800000000E+01 0.  1.
        -11    1    3    3    0    0 -0.13425172694E+02 -0.33695159183E+02 -0.17955580181E+01  0.36315603297E+02  0.00000000000E+00 0.  1.
         11    1    3    3    0    0  0.54274996879E+02  0.20153462445E+02  0.34181138416E+02  0.67233083807E+02  0.00000000000E+00 0. -1.
</event>
<event>
 7    1  0.5831876E-006  0.9845120E+02  0.7561462E-02  0.1283587E+00
         -1   -1    0    0    0  501 -0.00000000000E+00  0.00000000000E+00  0.14290771246E+02  0.14290771246E+02  0.00000000000E+00 0.  1.
          1   -1    0    0  501    0  0.00000000000E+00 -0.00000000000E+00 -0.10286213129E+04  0.10286213129E+04  0.00000000000E+00 0. -1.
         23    2    1    2    0    0 -0.29948947944E+00 -0.54948107292E+02 -0.43174545361E+03  0.44452161561E+03  0.90420936984E+02 0.  0.
          5    1    1    2  502    0  0.24872825431E+02 -0.57246928466E+01 -0.44725162854E+03  0.44799879597E+03  0.41800000000E+01 0.  1.
         -5    1    1    2    0  502 -0.24573335952E+02  0.60672800139E+02 -0.13533345949E+03  0.15039167255E+03  0.41800000000E+01 0.  1.
        -11    1    3    3    0    0  0.44765348796E+02 -0.30593928095E+02 -0.20359646691E+03  0.21069277688E+03  0.00000000000E+00 0.  1.
         11    1    3    3    0    0 -0.45064838275E+02 -0.24354179197E+02 -0.22814898670E+03  0.23382883873E+03  0.00000000000E+00 0. -1.
</event>
<event>
 7    1  0.5831876E-006  0.1304112E+03  0.7561462E-02  0.1226847E+00
          2   -1    0    0  501    0  0.00000000000E+00  0.00000000000E+00  0.44206919488E+03  0.44206919488E+03  0.00000000000E+00 0. -1.
         -2   -1    0    0    0  501 -0.00000000000E+00 -0.00000000000E+00 -0.65515294035E+02  0.65515294035E+02  0.00000000000E+00 0.  1.
         23    2    1    2    0    0 -0.10587452824E+03 -0.65630270214E+02  0.12137188993E+03  0.19729028621E+03  0.93142757473E+02 0.  0.
          5    1    1    2  502    0  0.35620455731E+02  0.16039277238E+02 -0.17440735209E+01  0.39326701784E+02  0.41800000000E+01 0.  1.
         -5    1    1    2    0  502  0.70254072514E+02  0.49590992976E+02  0.25692608444E+03  0.27096750092E+03  0.41800000000E+01 0.  1.
        -11    1    3    3    0    0 -0.66264628335E+02 -0.98003857320E+01  0.10868703220E+03  0.12767113807E+03  0.00000000000E+00 0. -1.
         11    1    3    3    0    0 -0.39609899910E+02 -0.55829884482E+02  0.12684857731E+02  0.69619148141E+02  0.00000000000E+00 0.  1.
</event>
<event>
 7    1  0.1215336E-005  0.4295241E+03  0.7561462E-02  0.1034010E+00
          2   -1    0    0  501    0  0.00000000000E+00  0.00000000000E+00  0.55069842609E+03  0.55069842609E+03  0.00000000000E+00 0.  1.
         -2   -1    0    0    0  501 -0.00000000000E+00 -0.00000000000E+00 -0.47658531507E+03  0.47658531507E+03  0.00000000000E+00 0. -1.
         23    2    1    2    0    0  0.35772879343E+03  0.23690036147E+03 -0.22113969019E+03  0.49164042721E+03  0.93358856939E+02 0.  0.
          5    1    1    2  502    0 -0.23282903495E+03 -0.14738219130E+03  0.11467217083E+03  0.29849296305E+03  0.41800000000E+01 0. -1.
         -5    1    1    2    0  502 -0.12489975848E+03 -0.89518170172E+02  0.18058063040E+03  0.23715035090E+03  0.41800000000E+01 0. -1.
        -11    1    3    3    0    0  0.16823291764E+03  0.97002586164E+02 -0.15064406883E+03  0.24577520577E+03  0.00000000000E+00 0.  1.
         11    1    3    3    0    0  0.18949587580E+03  0.13989777531E+03 -0.70495621366E+02  0.24586522144E+03  0.00000000000E+00 0. -1.
</event>
<event>
 7    1  0.5831876E-006  0.1199045E+03  0.7561462E-02  0.1243255E+00
          2   -1    0    0  501    0  0.00000000000E+00  0.00000000000E+00  0.10903224423E+03  0.10903224423E+03  0.00000000000E+00 0.  1.
         -2   -1    0    0    0  501 -0.00000000000E+00 -0.00000000000E+00 -0.19124667740E+03  0.19124667740E+03  0.00000000000E+00 0. -1.
         23    2    1    2    0    0 -0.74078517682E+02  0.25096477232E+02 -0.95070464602E+02  0.15218957194E+03  0.89475206704E+02 0.  0.
          5    1    1    2  502    0 -0.17789874977E+02 -0.37084014916E+02  0.33342509595E+02  0.53112137596E+02  0.41800000000E+01 0.  1.
         -5    1    1    2    0  502  0.91868392659E+02  0.11987537684E+02 -0.20486478169E+02  0.94977212095E+02  0.41800000000E+01 0.  1.
        -11    1    3    3    0    0 -0.70964098756E+02 -0.89594046567E+01 -0.27827146376E+02  0.76749751267E+02  0.00000000000E+00 0.  1.
         11    1    3    3    0    0 -0.31144189260E+01  0.34055881889E+02 -0.67243318225E+02  0.75439820668E+02  0.00000000000E+00 0. -1.
</event>
<event>
 7    1  0.5831876E-006  0.1452601E+03  0.7561462E-02  0.1206421E+00
          2   -1    0    0  501    0  0.00000000000E+00  0.00000000000E+00  0.16510777675E+03  0.16510777675E+03  0.00000000000E+00 0.  1.
         -2   -1    0    0    0  501 -0.00000000000E+00 -0.00000000000E+00 -0.19517132731E+03  0.19517132731E+03  0.00000000000E+00 0. -1.
         23    2    1    2    0    0 -0.82689712885E+01 -0.11897927407E+03 -0.93862695898E+02  0.17604457144E+03  0.89202252812E+02 0.  0.
          5    1    1    2  502    0 -0.50524094427E+02  0.19723085069E+02  0.48435067827E+01  0.54613333173E+02  0.41800000000E+01 0. -1.
         -5    1    1    2    0  502  0.58793065716E+02  0.99256189000E+02  0.58955638550E+02  0.12962119945E+03  0.41800000000E+01 0. -1.
        -11    1    3    3    0    0  0.58971598290E+01 -0.28606689813E+02  0.15824055265E+02  0.33219270328E+02  0.00000000000E+00 0.  1.
         11    1    3    3    0    0 -0.14166131117E+02 -0.90372584257E+02 -0.10968675116E+03  0.14282530111E+03  0.00000000000E+00 0. -1.
</event>
<event>
 7    1  0.5831876E-006  0.1173327E+03  0.7561462E-02  0.1247563E+00
         -2   -1    0    0    0  501 -0.00000000000E+00  0.00000000000E+00  0.17848741927E+02  0.17848741927E+02  0.00000000000E+00 0.  1.
          2   -1    0    0  501    0  0.00000000000E+00 -0.00000000000E+00 -0.86706602166E+03  0.86706602166E+03  0.00000000000E+00 0. -1.
         23    2    1    2    0    0 -0.60460203716E+02 -0.28252662283E+01 -0.33890900782E+03  0.35602260027E+03  0.90715808749E+02 0.  0.
          5    1    1    2  502    0  0.52674711007E+02 -0.57276675338E+02 -0.26958962327E+03  0.28062658479E+03  0.41800000000E+01 0. -1.
         -5    1    1    2    0  502  0.77854927093E+01  0.60101941566E+02 -0.24071864865E+03  0.24826557853E+03  0.41800000000E+01 0. -1.
        -11    1    3    3    0    0 -0.39899509778E+02  0.34910507246E+02 -0.99065471474E+02  0.11235961034E+03  0.00000000000E+00 0.  1.
         11    1    3    3    0    0 -0.20560693938E+02 -0.37735773474E+02 -0.23984353634E+03  0.24366298993E+03  0.00000000000E+00 0. -1.
</event>
<event>
 7    1  0.5831876E-006  0.9512006E+02  0.7561462E-02  0.1290906E+00
         -2   -1    0    0    0  501 -0.00000000000E+00  0.00000000000E+00  0.80277504946E+02  0.80277504946E+02  0.00000000000E+00 0.  1.
          2   -1    0    0  501    0  0.00000000000E+00 -0.00000000000E+00 -0.19377256962E+03  0.19377256962E+03  0.00000000000E+00 0. -1.
         23    2    1    2    0    0  0.11420937497E+02 -0.48737589031E+02 -0.13753044295E+02  0.10641462809E+03  0.92893145313E+02 0.  0.
          5    1    1    2  502    0 -0.16559445838E+02  0.78454586279E+02 -0.10939236739E+03  0.13569635145E+03  0.41800000000E+01 0.  1.
         -5    1    1    2    0  502  0.51385083402E+01 -0.29716997248E+02  0.96503470112E+01  0.31939095022E+02  0.41800000000E+01 0.  1.
        -11    1    3    3    0    0 -0.23559060731E+02 -0.34407810680E+02 -0.42030388275E+02  0.59207096845E+02  0.00000000000E+00 0. -1.
         11    1    3    3    0    0  0.34979998228E+02 -0.14329778351E+02  0.28277343980E+02  0.47207531244E+02  0.00000000000E+00 0.  1.
</event>
<event>
 7    1  0.5831876E-006  0.9664941E+02  0.7561462E-02  0.1287504E+00
         -2   -1    0    0    0  501 -0.00000000000E+00  0.00000000000E+00  0.37732826110E+02  0.37732826110E+02  0.00000000000E+00 0.  1.
          2   -1    0    0  501    0  0.00000000000E+00 -0.00000000000E+00 -0.30345616028E+03  0.30345616028E+03  0.00000000000E+00 0. -1.
         23    2    1    2    0    0 -0.10313732746E+02  0.60667229562E+01 -0.97565378483E+02  0.13321929857E+03  0.89917741419E+02 0.  0.
          5    1    1    2  502    0 -0.38944366947E+02 -0.44816038787E+02 -0.84396950545E+02  0.10327370774E+03  0.41800000000E+01 0. -1.
         -5    1    1    2    0  502  0.49258099693E+02  0.38749315831E+02 -0.83761005146E+02  0.10469598008E+03  0.41800000000E+01 0.  1.
        -11    1    3    3    0    0  0.29848082532E+02 -0.23226364879E+01 -0.85292711372E+02  0.90394409586E+02  0.00000000000E+00 0. -1.
         11    1    3    3    0    0 -0.40161815278E+02  0.83893594441E+01 -0.12272667110E+02  0.42824888982E+02  0.00000000000E+00 0.  1.
</event>
<event>
 7    1  0.5831876E-006  0.1249103E+03  0.7561462E-02  0.1235210E+00
         -2   -1    0    0    0  501 -0.00000000000E+00  0.00000000000E+00  0.10134321064E+03  0.10134321064E+03  0.00000000000E+00 0.  1.
          2   -1    0    0  501    0  0.00000000000E+00 -0.00000000000E+00 -0.19082981656E+03  0.19082981656E+03  0.00000000000E+00 0. -1.
         23    2    1    2    0    0  0.87476889944E+02 -0.99098251574E+01 -0.25617878047E+02  0.12641072009E+03  0.87022891069E+02 0.  0.
          5    1    1    2  502    0  0.22686674965E+02  0.16607666647E+02 -0.45718880887E+02  0.53834824063E+02  0.41800000000E+01 0.  1.
         -5    1    1    2    0  502 -0.11016356491E+03 -0.66978414893E+01 -0.18149846991E+02  0.11192748304E+03  0.41800000000E+01 0.  1.
        -11    1    3    3    0    0  0.98041049239E+02 -0.15070124132E+02 -0.10764360172E+01  0.99198360328E+02  0.00000000000E+00 0.  1.
         11    1    3    3    0    0 -0.10564159295E+02  0.51602989742E+01 -0.24541442030E+02  0.27212359766E+02  0.00000000000E+00 0. -1.
</event>
<event>
 7    1  0.5831876E-006  0.1595062E+03  0.7561462E-02  0.1189255E+00
          2   -1    0    0  501    0  0.00000000000E+00  0.00000000000E+00  0.82582774914E+03  0.82582774914E+03  0.00000000000E+00 0. -1.
         -2   -1    0    0    0  501 -0.00000000000E+00 -0.00000000000E+00 -0.62392889160E+02  0.62392889160E+02  0.00000000000E+00 0.  1.
         23    2    1    2    0    0  0.71817076983E+02 -0.49987058108E+02  0.40908923110E+02  0.13202271683E+03  0.90000329133E+02 0.  0.
          5    1    1    2  502    0 -0.11183130856E+03 -0.26496084008E+02  0.24167002298E+03  0.26763810724E+03  0.41800000000E+01 0. -1.
         -5    1    1    2    0  502  0.40014231573E+02  0.76483142116E+02  0.48085591389E+03  0.48855981423E+03  0.41800000000E+01 0.  1.
        -11    1    3    3    0    0 -0.16487312497E+02 -0.79140414346E+00  0.24611005408E+02  0.29633754084E+02  0.00000000000E+00 0. -1.
         11    1    3    3    0    0  0.88304389480E+02 -0.49195653965E+02  0.16297917702E+02  0.10238896274E+03  0.00000000000E+00 0.  1.
</event>
<event>
 7    1  0.5831876E-006  0.1142597E+03  0.7561462E-02  0.1252879E+00
          2   -1    0    0  501    0  0.00000000000E+00  0.00000000000E+00  0.41787307302E+02  0.41787307302E+02  0.00000000000E+00 0.  1.
         -2   -1    0    0    0  501 -0.00000000000E+00 -0.00000000000E+00 -0.38662103108E+03  0.38662103108E+03  0.00000000000E+00 0. -1.
         23    2    1    2    0    0 -0.54469512624E+02 -0.24275904026E+02 -0.18900635135E+03  0.21987319285E+03  0.95208049878E+02 0.  0.
          5    1    1    2  502    0 -0.17404100612E+02  0.38997843026E+02 -0.11867149034E+03  0.12619084554E+03  0.41800000000E+01 0.  1.
         -5    1    1    2    0  502  0.71873613236E+02 -0.14721938999E+02 -0.37155882089E+02  0.82344299993E+02  0.41800000000E+01 0.  1.
        -11    1    3    3    0    0 -0.81963034529E+02 -0.17545241680E+02 -0.13517265263E+03  0.15905162858E+03  0.00000000000E+00 0.  1.
         11    1    3    3    0    0  0.27493521905E+02 -0.67306623465E+01 -0.53833698725E+02  0.60821564274E+02  0.00000000000E+00 0. -1.
</event>
<event>
 7    1  0.5831876E-006  0.1813922E+03  0.7561462E-02  0.1166462E+00
         -2   -1    0    0    0  501 -0.00000000000E+00  0.00000000000E+00  0.34056916131E+02  0.34056916131E+02  0.00000000000E+00 0. -1.
          2   -1    0    0  501    0  0.00000000000E+00 -0.00000000000E+00 -0.18413477865E+04  0.18413477865E+04  0.00000000000E+00 0.  1.
         23    2    1    2    0    0  0.85599244829E+02 -0.14024350772E+03 -0.29879325625E+03  0.35283850563E+03  0.90675955484E+02 0.  0.
          5    1    1    2  502    0 -0.27660832204E+02  0.12373106495E+03 -0.67043878029E+03  0.68233432318E+03  0.41800000000E+01 0. -1.
         -5    1    1    2    0  502 -0.57938412625E+02  0.16512442771E+02 -0.83805883386E+03  0.84023187385E+03  0.41800000000E+01 0. -1.
        -11    1    3    3    0    0  0.16850376080E+02 -0.86911858681E+02 -0.21290876568E+03  0.23058132808E+03  0.00000000000E+00 0.  1.
         11    1    3    3    0    0  0.68748868749E+02 -0.53331649041E+02 -0.85884490568E+02  0.12225717756E+03  0.00000000000E+00 0. -1.
</event>
<event>
 7    1  0.5831876E-006  0.1060505E+03  0.7561462E-02  0.1268064E+00
         -1   -1    0    0    0  501 -0.00000000000E+00  0.00000000000E+00  0.27794052296E+02  0.27794052296E+02  0.00000000000E+00 0.  1.
          1   -1    0    0  501    0  0.00000000000E+00 -0.00000000000E+00 -0.53075674827E+03  0.53075674827E+03  0.00000000000E+00 0. -1.
         23    2    1    2    0    0 -0.21825423750E+02  0.49816012756E+02 -0.21723682032E+03  0.24193673783E+03  0.91561808411E+02 0.  0.
          5    1    1    2  502    0 -0.29130424697E+02  0.10501606584E+02 -0.18954508494E+03  0.19210329776E+03  0.41800000000E+01 0. -1.
         -5    1    1    2    0  502  0.50955848447E+02 -0.60317619340E+02 -0.96180790708E+02  0.12451076498E+03  0.41800000000E+01 0. -1.
        -11    1    3    3    0    0 -0.39742405496E+02  0.66390204622E+02 -0.19112558991E+03  0.20619434808E+03  0.00000000000E+00 0.  1.
         11    1    3    3    0    0  0.17916981747E+02 -0.16574191867E+02 -0.26111230411E+02  0.35742389743E+02  0.00000000000E+00 0. -1.
</event>
<event>
 7    1  0.5831876E-006  0.7996889E+02  0.7561462E-02  0.1329140E+00
         -2   -1    0    0    0  501 -0.00000000000E+00  0.00000000000E+00  0.39596386399E+03  0.39596386399E+03  0.00000000000E+00 0.  1.
          2   -1    0    0  501    0  0.00000000000E+00 -0.00000000000E+00 -0.32916551746E+02  0.32916551746E+02  0.00000000000E+00 0. -1.
         23    2    1    2    0    0  0.30742214714E+02 -0.19814220068E+02  0.17427054498E+03  0.19948617030E+03  0.89926760252E+02 0.  0.
          5    1    1    2  502    0  0.74992980894E+01  0.45970840083E+02  0.14420092638E+02  0.48938421321E+02  0.41800000000E+01 0. -1.
         -5    1    1    2    0  502 -0.38241512804E+02 -0.26156620015E+02  0.17435667463E+03  0.18045582412E+03  0.41800000000E+01 0. -1.
        -11    1    3    3    0    0  0.33254371322E+02  0.11538646430E+02  0.16978667776E+02  0.39080285732E+02  0.00000000000E+00 0. -1.
         11    1    3    3    0    0 -0.25121566077E+01 -0.31352866498E+02  0.15729187721E+03  0.16040588457E+03  0.00000000000E+00 0.  1.
</event>
<event>
 7    1  0.5831876E-006  0.3704330E+03  0.7561462E-02  0.1054528E+00
         -1   -1    0    0    0  501 -0.00000000000E+00  0.00000000000E+00  0.25492570412E+03  0.25492570412E+03  0.00000000000E+00 0.  1.
          1   -1    0    0  501    0  0.00000000000E+00 -0.00000000000E+00 -0.57711551435E+03  0.57711551435E+03  0.00000000000E+00 0. -1.
         23    2    1    2    0    0 -0.35466078895E+03  0.33293795059E+02 -0.60608569289E+02  0.37273131532E+03  0.91446611440E+02 0.  0.
          5    1    1    2  502    0  0.10071113207E+02  0.24626192371E+02 -0.10036240487E+02  0.28741523881E+02  0.41800000000E+01 0. -1.
         -5    1    1    2    0  502  0.34458967574E+03 -0.57919987430E+02 -0.25154500046E+03  0.43056837927E+03  0.41800000000E+01 0. -1.
        -11    1    3    3    0    0 -0.46597895461E+02 -0.21948787905E+02 -0.26430831462E+02  0.57893885719E+02  0.00000000000E+00 0. -1.
         11    1    3    3    0    0 -0.30806289349E+03  0.55242582964E+02 -0.34177737827E+02  0.31483742960E+03  0.00000000000E+00 0.  1.
</event>
<event>
 7    1  0.5831876E-006  0.6998244E+02  0.7561462E-02  0.1360153E+00
          1   -1    0    0  501    0  0.00000000000E+00  0.00000000000E+00  0.52402707824E+02  0.52402707824E+02  0.00000000000E+00 0. -1.
         -1   -1    0    0    0  501 -0.00000000000E+00 -0.00000000000E+00 -0.46127001483E+03  0.46127001483E+03  0.00000000000E+00 0.  1.
         23    2    1    2    0    0 -0.19114618964E+02  0.13754436876E+02 -0.37819926419E+03  0.38966063467E+03  0.90808444460E+02 0.  0.
          5    1    1    2  502    0  0.13203675275E+02  0.12788395784E+02 -0.71963234789E+02  0.74391260702E+02  0.41800000000E+01 0. -1.
         -5    1    1    2    0  502  0.59109436897E+01 -0.26542832660E+02  0.41295191969E+02  0.49620827287E+02  0.41800000000E+01 0.  1.
        -11    1    3    3    0    0  0.11803378843E+02  0.46848269387E+02 -0.20821801861E+03  0.21374944063E+03  0.00000000000E+00 0.  1.
         11    1    3    3    0    0 -0.30917997807E+02 -0.33093832512E+02 -0.16998124558E+03  0.17591119404E+03  0.00000000000E+00 0. -1.
</event>
<event>
 7    1  0.5831876E-006  0.9987476E+02  0.7561462E-02  0.1280560E+00
          3   -1    0    0  501    0  0.00000000000E+00  0.00000000000E+00  0.15292271501E+03  0.15292271501E+03  0.00000000000E+00 0. -1.
         -3   -1    0    0    0  501 -0.00000000000E+00 -0.00000000000E+00 -0.81081582375E+02  0.81081582375E+02  0.00000000000E+00 0.  1.
         23    2    1    2    0    0 -0.19503456301E+02  0.27583792938E+00  0.14773487532E+02  0.95133450437E+02  0.91932891633E+02 0.  0.
          5    1    1    2  502    0  0.32760518689E+02  0.46902034695E+02 -0.73411518471E+01  0.57830937687E+02  0.41800000000E+01 0. -1.
         -5    1    1    2    0  502 -0.13257062388E+02 -0.47177872624E+02  0.64408796950E+02  0.81039909261E+02  0.41800000000E+01 0. -1.
        -11    1    3    3    0    0  0.19086940463E+02  0.35916167224E+02  0.41115234769E+00  0.40674948194E+02  0.00000000000E+00 0.  1.
         11    1    3    3    0    0 -0.38590396764E+02 -0.35640329295E+02  0.14362335184E+02  0.54458502243E+02  0.00000000000E+00 0. -1.
</event>
<event>
 7    1  0.5831876E-006  0.1110427E+03  0.7561462E-02  0.1258651E+00
          1   -1    0    0  501    0  0.00000000000E+00  0.00000000000E+00  0.35449962252E+03  0.35449962252E+03  0.00000000000E+00 0. -1.
         -1   -1    0    0    0  501 -0.00000000000E+00 -0.00000000000E+00 -0.56104503002E+02  0.56104503002E+02  0.00000000000E+00 0.  1.
         23    2    1    2    0    0  0.31146565482E+02  0.42748093101E+02  0.25285406724E+02  0.10559212751E+03  0.87822762395E+02 0.  0.
          5    1    1    2  502    0 -0.72019969329E+02  0.13102973152E+01  0.11439898067E+03  0.13525232729E+03  0.41800000000E+01 0.  1.
         -5    1    1    2    0  502  0.40873403848E+02 -0.44058390416E+02  0.15871073213E+03  0.16975967072E+03  0.41800000000E+01 0.  1.
        -11    1    3    3    0    0  0.27551180973E+02 -0.15310314031E+02 -0.14927868447E+02  0.34875701357E+02  0.00000000000E+00 0.  1.
         11    1    3    3    0    0  0.35953845089E+01  0.58058407132E+02  0.40213275171E+02  0.70716426157E+02  0.00000000000E+00 0. -1.
</event>
<event>
 7    1  0.5831876E-006  0.1251990E+03  0.7561462E-02  0.1234759E+00
         -1   -1    0    0    0  501 -0.00000000000E+00  0.00000000000E+00  0.36669059555E+02  0.36669059555E+02  0.00000000000E+00 0.  1.
          1   -1    0    0  501    0  0.00000000000E+00 -0.00000000000E+00 -0.48010761202E+03  0.48010761202E+03  0.00000000000E+00 0. -1.
         23    2    1    2    0    0 -0.43619506515E+02  0.63342557653E+02 -0.21002570420E+03  0.24101592292E+03  0.89793862366E+02 0.  0.
          5    1    1    2  502    0  0.10896390311E+02  0.35557285403E+02 -0.97719836844E+02  0.10464077016E+03  0.41800000000E+01 0.  1.
         -5    1    1    2    0  502  0.32723116205E+02 -0.98899843056E+02 -0.13569301142E+03  0.17111997849E+03  0.41800000000E+01 0.  1.
        -11    1    3    3    0    0  0.11968130715E+02  0.50187338638E+02 -0.14779940649E+03  0.15654606246E+03  0.00000000000E+00 0. -1.
         11    1    3    3    0    0 -0.55587637230E+02  0.13155219014E+02 -0.62226297711E+02  0.84469860464E+02  0.00000000000E+00 0.  1.
</event>
<event>
 7    1  0.5831876E-006  0.8824764E+02  0.7561462E-02  0.1307152E+00
          1   -1    0    0  501    0  0.00000000000E+00  0.00000000000E+00  0.14178343005E+03  0.14178343005E+03  0.00000000000E+00 0. -1.
         -1   -1    0    0    0  501 -0.00000000000E+00 -0.00000000000E+00 -0.19548841335E+03  0.19548841335E+03  0.00000000000E+00 0.  1.
         23    2    1    2    0    0 -0.15844286491E+02 -0.33192192883E+01 -0.15018061480E+03  0.18448992161E+03  0.10592570738E+03 0.  0.
          5    1    1    2  502    0  0.28998186314E+02  0.35522527839E+02  0.10676059659E+03  0.11626711563E+03  0.41800000000E+01 0. -1.
         -5    1    1    2    0  502 -0.13153899822E+02 -0.32203308551E+02 -0.10284965093E+02  0.36514806163E+02  0.41800000000E+01 0.  1.
        -11    1    3    3    0    0 -0.24874281244E+02 -0.45726930475E+02 -0.12236297581E+03  0.13297511003E+03  0.00000000000E+00 0.  1.
         11    1    3    3    0    0  0.90299947524E+01  0.42407711186E+02 -0.27817638988E+02  0.51514811580E+02  0.00000000000E+00 0. -1.
</event>
<event>
 7    1  0.5831876E-006  0.1362913E+03  0.7561462E-02  0.1218408E+00
          4   -1    0    0  501    0  0.00000000000E+00  0.00000000000E+00  0.53656353119E+03  0.53656353119E+03  0.00000000000E+00 0. -1.
         -4   -1    0    0    0  501 -0.00000000000E+00 -0.00000000000E+00 -0.45961161822E+02  0.45961161822E+02  0.00000000000E+00 0.  1.
         23    2    1    2    0    0  0.75011362575E+02 -0.79746832065E+02  0.17456456807E+03  0.22543491306E+03  0.91443150971E+02 0.  0.
          5    1    1    2  502    0 -0.48467355191E+02 -0.17662243172E+02  0.47802349133E+02  0.70452653149E+02  0.41800000000E+01 0. -1.
         -5    1    1    2    0  502 -0.26544007384E+02  0.97409075237E+02  0.26823545216E+03  0.28663712680E+03  0.41800000000E+01 0. -1.
        -11    1    3    3    0    0  0.14777840988E+02  0.51826222399E+01 -0.61877633148E+01  0.16838425472E+02  0.00000000000E+00 0.  1.
         11    1    3    3    0    0  0.60233521587E+02 -0.84929454305E+02  0.18075233139E+03  0.20859648759E+03  0.00000000000E+00 0. -1.
</event>
<event>
 7    1  0.5831876E-006  0.1040275E+03  0.7561462E-02  0.1272048E+00
          2   -1    0    0  501    0  0.00000000000E+00  0.00000000000E+00  0.15715611584E+03  0.15715611584E+03  0.00000000000E+00 0. -1.
         -2   -1    0    0    0  501 -0.00000000000E+00 -0.00000000000E+00 -0.81573879182E+02  0.81573879182E+02  0.00000000000E+00 0.  1.
         23    2    1    2    0    0 -0.13002331200E+01  0.28625923702E+02  0.40062319015E+02  0.10557654137E+03  0.93382453213E+02 0.  0.
          5    1    1    2  502    0 -0.55957677036E+02 -0.21555018935E+02 -0.81699671074E+01  0.60663837853E+02  0.41800000000E+01 0.  1.
         -5    1    1    2    0  502  0.57257910156E+02 -0.70709047664E+01  0.43689884750E+02  0.72489615802E+02  0.41800000000E+01 0.  1.
        -11    1    3    3    0    0  0.32917310588E+02  0.41999052534E+02  0.43267545001E+02  0.68698982529E+02  0.00000000000E+00 0. -1.
         11    1    3    3    0    0 -0.34217543708E+02 -0.13373128832E+02 -0.32052259866E+01  0.36877558837E+02  0.00000000000E+00 0.  1.
</event>
<event>
 7    1  0.5831876E-006  0.1699883E+03  0.7561462E-02  0.1177860E+00
          2   -1    0    0  501    0  0.00000000000E+00  0.00000000000E+00  0.19725012330E+03  0.19725012330E+03  0.00000000000E+00 0.  1.
         -2   -1    0    0    0  501 -0.00000000000E+00 -0.00000000000E+00 -0.17800330431E+03  0.17800330431E+03  0.00000000000E+00 0. -1.
         23    2    1    2    0    0  0.43805294502E+02  0.13496123595E+03 -0.45927028045E+02  0.17518233696E+03  0.91902776034E+02 0.  0.
          5    1    1    2  502    0 -0.43568049930E+02  0.80276494137E+00  0.44952344843E+02  0.62745558513E+02  0.41800000000E+01 0.  1.
         -5    1    1    2    0  502 -0.23724457121E+00 -0.13576400090E+03  0.20221502187E+02  0.13732553213E+03  0.41800000000E+01 0.  1.
        -11    1    3    3    0    0  0.26313961834E+02  0.13977543082E+03 -0.20134903603E+02  0.14364891225E+03  0.00000000000E+00 0.  1.
         11    1    3    3    0    0  0.17491332668E+02 -0.48141948675E+01 -0.25792124442E+02  0.31533424710E+02  0.00000000000E+00 0. -1.
</event>
<event>
 7    1  0.5831876E-006  0.1021207E+03  0.7561462E-02  0.1275899E+00
          2   -1    0    0  501    0  0.00000000000E+00  0.00000000000E+00  0.95488249413E+02  0.95488249413E+02  0.00000000000E+00 0. -1.
         -2   -1    0    0    0  501 -0.00000000000E+00 -0.00000000000E+00 -0.12656426534E+03  0.12656426534E+03  0.00000000000E+00 0.  1.
         23    2    1    2    0    0 -0.15279956314E+02 -0.13334387224E+01  0.68874715131E+01  0.90432280257E+02  0.88855528387E+02 0.  0.
          5    1    1    2  502    0 -0.17001609999E+02  0.58049835510E+02 -0.18134060669E+02  0.63286291578E+02  0.41800000000E+01 0.  1.
         -5    1    1    2    0  502  0.32281566313E+02 -0.56716396788E+02 -0.19829426768E+02  0.68333942914E+02  0.41800000000E+01 0.  1.
        -11    1    3    3    0    0 -0.42743673372E+02 -0.17678935866E+02 -0.18296312637E+02  0.49742551631E+02  0.00000000000E+00 0.  1.
         11    1    3    3    0    0  0.27463717058E+02  0.16345497144E+02  0.25183784150E+02  0.40689728626E+02  0.00000000000E+00 0. -1.
</event>
<event>
 7    1  0.5831876E-006  0.9523928E+02  0.7561462E-02  0.1290638E+00
         -1   -1    0    0    0  501 -0.00000000000E+00  0.00000000000E+00  0.84190397546E+02  0.84190397546E+02  0.00000000000E+00 0.  1.
          1   -1    0    0  501    0  0.00000000000E+00 -0.00000000000E+00 -0.16647999693E+03  0.16647999693E+03  0.00000000000E+00 0. -1.
         23    2    1    2    0    0 -0.26546120143E+02  0.28626429371E+02 -0.43429513297E+01  0.98194242252E+02  0.89994883365E+02 0.  0.
          5    1    1    2  502    0 -0.29606747866E+02 -0.50572872466E+02 -0.68250097804E+01  0.59145820707E+02  0.41800000000E+01 0. -1.
         -5    1    1    2    0  502  0.56152868009E+02  0.21946443095E+02 -0.71121638276E+02  0.93330331518E+02  0.41800000000E+01 0. -1.
        -11    1    3    3    0    0 -0.38178198089E+02  0.39809725527E+02  0.28142165914E+02  0.61922294516E+02  0.00000000000E+00 0.  1.
         11    1    3    3    0    0  0.11632077946E+02 -0.11183296155E+02 -0.32485117243E+02  0.36271947736E+02  0.00000000000E+00 0. -1.
</event>
<event>
 7    1  0.5831876E-006  0.1276230E+03  0.7561462E-02  0.1231026E+00
         -2   -1    0    0    0  501 -0.00000000000E+00  0.00000000000E+00  0.17240134167E+03  0.17240134167E+03  0.00000000000E+00 0.  1.
          2   -1    0    0  501    0  0.00000000000E+00 -0.00000000000E+00 -0.19294166442E+03  0.19294166442E+03  0.00000000000E+00 0. -1.
         23    2    1    2    0    0 -0.81416688289E+02 -0.36381259829E+02  0.10500421394E+03  0.16694525310E+03  0.94300367925E+02 0.  0.
          5    1    1    2  502    0 -0.72923006955E+01  0.36083860841E+02  0.81113103558E+01  0.37927409855E+02  0.41800000000E+01 0.  1.
         -5    1    1    2    0  502  0.88708988985E+02  0.29739898792E+00 -0.13365584705E+03  0.16047034313E+03  0.41800000000E+01 0.  1.
        -11    1    3    3    0    0 -0.88207502611E+02  0.41373834029E+01  0.65450133418E+02  0.10991542850E+03  0.00000000000E+00 0. -1.
         11    1    3    3    0    0  0.67908143218E+01 -0.40518643232E+02  0.39554080519E+02  0.57029824602E+02  0.00000000000E+00 0.  1.
</event>
<event>
 7    1  0.5831876E-006  0.1199233E+03  0.7561462E-02  0.1243224E+00
         -2   -1    0    0    0  501 -0.00000000000E+00  0.00000000000E+00  0.36189037713E+02  0.36189037713E+02  0.00000000000E+00 0. -1.
          2   -1    0    0  501    0  0.00000000000E+00 -0.00000000000E+00 -0.51224651535E+03  0.51224651535E+03  0.00000000000E+00 0.  1.
         23    2    1    2    0    0  0.39483995745E+02 -0.78849374321E+02 -0.17164911803E+03  0.21294597734E+03  0.90035325252E+02 0.  0.
          5    1    1    2  502    0  0.29661432276E+02  0.89890624678E+01 -0.14365864184E+03  0.14702340489E+03  0.41800000000E+01 0. -1.
         -5    1    1    2    0  502 -0.69145428022E+02  0.69860311853E+02 -0.16074971775E+03  0.18846617083E+03  0.41800000000E+01 0.  1.
        -11    1    3    3    0    0 -0.17954784667E+02 -0.10087133681E+02 -0.87976942233E+02  0.90355226318E+02  0.00000000000E+00 0.  1.
         11    1    3    3    0    0  0.57438780412E+02 -0.68762240640E+02 -0.83672175801E+02  0.12259075102E+03  0.00000000000E+00 0. -1.
</event>
<event>
 7    1  0.5831876E-006  0.1535530E+03  0.7561462E-02  0.1196174E+00
         -1   -1    0    0    0  501 -0.00000000000E+00  0.00000000000E+00  0.26818154417E+02  0.26818154417E+02  0.00000000000E+00 0. -1.
          1   -1    0    0  501    0  0.00000000000E+00 -0.00000000000E+00 -0.13210951802E+04  0.13210951802E+04  0.00000000000E+00 0.  1.
         23    2    1    2    0    0  0.58680736156E+02  0.13996061400E+03 -0.52780530362E+03  0.55661141100E+03  0.90583784745E+02 0.  0.
          5    1    1    2  502    0 -0.10010337118E+02 -0.51963369592E+02 -0.71345663584E+02  0.88927356538E+02  0.41800000000E+01 0.  1.
         -5    1    1    2    0  502 -0.48670399038E+02 -0.87997244403E+02 -0.69512605856E+03  0.70237456707E+03  0.41800000000E+01 0.  1.
        -11    1    3    3    0    0  0.56816972812E+02  0.11425564632E+03 -0.50888561185E+03  0.52463995946E+03  0.00000000000E+00 0.  1.
         11    1    3    3    0    0  0.18637633446E+01  0.25704967671E+02 -0.18919691774E+02  0.31971451540E+02  0.00000000000E+00 0. -1.
</event>
<event>
 7    1  0.5831876E-006  0.8279978E+02  0.7561462E-02  0.1321289E+00
          1   -1    0    0  501    0  0.00000000000E+00  0.00000000000E+00  0.82042211863E+02  0.82042211863E+02  0.00000000000E+00 0. -1.
         -1   -1    0    0    0  501 -0.00000000000E+00 -0.00000000000E+00 -0.22952425038E+03  0.22952425038E+03  0.00000000000E+00 0.  1.
         23    2    1    2    0    0 -0.93279080357E+01  0.14829271816E+02 -0.16060192390E+03  0.18457913206E+03  0.89272396957E+02 0.  0.
          5    1    1    2  502    0 -0.43911635386E+02  0.14323768369E+02 -0.27418825035E+02  0.53876399554E+02  0.41800000000E+01 0. -1.
         -5    1    1    2    0  502  0.53239543422E+02 -0.29153040186E+02  0.40538710419E+02  0.73110930635E+02  0.41800000000E+01 0. -1.
        -11    1    3    3    0    0 -0.18645725684E+02 -0.16989080073E+02 -0.14632142035E+03  0.14847979655E+03  0.00000000000E+00 0.  1.
         11    1    3    3    0    0  0.93178176484E+01  0.31818351890E+02 -0.14280503550E+02  0.36099335511E+02  0.00000000000E+00 0. -1.
</event>
<event>
 7    1  0.5831876E-006  0.1117961E+03  0.7561462E-02  0.1257279E+00
          2   -1    0    0  501    0  0.00000000000E+00  0.00000000000E+00  0.26192734535E+03  0.26192734535E+03  0.00000000000E+00 0. -1.
         -2   -1    0    0    0  501 -0.00000000000E+00 -0.00000000000E+00 -0.78947657459E+02  0.78947657459E+02  0.00000000000E+00 0.  1.
         23    2    1    2    0    0  0.64169112476E+01  0.84929727706E+02  0.12833873333E+03  0.17997873485E+03  0.93098223007E+02 0.  0.
          5    1    1    2  502    0 -0.45544523972E+02 -0.30906245830E+02  0.73060951816E+02  0.91568961856E+02  0.41800000000E+01 0.  1.
         -5    1    1    2    0  502  0.39127612725E+02 -0.54023481876E+02 -0.18419997262E+02  0.69327306097E+02  0.41800000000E+01 0.  1.
        -11    1    3    3    0    0 -0.97973402354E+01  0.84778192622E+02  0.13714223299E+03  0.16152808391E+03  0.00000000000E+00 0. -1.
         11    1    3    3    0    0  0.16214251483E+02  0.15153508376E+00 -0.88034996603E+01  0.18450650945E+02  0.00000000000E+00 0.  1.
</event>
<event>
 7    1  0.5831876E-006  0.2163780E+03  0.7561462E-02  0.1136613E+00
         -2   -1    0    0    0  501 -0.00000000000E+00  0.00000000000E+00  0.34330752986E+02  0.34330752986E+02  0.00000000000E+00 0. -1.
          2   -1    0    0  501    0  0.00000000000E+00 -0.00000000000E+00 -0.15903608825E+04  0.15903608825E+04  0.00000000000E+00 0.  1.
         23    2    1    2    0    0  0.15514722119E+02  0.19405858429E+03 -0.51243420031E+03  0.55574804635E+03  0.91474808752E+02 0.  0.
          5    1    1    2  502    0 -0.56115758672E+02 -0.83275916035E+02 -0.30937279638E+03  0.32528888100E+03  0.41800000000E+01 0.  1.
         -5    1    1    2    0  502  0.40601036553E+02 -0.11078266826E+03 -0.73422313286E+03  0.74365470817E+03  0.41800000000E+01 0.  1.
        -11    1    3    3    0    0 -0.34578161438E+02  0.11921214680E+03 -0.32182404910E+03  0.34493173784E+03  0.00000000000E+00 0. -1.
         11    1    3    3    0    0  0.50092883557E+02  0.74846437489E+02 -0.19061015121E+03  0.21081630851E+03  0.00000000000E+00 0.  1.
</event>
<event>
 7    1  0.5831876E-006  0.1060648E+03  0.7561462E-02  0.1268036E+00
         -1   -1    0    0    0  501 -0.00000000000E+00  0.00000000000E+00  0.89147221022E+02  0.89147221022E+02  0.00000000000E+00 0.  1.
          1   -1    0    0  501    0  0.00000000000E+00 -0.00000000000E+00 -0.17609575021E+03  0.17609575021E+03  0.00000000000E+00 0. -1.
         23    2    1    2    0    0 -0.29020418755E+02  0.80625009956E+01  0.16260602342E+02  0.10028869391E+03  0.94266782643E+02 0.  0.
          5    1    1    2  502    0  0.54286288409E+02  0.36380555112E+02 -0.22338167434E+02  0.69188236166E+02  0.41800000000E+01 0.  1.
         -5    1    1    2    0  502 -0.25265869653E+02 -0.44443056107E+02 -0.80870964098E+02  0.95766041160E+02  0.41800000000E+01 0.  1.
        -11    1    3    3    0    0 -0.34415535339E+02  0.45767952363E+02 -0.35150486223E+01  0.57371509506E+02  0.00000000000E+00 0. -1.
         11    1    3    3    0    0  0.53951165832E+01 -0.37705451368E+02  0.19775650964E+02  0.42917184401E+02  0.00000000000E+00 0.  1.
</event>
<event>
 7    1  0.5831876E-006  0.2142800E+03  0.7561462E-02  0.1138221E+00
          1   -1    0    0  501    0  0.00000000000E+00  0.00000000000E+00  0.16782332082E+04  0.16782332082E+04  0.00000000000E+00 0. -1.
         -1   -1    0    0    0  501 -0.00000000000E+00 -0.00000000000E+00 -0.55128610452E+02  0.55128610452E+02  0.00000000000E+00 0.  1.
         23    2    1    2    0    0 -0.26584833289E+02  0.42994102438E+02  0.33077342496E+02  0.99194323016E+02  0.78677550335E+02 0.  0.
          5    1    1    2  502    0 -0.10358232686E+03 -0.15687266935E+03  0.10621293308E+04  0.10786447611E+04  0.41800000000E+01 0. -1.
         -5    1    1    2    0  502  0.13016716014E+03  0.11387856692E+03  0.52789792442E+03  0.55552273454E+03  0.41800000000E+01 0.  1.
        -11    1    3    3    0    0  0.10257714674E+02 -0.81031396060E+00  0.40217176719E+02  0.41512632081E+02  0.00000000000E+00 0. -1.
         11    1    3    3    0    0 -0.36842547963E+02  0.43804416398E+02 -0.71398342236E+01  0.57681690935E+02  0.00000000000E+00 0.  1.
</event>
<event>
 7    1  0.5831876E-006  0.1037588E+03  0.7561462E-02  0.1272585E+00
          1   -1    0    0  501    0  0.00000000000E+00  0.00000000000E+00  0.16453817389E+04  0.16453817389E+04  0.00000000000E+00 0. -1.
         -1   -1    0    0    0  501 -0.00000000000E+00 -0.00000000000E+00 -0.24655886221E+02  0.24655886221E+02  0.00000000000E+00 0.  1.
         23    2    1    2    0    0  0.21012261436E+02  0.10415725253E+00  0.73242283006E+02  0.11813931244E+03  0.90282551717E+02 0.  0.
          5    1    1    2  502    0 -0.24768540477E+02 -0.54694613640E+02  0.66882836609E+03  0.67153096507E+03  0.41800000000E+01 0. -1.
         -5    1    1    2    0  502  0.37562790408E+01  0.54590456388E+02  0.87865520362E+03  0.88036734765E+03  0.41800000000E+01 0.  1.
        -11    1    3    3    0    0 -0.28818878518E+02  0.23703753478E+02  0.33799992823E+02  0.50347146919E+02  0.00000000000E+00 0. -1.
         11    1    3    3    0    0  0.49831139954E+02 -0.23599596226E+02  0.39442290184E+02  0.67792165521E+02  0.00000000000E+00 0.  1.
</event>
<event>
 7    1  0.5831876E-006  0.1212597E+03  0.7561462E-02  0.1241033E+00
         -2   -1    0    0    0  501 -0.00000000000E+00  0.00000000000E+00  0.47712631164E+02  0.47712631164E+02  0.00000000000E+00 0.  1.
          2   -1    0    0  501    0  0.00000000000E+00 -0.00000000000E+00 -0.26391141182E+04  0.26391141182E+04  0.00000000000E+00 0. -1.
         23    2    1    2    0    0 -0.30194392578E+02 -0.98138280023E+02 -0.70467748971E+02  0.15369609437E+03  0.90077535664E+02 0.  0.
          5    1    1    2  502    0  0.38005989572E+01  0.82267898520E+02 -0.24817391555E+04  0.24831087692E+04  0.41800000000E+01 0. -1.
         -5    1    1    2    0  502  0.26393793620E+02  0.15870381503E+02 -0.39194582658E+02  0.50021885815E+02  0.41800000000E+01 0.  1.
        -11    1    3    3    0    0 -0.52009850720E+02 -0.93015404859E+02 -0.35809187762E+02  0.11242414350E+03  0.00000000000E+00 0.  1.
         11    1    3    3    0    0  0.21815458142E+02 -0.51228751640E+01 -0.34658561209E+02  0.41271950875E+02  0.00000000000E+00 0. -1.
</event>
<event>
 7    1  0.5831876E-006  0.1209585E+03  0.7561462E-02  0.1241524E+00
          1   -1    0    0  501    0  0.00000000000E+00  0.00000000000E+00  0.15873769790E+03  0.15873769790E+03  0.00000000000E+00 0. -1.
         -1   -1    0    0    0  501 -0.00000000000E+00 -0.00000000000E+00 -0.15304323254E+03  0.15304323254E+03  0.00000000000E+00 0.  1.
         23    2    1    2    0    0 -0.83664068365E+02 -0.40887082232E+02 -0.58411279160E+02  0.14317406083E+03  0.91736057977E+02 0.  0.
          5    1    1    2  502    0 -0.77690998126E+01  0.19692789423E+02  0.71191101211E+02  0.74389583671E+02  0.41800000000E+01 0.  1.
         -5    1    1    2    0  502  0.91433168178E+02  0.21194292808E+02 -0.70853566922E+01  0.94217285941E+02  0.41800000000E+01 0.  1.
        -11    1    3    3    0    0 -0.40825925935E+02 -0.65351932245E+02 -0.53049847298E+02  0.93551683977E+02  0.00000000000E+00 0.  1.
         11    1    3    3    0    0 -0.42838142430E+02  0.24464850014E+02 -0.53614318613E+01  0.49622376854E+02  0.00000000000E+00 0. -1.
</event>
<event>
 7    1  0.5831876E-006  0.1151837E+03  0.7561462E-02  0.1251261E+00
          2   -1    0    0  501    0  0.00000000000E+00  0.00000000000E+00  0.13946014371E+04  0.13946014371E+04  0.00000000000E+00 0. -1.
         -2   -1    0    0    0  501 -0.00000000000E+00 -0.00000000000E+00 -0.10361605144E+02  0.10361605144E+02  0.00000000000E+00 0.  1.
         23    2    1    2    0    0  0.41151778186E+02  0.11862156252E+02  0.44364400822E+03  0.45511960595E+03  0.92085124143E+02 0.  0.
          5    1    1    2  502    0 -0.67839096966E+02  0.36133473967E+02  0.57177064287E+03  0.57692886170E+03  0.41800000000E+01 0. -1.
         -5    1    1    2    0  502  0.26687318780E+02 -0.47995630220E+02  0.36882518089E+03  0.37291457462E+03  0.41800000000E+01 0. -1.
        -11    1    3    3    0    0  0.37833282168E+02 -0.34879095767E+02  0.17458050424E+03  0.18200621149E+03  0.00000000000E+00 0.  1.
         11    1    3    3    0    0  0.33184960177E+01  0.46741252019E+02  0.26906350399E+03  0.27311339446E+03  0.00000000000E+00 0. -1.
</event>
<event>
 7    1  0.5831876E-006  0.1065903E+03  0.7561462E-02  0.1267018E+00
         -1   -1    0    0    0  501 -0.00000000000E+00  0.00000000000E+00  0.86591286555E+02  0.86591286555E+02  0.00000000000E+00 0.  1.
          1   -1    0    0  501    0  0.00000000000E+00 -0.00000000000E+00 -0.15901352963E+03  0.15901352963E+03  0.00000000000E+00 0. -1.
         23    2    1    2    0    0 -0.39290159688E+02  0.14791739064E+02 -0.14380376272E+02  0.10145548820E+03  0.91235457318E+02 0.  0.
          5    1    1    2  502    0  0.91539675253E+01  0.54716303726E+02 -0.18782141688E+02  0.58718908890E+02  0.41800000000E+01 0.  1.
         -5    1    1    2    0  502  0.30136192162E+02 -0.69508042790E+02 -0.39259725117E+02  0.85430419095E+02  0.41800000000E+01 0.  1.
        -11    1    3    3    0    0 -0.55114332718E+02 -0.61138080406E+01 -0.37135908694E+02  0.66738624755E+02  0.00000000000E+00 0. -1.
         11    1    3    3    0    0  0.15824173030E+02  0.20905547105E+02  0.22755532422E+02  0.34716863448E+02  0.00000000000E+00 0.  1.
</event>
<event>
 7    1  0.1099922E-005  0.1082857E+03  0.7561462E-02  0.1263778E+00
          1   -1    0    0  501    0  0.00000000000E+00  0.00000000000E+00  0.27623711481E+03  0.27623711481E+03  0.00000000000E+00 0. -1.
         -1   -1    0    0    0  501 -0.00000000000E+00 -0.00000000000E+00 -0.80527563173E+02  0.80527563173E+02  0.00000000000E+00 0.  1.
         23    2    1    2    0    0  0.23170579825E+02  0.10180504134E+03  0.53725779690E+02  0.14064423287E+03  0.77415751785E+02 0.  0.
          5    1    1    2  502    0 -0.31458619815E+02 -0.92603375945E+02  0.28595575006E+02  0.10198141648E+03  0.41800000000E+01 0.  1.
         -5    1    1    2    0  502  0.82880399904E+01 -0.92016653907E+01  0.11338819694E+03  0.11413902864E+03  0.41800000000E+01 0.  1.
        -11    1    3    3    0    0  0.12506269358E-01  0.33247782642E+02  0.59386677517E+02  0.68060213587E+02  0.00000000000E+00 0. -1.
         11    1    3    3    0    0  0.23158073555E+02  0.68557258694E+02 -0.56608978271E+01  0.72584019279E+02  0.00000000000E+00 0.  1.
</event>
<event>
 7    1  0.5831876E-006  0.1746238E+03  0.7561462E-02  0.1173110E+00
          3   -1    0    0  501    0  0.00000000000E+00  0.00000000000E+00  0.13166514146E+03  0.13166514146E+03  0.00000000000E+00 0. -1.
         -3   -1    0    0    0  501 -0.00000000000E+00 -0.00000000000E+00 -0.27071124414E+03  0.27071124414E+03  0.00000000000E+00 0.  1.
         23    2    1    2    0    0  0.13115632292E+03 -0.64360104662E+02 -0.11539507719E+03  0.20859677418E+03  0.94087120513E+02 0.  0.
          5    1    1    2  502    0  0.17094235229E+02  0.65719553389E+01  0.21284068476E+02  0.28388156790E+02  0.41800000000E+01 0.  1.
         -5    1    1    2    0  502 -0.14825055815E+03  0.57788149323E+02 -0.44935093973E+02  0.16539145463E+03  0.41800000000E+01 0.  1.
        -11    1    3    3    0    0  0.92422781589E+02  0.42318055464E+01 -0.44696150014E+02  0.10275030200E+03  0.00000000000E+00 0. -1.
         11    1    3    3    0    0  0.38733541329E+02 -0.68591910209E+02 -0.70698927176E+02  0.10584647218E+03  0.00000000000E+00 0.  1.
</event>
<event>
 7    1  0.5831876E-006  0.1128692E+03  0.7561462E-02  0.1255347E+00
         -3   -1    0    0    0  501 -0.00000000000E+00  0.00000000000E+00  0.12082352237E+03  0.12082352237E+03  0.00000000000E+00 0.  1.
          3   -1    0    0  501    0  0.00000000000E+00 -0.00000000000E+00 -0.12781343307E+03  0.12781343307E+03  0.00000000000E+00 0. -1.
         23    2    1    2    0    0  0.15749955993E+01  0.48516803804E+02  0.15827264647E+02  0.11253205958E+03  0.10028260700E+03 0.  0.
          5    1    1    2  502    0 -0.23178042866E+01 -0.88068343662E+02 -0.34407791495E+02  0.94671927665E+02  0.41800000000E+01 0. -1.
         -5    1    1    2    0  502  0.74280868732E+00  0.39551539858E+02  0.11590616151E+02  0.41432968186E+02  0.41800000000E+01 0. -1.
        -11    1    3    3    0    0 -0.25917282675E+02  0.61957466797E+02  0.35685193752E+02  0.76051734275E+02  0.00000000000E+00 0.  1.
         11    1    3    3    0    0  0.27492278274E+02 -0.13440662993E+02 -0.19857929105E+02  0.36480325310E+02  0.00000000000E+00 0. -1.
</event>
<event>
 7    1  0.5831876E-006  0.1327293E+03  0.7561462E-02  0.1223461E+00
          2   -1    0    0  501    0  0.00000000000E+00  0.00000000000E+00  0.11786854864E+04  0.11786854864E+04  0.00000000000E+00 0.  1.
         -2   -1    0    0    0  501 -0.00000000000E+00 -0.00000000000E+00 -0.18790681288E+02  0.18790681288E+02  0.00000000000E+00 0. -1.
         23    2    1    2    0    0  0.89128721965E+02 -0.16944715787E+02  0.35519543193E+03  0.37807413172E+03  0.92440260368E+02 0.  0.
          5    1    1    2  502    0 -0.82832199258E+02 -0.42176020100E+02  0.55056872380E+03  0.55837566381E+03  0.41800000000E+01 0. -1.
         -5    1    1    2    0  502 -0.62965227076E+01  0.59120735886E+02  0.25413064936E+03  0.26102637214E+03  0.41800000000E+01 0. -1.
        -11    1    3    3    0    0  0.74913536743E+02  0.16289958063E+02  0.31420328986E+03  0.32342094564E+03  0.00000000000E+00 0.  1.
         11    1    3    3    0    0  0.14215185223E+02 -0.33234673849E+02  0.40992142077E+02  0.54653186081E+02  0.00000000000E+00 0. -1.
</event>
<event>
 7    1  0.5831876E-006  0.1512359E+03  0.7561462E-02  0.1198963E+00
         -2   -1    0    0    0  501 -0.00000000000E+00  0.00000000000E+00  0.55778486194E+03  0.55778486194E+03  0.00000000000E+00 0.  1.
          2   -1    0    0  501    0  0.00000000000E+00 -0.00000000000E+00 -0.48752039517E+02  0.48752039517E+02  0.00000000000E+00 0. -1.
         23    2    1    2    0    0 -0.20777745830E+02 -0.12141559106E+03  0.21834565819E+03  0.26694956601E+03  0.91726680224E+02 0.  0.
          5    1    1    2  502    0 -0.12512516609E+02 -0.23190120016E+02  0.53344072529E+02  0.59644003993E+02  0.41800000000E+01 0. -1.
         -5    1    1    2    0  502  0.33290262439E+02  0.14460571108E+03  0.23734309170E+03  0.27994333146E+03  0.41800000000E+01 0. -1.
        -11    1    3    3    0    0  0.51221251119E+01 -0.65746267649E+02  0.18643198376E+03  0.19775159277E+03  0.00000000000E+00 0.  1.
         11    1    3    3    0    0 -0.25899870942E+02 -0.55669323413E+02  0.31913674436E+02  0.69197973237E+02  0.00000000000E+00 0. -1.
</event>
<event>
 7    1  0.5831876E-006  0.1040972E+03  0.7561462E-02  0.1271909E+00
          1   -1    0    0  501    0  0.00000000000E+00  0.00000000000E+00  0.76194644024E+03  0.76194644024E+03  0.00000000000E+00 0. -1.
         -1   -1    0    0    0  501 -0.00000000000E+00 -0.00000000000E+00 -0.18697027792E+02  0.18697027792E+02  0.00000000000E+00 0.  1.
         23    2    1    2    0    0  0.27609949992E+02  0.44503336697E+02  0.32156745344E+03  0.33769136335E+03  0.88808633905E+02 0.  0.
          5    1    1    2  502    0 -0.20926963540E+02  0.26436637942E+02  0.31617399229E+02  0.46410838850E+02  0.41800000000E+01 0. -1.
         -5    1    1    2    0  502 -0.66829864518E+01 -0.70939974640E+02  0.39006455978E+03  0.39654126583E+03  0.41800000000E+01 0. -1.
        -11    1    3    3    0    0  0.58194651939E+02  0.42747384337E+02  0.23638256493E+03  0.24716527544E+03  0.00000000000E+00 0.  1.
         11    1    3    3    0    0 -0.30584701948E+02  0.17559523605E+01  0.85184888509E+02  0.90526087910E+02  0.00000000000E+00 0. -1.
</event>
<event>
 7    1  0.5831876E-006  0.1304227E+03  0.7561462E-02  0.1226830E+00
          2   -1    0    0  501    0  0.00000000000E+00  0.00000000000E+00  0.43859001361E+03  0.43859001361E+03  0.00000000000E+00 0. -1.
         -2   -1    0    0    0  501 -0.00000000000E+00 -0.00000000000E+00 -0.63375675210E+02  0.63375675210E+02  0.00000000000E+00 0.  1.
         23    2    1    2    0    0  0.75993486736E+02 -0.64108345181E+02  0.47210791782E+02  0.14093799415E+03  0.88032774493E+02 0.  0.
          5    1    1    2  502    0 -0.75131233515E+02  0.82115249032E+02  0.17860339943E+03  0.21048577876E+03  0.41800000000E+01 0. -1.
         -5    1    1    2    0  502 -0.86225322150E+00 -0.18006903851E+02  0.14940014719E+03  0.15054191592E+03  0.41800000000E+01 0.  1.
        -11    1    3    3    0    0 -0.86520668811E+01  0.13558107628E+02  0.14085581603E+02  0.21379526488E+02  0.00000000000E+00 0. -1.
         11    1    3    3    0    0  0.84645553618E+02 -0.77666452809E+02  0.33125210180E+02  0.11955846766E+03  0.00000000000E+00 0.  1.
</event>
<event>
 7    1  0.5831876E-006  0.1001566E+03  0.7561462E-02  0.1279967E+00
          1   -1    0    0  501    0  0.00000000000E+00  0.00000000000E+00  0.55944610172E+03  0.55944610172E+03  0.00000000000E+00 0. -1.
         -1   -1    0    0    0  501 -0.00000000000E+00 -0.00000000000E+00 -0.28020598394E+02  0.28020598394E+02  0.00000000000E+00 0.  1.
         23    2    1    2    0    0  0.49699382168E+02  0.11841553179E+02  0.14077184115E+03  0.17410568767E+03  0.88802186052E+02 0.  0.
          5    1    1    2  502    0 -0.52726941084E+02 -0.53486628148E+02  0.13730179980E+03  0.15655735797E+03  0.41800000000E+01 0.  1.
         -5    1    1    2    0  502  0.30275589167E+01  0.41645074969E+02  0.25335186237E+03  0.25680365447E+03  0.41800000000E+01 0.  1.
        -11    1    3    3    0    0  0.64003642833E+02 -0.84239757301E+00  0.49672141081E+02  0.81021586809E+02  0.00000000000E+00 0.  1.
         11    1    3    3    0    0 -0.14304260665E+02  0.12683950752E+02  0.91099700068E+02  0.93084100857E+02  0.00000000000E+00 0. -1.
</event>
<event>
 7    1  0.5831876E-006  0.1542828E+03  0.7561462E-02  0.1195307E+00
          1   -1    0    0  501    0  0.00000000000E+00  0.00000000000E+00  0.38718005936E+03  0.38718005936E+03  0.00000000000E+00 0. -1.
         -1   -1    0    0    0  501 -0.00000000000E+00 -0.00000000000E+00 -0.62696166293E+02  0.62696166293E+02  0.00000000000E+00 0.  1.
         23    2    1    2    0    0  0.10038863415E+03 -0.26557247486E+02  0.13271505858E+03  0.19297750584E+03  0.94041829652E+02 0.  0.
          5    1    1    2  502    0  0.30703564561E+02 -0.95620712506E+01  0.55924628779E+02  0.64646566711E+02  0.41800000000E+01 0. -1.
         -5    1    1    2    0  502 -0.13109219871E+03  0.36119318737E+02  0.13584420570E+03  0.19225215310E+03  0.41800000000E+01 0.  1.
        -11    1    3    3    0    0  0.83889573677E+02 -0.59774092517E+02  0.97887396892E+02  0.14209977191E+03  0.00000000000E+00 0. -1.
         11    1    3    3    0    0  0.16499060474E+02  0.33216845031E+02  0.34827661688E+02  0.50877733921E+02  0.00000000000E+00 0.  1.
</event>
<event>
 6    1  0.5831876E-006  0.1611213E+03  0.7561462E-02  0.1187437E+00
         -1   -1    0    0    0  501 -0.00000000000E+00  0.00000000000E+00  0.66249940058E+02  0.66249940058E+02  0.00000000000E+00 0.  1.
          1   -1    0    0  501    0  0.00000000000E+00 -0.00000000000E+00 -0.56973194033E+03  0.56973194033E+03  0.00000000000E+00 0. -1.
          5    1    1    2  502    0  0.77760570776E+02  0.58748364995E+02 -0.26876904138E+03  0.28592367297E+03  0.41800000000E+01 0.  1.
         -5    1    1    2    0  502 -0.25026990301E+02  0.64853621646E+02 -0.66343854359E+02  0.96183792270E+02  0.41800000000E+01 0.  1.
        -11    1    1    2    0    0 -0.27303957738E+02  0.15470731745E+01 -0.11020255712E+03  0.11354515904E+03  0.00000000000E+00 0. -1.
         11    1    1    2    0    0 -0.25429622737E+02 -0.12514905982E+03 -0.58166547410E+02  0.14032925612E+03  0.00000000000E+00 0.  1.
</event>
<event>
 7    1  0.5831876E-006  0.1702861E+03  0.7561462E-02  0.1177550E+00
          1   -1    0    0  501    0  0.00000000000E+00  0.00000000000E+00  0.41495077608E+04  0.41495077608E+04  0.00000000000E+00 0. -1.
         -1   -1    0    0    0  501 -0.00000000000E+00 -0.00000000000E+00 -0.16199161968E+02  0.16199161968E+02  0.00000000000E+00 0.  1.
         23    2    1    2    0    0 -0.10651264892E+03  0.87427425404E+02  0.48035729219E+03  0.50801782757E+03  0.91380992972E+02 0.  0.
          5    1    1    2  502    0 -0.22033749752E+02 -0.20138529053E+02  0.12462951832E+04  0.12466596177E+04  0.41800000000E+01 0. -1.
         -5    1    1    2    0  502  0.12854639867E+03 -0.67288896351E+02  0.24066561235E+04  0.24110294775E+04  0.41800000000E+01 0. -1.
        -11    1    3    3    0    0  0.62326745694E+01  0.44028971848E+02  0.12288746047E+03  0.13068559421E+03  0.00000000000E+00 0. -1.
         11    1    3    3    0    0 -0.11274532349E+03  0.43398453556E+02  0.35746983172E+03  0.37733223336E+03  0.00000000000E+00 0.  1.
</event>
<event>
 7    1  0.5831876E-006  0.1033468E+03  0.7561462E-02  0.1273411E+00
          2   -1    0    0  501    0  0.00000000000E+00  0.00000000000E+00  0.10811782985E+04  0.10811782985E+04  0.00000000000E+00 0. -1.
         -2   -1    0    0    0  501 -0.00000000000E+00 -0.00000000000E+00 -0.15871089487E+02  0.15871089487E+02  0.00000000000E+00 0.  1.
         23    2    1    2    0    0  0.27461915795E+02  0.22066146639E+02  0.19512122942E+03  0.21721316608E+03  0.88702839311E+02 0.  0.
          5    1    1    2  502    0 -0.42713890249E+02 -0.64072372581E+02  0.38962331104E+03  0.39718200142E+03  0.41800000000E+01 0. -1.
         -5    1    1    2    0  502  0.15251974454E+02  0.42006225942E+02  0.48056266854E+03  0.48265422047E+03  0.41800000000E+01 0. -1.
        -11    1    3    3    0    0  0.23279365839E+02  0.50681137995E+02  0.73862326948E+02  0.92553497851E+02  0.00000000000E+00 0.  1.
         11    1    3    3    0    0  0.41825499559E+01 -0.28614991356E+02  0.12125890247E+03  0.12465966823E+03  0.00000000000E+00 0. -1.
</event>
<event>
 7    1  0.5831876E-006  0.1225802E+03  0.7561462E-02  0.1238900E+00
         -2   -1    0    0    0  501 -0.00000000000E+00  0.00000000000E+00  0.13075046798E+03  0.13075046798E+03  0.00000000000E+00 0.  1.
          2   -1    0    0  501    0  0.00000000000E+00 -0.00000000000E+00 -0.14968287626E+03  0.14968287626E+03  0.00000000000E+00 0. -1.
         23    2    1    2    0    0 -0.38081974112E+02 -0.75164820156E+02  0.15421747514E+02  0.12573677052E+03  0.92043023763E+02 0.  0.
          5    1    1    2  502    0  0.78087424034E+02  0.47596646315E+02 -0.48929533098E+02  0.10380105077E+03  0.41800000000E+01 0.  1.
         -5    1    1    2    0  502 -0.40005449922E+02  0.27568173841E+02  0.14575377308E+02  0.50895522947E+02  0.41800000000E+01 0.  1.
        -11    1    3    3    0    0 -0.55481818933E+02 -0.53622601777E+02  0.41574693765E+02  0.87647423322E+02  0.00000000000E+00 0.  1.
         11    1    3    3    0    0  0.17399844821E+02 -0.21542218379E+02 -0.26152946251E+02  0.38089347199E+02  0.00000000000E+00 0. -1.
</event>
<event>
 7    1  0.5831876E-006  0.1074473E+03  0.7561462E-02  0.1265372E+00
         -1   -1    0    0    0  501 -0.00000000000E+00  0.00000000000E+00  0.65238874914E+02  0.65238874914E+02  0.00000000000E+00 0.  1.
          1   -1    0    0  501    0  0.00000000000E+00 -0.00000000000E+00 -0.18441471937E+03  0.18441471937E+03  0.00000000000E+00 0. -1.
         23    2    1    2    0    0  0.71772345613E+01  0.46015314895E+01 -0.29456234857E+02  0.95487825848E+02  0.90429908355E+02 0.  0.
          5    1    1    2  502    0  0.42252983277E+02 -0.43687589248E+02 -0.55110382421E+02  0.82149538652E+02  0.41800000000E+01 0.  1.
         -5    1    1    2    0  502 -0.49430217838E+02  0.39086057759E+02 -0.34609227180E+02  0.72016229786E+02  0.41800000000E+01 0.  1.
        -11    1    3    3    0    0 -0.15016741777E+02  0.43508128021E+02 -0.15720097679E+02  0.48637240964E+02  0.00000000000E+00 0.  1.
         11    1    3    3    0    0  0.22193976338E+02 -0.38906596532E+02 -0.13736137178E+02  0.46850584884E+02  0.00000000000E+00 0. -1.
</event>
<event>
 7    1  0.5831876E-006  0.1684706E+03  0.7561462E-02  0.1179452E+00
         -2   -1    0    0    0  501 -0.00000000000E+00  0.00000000000E+00  0.51034721508E+03  0.51034721508E+03  0.00000000000E+00 0.  1.
          2   -1    0    0  501    0  0.00000000000E+00 -0.00000000000E+00 -0.73948551322E+02  0.73948551322E+02  0.00000000000E+00 0. -1.
         23    2    1    2    0    0 -0.11939299718E+03 -0.10270999794E+03  0.25374098971E+03  0.31260521161E+03  0.92376929021E+02 0.  0.
          5    1    1    2  502    0  0.67333328027E+02  0.24003709230E+02  0.66197472024E+01  0.71911393902E+02  0.41800000000E+01 0. -1.
         -5    1    1    2    0  502  0.52059669157E+02  0.78706288714E+02  0.17603792685E+03  0.19977916089E+03  0.41800000000E+01 0. -1.
        -11    1    3    3    0    0 -0.65876279544E+02 -0.96723739053E+02  0.11628343964E+03  0.16497576863E+03  0.00000000000E+00 0. -1.
         11    1    3    3    0    0 -0.53516717639E+02 -0.59862588916E+01  0.13745755007E+03  0.14762944298E+03  0.00000000000E+00 0.  1.
</event>
<event>
 7    1  0.5831876E-006  0.1386977E+03  0.7561462E-02  0.1215092E+00
         -3   -1    0    0    0  501 -0.00000000000E+00  0.00000000000E+00  0.10836740877E+03  0.10836740877E+03  0.00000000000E+00 0.  1.
          3   -1    0    0  501    0  0.00000000000E+00 -0.00000000000E+00 -0.26354884890E+03  0.26354884890E+03  0.00000000000E+00 0. -1.
         23    2    1    2    0    0 -0.94036082408E+02  0.60033296109E+02 -0.23966890324E+00  0.14366075669E+03  0.90507315376E+02 0.  0.
          5    1    1    2  502    0 -0.37356763836E+01 -0.49950474864E+02 -0.10826657627E+03  0.11936552750E+03  0.41800000000E+01 0. -1.
         -5    1    1    2    0  502  0.97771758792E+02 -0.10082821244E+02 -0.46675194957E+02  0.10888997349E+03  0.41800000000E+01 0. -1.
        -11    1    3    3    0    0 -0.68322713708E+02  0.72974179379E+02 -0.27850714061E+02  0.10377324481E+03  0.00000000000E+00 0.  1.
         11    1    3    3    0    0 -0.25713368700E+02 -0.12940883270E+02  0.27611045158E+02  0.39887511885E+02  0.00000000000E+00 0. -1.
</event>
<event>
 6    1  0.5831876E-006  0.6870098E+02  0.7561462E-02  0.1364567E+00
         -2   -1    0    0    0  501 -0.00000000000E+00  0.00000000000E+00  0.10107402265E+02  0.10107402265E+02  0.00000000000E+00 0.  1.
          2   -1    0    0  501    0  0.00000000000E+00 -0.00000000000E+00 -0.93264928512E+03  0.93264928512E+03  0.00000000000E+00 0. -1.
          5    1    1    2  502    0 -0.38128579390E+02 -0.14599909151E+02 -0.66306139222E+03  0.66433036071E+03  0.41800000000E+01 0. -1.
         -5    1    1    2    0  502  0.38036367446E+02  0.23354680071E+02 -0.90605884376E+02  0.10108958904E+03  0.41800000000E+01 0.  1.
        -11    1    1    2    0    0 -0.24690901230E+02  0.14398723662E+01 -0.10847956382E+03  0.11126333449E+03  0.00000000000E+00 0. -1.
         11    1    1    2    0    0  0.24783113174E+02 -0.10194643287E+02 -0.60395042442E+02  0.66073403135E+02  0.00000000000E+00 0.  1.
</event>
<event>
 7    1  0.5831876E-006  0.1473955E+03  0.7561462E-02  0.1203710E+00
          2   -1    0    0  501    0  0.00000000000E+00  0.00000000000E+00  0.29896011356E+03  0.29896011356E+03  0.00000000000E+00 0. -1.
         -2   -1    0    0    0  501 -0.00000000000E+00 -0.00000000000E+00 -0.87313112696E+02  0.87313112696E+02  0.00000000000E+00 0.  1.
         23    2    1    2    0    0 -0.66932184958E+02  0.97824455428E+02  0.11471638305E+03  0.18856229739E+03  0.91358360275E+02 0.  0.
          5    1    1    2  502    0  0.62436983560E+00  0.28894381801E+02  0.14887764542E+02  0.32777935725E+02  0.41800000000E+01 0.  1.
         -5    1    1    2    0  502  0.66307815123E+02 -0.12671883723E+03  0.82042853271E+02  0.16493299315E+03  0.41800000000E+01 0.  1.
        -11    1    3    3    0    0 -0.54553308016E+02  0.53198282551E+02  0.13677669147E+02  0.77415756246E+02  0.00000000000E+00 0.  1.
         11    1    3    3    0    0 -0.12378876943E+02  0.44626172877E+02  0.10103871391E+03  0.11114654114E+03  0.00000000000E+00 0. -1.
</event>
<event>
 7    1  0.5831876E-006  0.1097586E+03  0.7561462E-02  0.1261018E+00
          1   -1    0    0  501    0  0.00000000000E+00  0.00000000000E+00  0.30113761738E+03  0.30113761738E+03  0.00000000000E+00 0. -1.
         -1   -1    0    0    0  501 -0.00000000000E+00 -0.00000000000E+00 -0.56787343954E+02  0.56787343954E+02  0.00000000000E+00 0.  1.
         23    2    1    2    0    0  0.22450889659E+02  0.63802040118E+02  0.74014628346E+02  0.13603243125E+03  0.91934293784E+02 0.  0.
          5    1    1    2  502    0  0.43723876200E+02 -0.57668792566E+02  0.11173074747E+03  0.13318670848E+03  0.41800000000E+01 0. -1.
         -5    1    1    2    0  502 -0.66174765859E+02 -0.61332475527E+01  0.58604897611E+02  0.88705821602E+02  0.41800000000E+01 0. -1.
        -11    1    3    3    0    0 -0.13257945340E+02  0.16367680395E+02 -0.17201732362E+02  0.27195103832E+02  0.00000000000E+00 0.  1.
         11    1    3    3    0    0  0.35708834999E+02  0.47434359723E+02  0.91216360708E+02  0.10883732742E+03  0.00000000000E+00 0. -1.
</event>
<event>
 7    1  0.5831876E-006  0.1530674E+03  0.7561462E-02  0.1196754E+00
          1   -1    0    0  501    0  0.00000000000E+00  0.00000000000E+00  0.35692307473E+03  0.35692307473E+03  0.00000000000E+00 0. -1.
         -1   -1    0    0    0  501 -0.00000000000E+00 -0.00000000000E+00 -0.86199454535E+02  0.86199454535E+02  0.00000000000E+00 0.  1.
         23    2    1    2    0    0 -0.48408208542E+02 -0.10308991292E+03  0.28669140173E+02  0.14785170861E+03  0.89818279547E+02 0.  0.
          5    1    1    2  502    0  0.38931426964E+02 -0.21099562409E+02  0.63541996959E+02  0.77562267352E+02  0.41800000000E+01 0.  1.
         -5    1    1    2    0  502  0.94767815781E+01  0.12418947533E+03  0.17851248307E+03  0.21770855330E+03  0.41800000000E+01 0.  1.
        -11    1    3    3    0    0 -0.91819754046E+01  0.12192131549E+02 -0.12055191598E+02  0.19449534403E+02  0.00000000000E+00 0.  1.
         11    1    3    3    0    0 -0.39226233137E+02 -0.11528204447E+03  0.40724331771E+02  0.12840217421E+03  0.00000000000E+00 0. -1.
</event>
<event>
 7    1  0.5831876E-006  0.1131315E+03  0.7561462E-02  0.1254878E+00
         -2   -1    0    0    0  501 -0.00000000000E+00  0.00000000000E+00  0.49032639829E+02  0.49032639829E+02  0.00000000000E+00 0. -1.
          2   -1    0    0  501    0  0.00000000000E+00 -0.00000000000E+00 -0.29296673400E+03  0.29296673400E+03  0.00000000000E+00 0.  1.
         23    2    1    2    0    0  0.48260634848E+02 -0.20522272427E+02 -0.73333363113E+02  0.12405109571E+03  0.85209387153E+02 0.  0.
          5    1    1    2  502    0 -0.24327655377E+02 -0.52742290924E+02 -0.79462952861E+02  0.98516076583E+02  0.41800000000E+01 0.  1.
         -5    1    1    2    0  502 -0.23932979472E+02  0.73264563352E+02 -0.91137778192E+02  0.11943220153E+03  0.41800000000E+01 0.  1.
        -11    1    3    3    0    0  0.26497102611E+02  0.27457267619E+02 -0.57553997758E+02  0.69054041517E+02  0.00000000000E+00 0.  1.
         11    1    3    3    0    0  0.21763532238E+02 -0.47979540047E+02 -0.15779365356E+02  0.54997054190E+02  0.00000000000E+00 0. -1.
</event>
<event>
 7    1  0.5831876E-006  0.1041032E+03  0.7561462E-02  0.1271897E+00
         -1   -1    0    0    0  501 -0.00000000000E+00  0.00000000000E+00  0.24743159320E+03  0.24743159320E+03  0.00000000000E+00 0.  1.
          1   -1    0    0  501    0  0.00000000000E+00 -0.00000000000E+00 -0.10090372178E+03  0.10090372178E+03  0.00000000000E+00 0. -1.
         23    2    1    2    0    0 -0.44515071009E+02 -0.96323276650E+01  0.18379730560E+03  0.21009264701E+03  0.91011523999E+02 0.  0.
          5    1    1    2  502    0 -0.41320632737E+02 -0.23637192498E+01  0.46846897604E+01  0.41861683872E+02  0.41800000000E+01 0.  1.
         -5    1    1    2    0  502  0.85835703746E+02  0.11996046915E+02 -0.41954123935E+02  0.96380984091E+02  0.41800000000E+01 0.  1.
        -11    1    3    3    0    0 -0.21823083261E+02  0.28238403620E+02  0.15082580655E+03  0.15499057495E+03  0.00000000000E+00 0.  1.
         11    1    3    3    0    0 -0.22691987747E+02 -0.37870731285E+02  0.32971499044E+02  0.55102072059E+02  0.00000000000E+00 0. -1.
</event>
<event>
 7    1  0.5831876E-006  0.1748615E+03  0.7561462E-02  0.1172871E+00
          2   -1    0    0  501    0  0.00000000000E+00  0.00000000000E+00  0.40904139566E+03  0.40904139566E+03  0.00000000000E+00 0. -1.
         -2   -1    0    0    0  501 -0.00000000000E+00 -0.00000000000E+00 -0.87148997374E+02  0.87148997374E+02  0.00000000000E+00 0.  1.
         23    2    1    2    0    0 -0.80160504182E+02  0.13184921093E+03  0.14899181927E+03  0.23284171350E+03  0.90591282615E+02 0.  0.
          5    1    1    2  502    0  0.62269341071E+02 -0.14848428410E+02  0.11461941686E+03  0.13135078905E+03  0.41800000000E+01 0.  1.
         -5    1    1    2    0  502  0.17891163111E+02 -0.11700078252E+03  0.58281162156E+02  0.13199789047E+03  0.41800000000E+01 0.  1.
        -11    1    3    3    0    0 -0.81210584757E+02  0.75835736880E+02  0.13547048868E+03  0.17520979244E+03  0.00000000000E+00 0.  1.
         11    1    3    3    0    0  0.10500805750E+01  0.56013474048E+02  0.13521330584E+02  0.57631921058E+02  0.00000000000E+00 0. -1.
</event>
<event>
 7    1  0.5831876E-006  0.1348324E+03  0.7561462E-02  0.1220456E+00
          2   -1    0    0  501    0  0.00000000000E+00  0.00000000000E+00  0.12703710342E+04  0.12703710342E+04  0.00000000000E+00 0. -1.
         -2   -1    0    0    0  501 -0.00000000000E+00 -0.00000000000E+00 -0.14690343825E+02  0.14690343825E+02  0.00000000000E+00 0.  1.
         23    2    1    2    0    0 -0.85751828181E+02  0.26803610940E+02  0.45931352175E+03  0.47393733142E+03  0.74671770120E+02 0.  0.
          5    1    1    2  502    0  0.52989178453E+02 -0.76511406847E+02  0.43528269961E+03  0.44514081973E+03  0.41800000000E+01 0.  1.
         -5    1    1    2    0  502  0.32762649728E+02  0.49707795907E+02  0.36108446901E+03  0.36598322687E+03  0.41800000000E+01 0.  1.
        -11    1    3    3    0    0 -0.45691531328E+02 -0.24408527397E+02  0.20488922942E+03  0.21133643457E+03  0.00000000000E+00 0.  1.
         11    1    3    3    0    0 -0.40060296852E+02  0.51212138337E+02  0.25442429234E+03  0.26260089685E+03  0.00000000000E+00 0. -1.
</event>
<event>
 7    1  0.5831876E-006  0.1122205E+03  0.7561462E-02  0.1256512E+00
         -2   -1    0    0    0  501 -0.00000000000E+00  0.00000000000E+00  0.75918338444E+02  0.75918338444E+02  0.00000000000E+00 0.  1.
          2   -1    0    0  501    0  0.00000000000E+00 -0.00000000000E+00 -0.26746958248E+03  0.26746958248E+03  0.00000000000E+00 0. -1.
         23    2    1    2    0    0  0.24497367018E+02  0.68929285191E+02 -0.19014341482E+02  0.11093078611E+03  0.81195608110E+02 0.  0.
          5    1    1    2  502    0 -0.57035847303E+02 -0.68477639362E+02 -0.17808405099E+03  0.19918252079E+03  0.41800000000E+01 0. -1.
         -5    1    1    2    0  502  0.32538480285E+02 -0.45164582930E+00  0.55471484343E+01  0.33274614032E+02  0.41800000000E+01 0.  1.
        -11    1    3    3    0    0  0.34660728500E+02  0.80121000823E+02 -0.85347402952E+00  0.87301026860E+02  0.00000000000E+00 0.  1.
         11    1    3    3    0    0 -0.10163361482E+02 -0.11191715632E+02 -0.18160867452E+02  0.23629759246E+02  0.00000000000E+00 0. -1.
</event>
<event>
 7    1  0.5831876E-006  0.1060995E+03  0.7561462E-02  0.1267968E+00
         -4   -1    0    0    0  501 -0.00000000000E+00  0.00000000000E+00  0.27050118636E+03  0.27050118636E+03  0.00000000000E+00 0.  1.
          4   -1    0    0  501    0  0.00000000000E+00 -0.00000000000E+00 -0.47201528055E+02  0.47201528055E+02  0.00000000000E+00 0. -1.
         23    2    1    2    0    0  0.99727026079E+01 -0.18725328743E+02  0.13181403668E+03  0.16128236508E+03  0.90481867168E+02 0.  0.
          5    1    1    2  502    0 -0.53723959670E+02  0.43154404543E+02  0.78397452011E+02  0.10446147307E+03  0.41800000000E+01 0.  1.
         -5    1    1    2    0  502  0.43751257062E+02 -0.24429075800E+02  0.13088169613E+02  0.51958876265E+02  0.41800000000E+01 0.  1.
        -11    1    3    3    0    0 -0.28559791169E+02  0.22567799838E+02  0.48926300799E+02  0.60981555990E+02  0.00000000000E+00 0.  1.
         11    1    3    3    0    0  0.38532493777E+02 -0.41293128581E+02  0.82887735886E+02  0.10030080909E+03  0.00000000000E+00 0. -1.
</event>
<event>
 7    1  0.5831876E-006  0.1213777E+03  0.7561462E-02  0.1240841E+00
         -2   -1    0    0    0  501 -0.00000000000E+00  0.00000000000E+00  0.46673278463E+02  0.46673278463E+02  0.00000000000E+00 0.  1.
          2   -1    0    0  501    0  0.00000000000E+00 -0.00000000000E+00 -0.39569411969E+03  0.39569411969E+03  0.00000000000E+00 0. -1.
         23    2    1    2    0    0 -0.33125454862E+02  0.51261500866E+02 -0.83271479686E+02  0.14237544531E+03  0.98038721268E+02 0.  0.
          5    1    1    2  502    0  0.23448616593E+02  0.40110808608E+02 -0.77099344676E+02  0.90113794375E+02  0.41800000000E+01 0.  1.
         -5    1    1    2    0  502  0.96768382689E+01 -0.91372309475E+02 -0.18865001686E+03  0.20987815846E+03  0.41800000000E+01 0.  1.
        -11    1    3    3    0    0  0.27810630757E+02  0.26300371146E+02 -0.27777343023E+01  0.38377812775E+02  0.00000000000E+00 0.  1.
         11    1    3    3    0    0 -0.60936085619E+02  0.24961129720E+02 -0.80493745384E+02  0.10399763254E+03  0.00000000000E+00 0. -1.
</event>
<event>
 7    1  0.5831876E-006  0.1578140E+03  0.7561462E-02  0.1191187E+00
         -1   -1    0    0    0  501 -0.00000000000E+00  0.00000000000E+00  0.46941402568E+02  0.46941402568E+02  0.00000000000E+00 0.  1.
          1   -1    0    0  501    0  0.00000000000E+00 -0.00000000000E+00 -0.94318853601E+03  0.94318853601E+03  0.00000000000E+00 0. -1.
         23    2    1    2    0    0 -0.67111828121E+02 -0.12602282601E+03 -0.50396861032E+03  0.53154654620E+03  0.90397015646E+02 0.  0.
          5    1    1    2  502    0  0.39319963594E+02  0.29862103628E+02 -0.34368162475E+03  0.34723527522E+03  0.41800000000E+01 0. -1.
         -5    1    1    2    0  502  0.27791864527E+02  0.96160722384E+02 -0.48596898379E+02  0.11134811716E+03  0.41800000000E+01 0.  1.
        -11    1    3    3    0    0 -0.59528956389E+02 -0.24965245361E+02 -0.24755393300E+03  0.25583179995E+03  0.00000000000E+00 0.  1.
         11    1    3    3    0    0 -0.75828717316E+01 -0.10105758065E+03 -0.25641467732E+03  0.27571474624E+03  0.00000000000E+00 0. -1.
</event>
<event>
 6    1  0.5831876E-006  0.1119248E+03  0.7561462E-02  0.1257046E+00
          1   -1    0    0  501    0  0.00000000000E+00  0.00000000000E+00  0.36417393735E+02  0.36417393735E+02  0.00000000000E+00 0. -1.
         -1   -1    0    0    0  501 -0.00000000000E+00 -0.00000000000E+00 -0.46778210011E+03  0.46778210011E+03  0.00000000000E+00 0.  1.
          5    1    1    2  502    0 -0.44901760298E+02 -0.84875207964E+01 -0.12640708548E+03  0.13447836163E+03  0.41800000000E+01 0.  1.
         -5    1    1    2    0  502  0.63253185776E+02  0.29216832293E+02 -0.61989914957E+02  0.93353150758E+02  0.41800000000E+01 0.  1.
        -11    1    1    2    0    0  0.43391516479E+02 -0.15964722176E+02 -0.31315210738E+02  0.55842085205E+02  0.00000000000E+00 0. -1.
         11    1    1    2    0    0 -0.61742941957E+02 -0.47645893204E+01 -0.21165249520E+03  0.22052589625E+03  0.00000000000E+00 0.  1.
</event>
<event>
 7    1  0.5831876E-006  0.1055336E+03  0.7561462E-02  0.1269072E+00
          4   -1    0    0  501    0  0.00000000000E+00  0.00000000000E+00  0.26554149664E+03  0.26554149664E+03  0.00000000000E+00 0. -1.
         -4   -1    0    0    0  501 -0.00000000000E+00 -0.00000000000E+00 -0.54947960680E+02  0.54947960680E+02  0.00000000000E+00 0.  1.
         23    2    1    2    0    0 -0.59030115455E+01  0.48831813968E+02  0.67181314694E+02  0.12392820164E+03  0.91790405358E+02 0.  0.
          5    1    1    2  502    0  0.26952494725E+02 -0.76242858152E+02  0.13980515916E+03  0.16156226452E+03  0.41800000000E+01 0. -1.
         -5    1    1    2    0  502 -0.21049483179E+02  0.27411044184E+02  0.36070621107E+01  0.34998991163E+02  0.41800000000E+01 0. -1.
        -11    1    3    3    0    0 -0.10097887757E+02  0.71508864154E+02  0.26050276341E+02  0.76773054434E+02  0.00000000000E+00 0. -1.
         11    1    3    3    0    0  0.41948762114E+01 -0.22677050186E+02  0.41131038353E+02  0.47155147201E+02  0.00000000000E+00 0.  1.
</event>
<event>
 7    1  0.5831876E-006  0.1176779E+03  0.7561462E-02  0.1246978E+00
         -2   -1    0    0    0  501 -0.00000000000E+00  0.00000000000E+00  0.25109674939E+02  0.25109674939E+02  0.00000000000E+00 0.  1.
          2   -1    0    0  501    0  0.00000000000E+00 -0.00000000000E+00 -0.67898074115E+03  0.67898074115E+03  0.00000000000E+00 0. -1.
         23    2    1    2    0    0  0.63314800736E+02 -0.47016899090E+01 -0.21590270917E+03  0.24420489800E+03  0.94821846105E+02 0.  0.
          5    1    1    2  502    0 -0.85390890262E+02 -0.26368239200E+02 -0.20344030751E+03  0.22224382848E+03  0.41800000000E+01 0. -1.
         -5    1    1    2    0  502  0.22076089526E+02  0.31069929109E+02 -0.23452804953E+03  0.23764168961E+03  0.41800000000E+01 0. -1.
        -11    1    3    3    0    0 -0.53946269708E+01  0.30062338293E+02 -0.29238958537E+02  0.42281945085E+02  0.00000000000E+00 0.  1.
         11    1    3    3    0    0  0.68709427706E+02 -0.34764028202E+02 -0.18666375063E+03  0.20192295291E+03  0.00000000000E+00 0. -1.
</event>
<event>
 7    1  0.5831876E-006  0.1123511E+03  0.7561462E-02  0.1256277E+00
          1   -1    0    0  501    0  0.00000000000E+00  0.00000000000E+00  0.38229095571E+02  0.38229095571E+02  0.00000000000E+00 0. -1.
         -1   -1    0    0    0  501 -0.00000000000E+00 -0.00000000000E+00 -0.45446831166E+03  0.45446831166E+03  0.00000000000E+00 0.  1.
         23    2    1    2    0    0 -0.19263323363E+02 -0.44628762369E+02 -0.29525562185E+03  0.31201298858E+03  0.88393556057E+02 0.  0.
          5    1    1    2  502    0 -0.28188017398E+02 -0.26149303912E+02 -0.73477455730E+02  0.83034687453E+02  0.41800000000E+01 0.  1.
         -5    1    1    2    0  502  0.47451340760E+02  0.70778066281E+02 -0.47506138506E+02  0.97649731193E+02  0.41800000000E+01 0.  1.
        -11    1    3    3    0    0  0.18073879369E+02 -0.58232731084E+02 -0.16991042877E+03  0.18051944463E+03  0.00000000000E+00 0. -1.
         11    1    3    3    0    0 -0.37337202732E+02  0.13603968715E+02 -0.12534519308E+03  0.13149354395E+03  0.00000000000E+00 0.  1.
</event>
<event>
 7    1  0.5831876E-006  0.1066436E+03  0.7561462E-02  0.1266915E+00
          1   -1    0    0  501    0  0.00000000000E+00  0.00000000000E+00  0.38984657599E+02  0.38984657599E+02  0.00000000000E+00 0. -1.
         -1   -1    0    0    0  501 -0.00000000000E+00 -0.00000000000E+00 -0.36349690992E+03  0.36349690992E+03  0.00000000000E+00 0.  1.
         23    2    1    2    0    0 -0.49565243491E+02 -0.60238421806E+00 -0.15690695337E+03  0.18755693999E+03  0.90004097091E+02 0.  0.
          5    1    1    2  502    0 -0.19410877620E+02  0.38256099609E+02 -0.10775543934E+03  0.11605610037E+03  0.41800000000E+01 0. -1.
         -5    1    1    2    0  502  0.68976121111E+02 -0.37653715391E+02 -0.59849859613E+02  0.98868527155E+02  0.41800000000E+01 0. -1.
        -11    1    3    3    0    0  0.20471752234E+02  0.54699691839E+01 -0.75715245767E+01  0.22502026282E+02  0.00000000000E+00 0. -1.
         11    1    3    3    0    0 -0.70036995724E+02 -0.60723534019E+01 -0.14933542879E+03  0.16505491371E+03  0.00000000000E+00 0.  1.
</event>
<event>
 7    1  0.5831876E-006  0.9448971E+02  0.7561462E-02  0.1292330E+00
         -2   -1    0    0    0  501 -0.00000000000E+00  0.00000000000E+00  0.30541561027E+02  0.30541561027E+02  0.00000000000E+00 0.  1.
          2   -1    0    0  501    0  0.00000000000E+00 -0.00000000000E+00 -0.50957265652E+03  0.50957265652E+03  0.00000000000E+00 0. -1.
         23    2    1    2    0    0 -0.17989466001E+02 -0.58652673157E+02 -0.20121482487E+03  0.22932161348E+03  0.91308486504E+02 0.  0.
          5    1    1    2  502    0  0.47971716741E+02  0.20685564362E+02 -0.34654538862E+02  0.62829830843E+02  0.41800000000E+01 0. -1.
         -5    1    1    2    0  502 -0.29982250740E+02  0.37967108795E+02 -0.24316173176E+03  0.24796277322E+03  0.41800000000E+01 0. -1.
        -11    1    3    3    0    0 -0.36628711799E+02 -0.13282043536E+02 -0.24731766765E+02  0.46149057367E+02  0.00000000000E+00 0.  1.
         11    1    3    3    0    0  0.18639245798E+02 -0.45370629620E+02 -0.17648305810E+03  0.18317255611E+03  0.00000000000E+00 0. -1.
</event>
<event>
 7    1  0.5831876E-006  0.1075860E+03  0.7561462E-02  0.1265107E+00
          1   -1    0    0  501    0  0.00000000000E+00  0.00000000000E+00  0.62068517394E+03  0.62068517394E+03  0.00000000000E+00 0. -1.
         -1   -1    0    0    0  501 -0.00000000000E+00 -0.00000000000E+00 -0.43173346661E+02  0.43173346661E+02  0.00000000000E+00 0.  1.
         23    2    1    2    0    0  0.48241124974E+02 -0.35019466775E+02  0.44183751184E+02  0.11282552473E+03  0.84993093654E+02 0.  0.
          5    1    1    2  502    0 -0.76047818203E+02  0.36440180312E+02  0.50142173644E+03  0.50848046922E+03  0.41800000000E+01 0.  1.
         -5    1    1    2    0  502  0.27806693229E+02 -0.14207135367E+01  0.31906339651E+02  0.42552526661E+02  0.41800000000E+01 0.  1.
        -11    1    3    3    0    0  0.37989765563E+02  0.22504733947E+02  0.10519339019E+02  0.45390988433E+02  0.00000000000E+00 0.  1.
         11    1    3    3    0    0  0.10251359411E+02 -0.57524200722E+02  0.33664412165E+02  0.67434536292E+02  0.00000000000E+00 0. -1.
</event>
<event>
 7    1  0.5831876E-006  0.1730378E+03  0.7561462E-02  0.1174716E+00
         -3   -1    0    0    0  501 -0.00000000000E+00  0.00000000000E+00  0.44508361224E+03  0.44508361224E+03  0.00000000000E+00 0.  1.
          3   -1    0    0  501    0  0.00000000000E+00 -0.00000000000E+00 -0.13694160105E+03  0.13694160105E+03  0.00000000000E+00 0. -1.
         23    2    1    2    0    0 -0.57984220887E+02 -0.13430254650E+03  0.34540425080E+03  0.38597286449E+03  0.90948401769E+02 0.  0.
          5    1    1    2  502    0  0.90867141941E+02  0.87995225756E+02 -0.52629554305E+02  0.13706691660E+03  0.41800000000E+01 0.  1.
         -5    1    1    2    0  502 -0.32882921054E+02  0.46307320742E+02  0.15367314691E+02  0.58985432203E+02  0.41800000000E+01 0.  1.
        -11    1    3    3    0    0 -0.14689041998E+02 -0.11365512890E+03  0.29458770797E+03  0.31609361583E+03  0.00000000000E+00 0.  1.
         11    1    3    3    0    0 -0.43295178889E+02 -0.20647417595E+02  0.50816542835E+02  0.69879248666E+02  0.00000000000E+00 0. -1.
</event>
<event>
 7    1  0.5831876E-006  0.9746320E+02  0.7561462E-02  0.1285723E+00
         -1   -1    0    0    0  501 -0.00000000000E+00  0.00000000000E+00  0.40394219291E+02  0.40394219291E+02  0.00000000000E+00 0.  1.
          1   -1    0    0  501    0  0.00000000000E+00 -0.00000000000E+00 -0.69490714975E+03  0.69490714975E+03  0.00000000000E+00 0. -1.
         23    2    1    2    0    0 -0.52921771473E+02 -0.15241355027E+02 -0.54178260385E+02  0.12005204614E+03  0.91892312441E+02 0.  0.
          5    1    1    2  502    0  0.70818462271E+02  0.39167021202E+02 -0.55441233595E+03  0.56030332928E+03  0.41800000000E+01 0. -1.
         -5    1    1    2    0  502 -0.17896690798E+02 -0.23925666176E+02 -0.45922334123E+02  0.54945993619E+02  0.41800000000E+01 0.  1.
        -11    1    3    3    0    0 -0.18032694003E+02  0.24767531186E+02  0.13967382140E+02  0.33670408639E+02  0.00000000000E+00 0.  1.
         11    1    3    3    0    0 -0.34889077470E+02 -0.40008886213E+02 -0.68145642525E+02  0.86381637504E+02  0.00000000000E+00 0. -1.
</event>
<event>
 7    1  0.5831876E-006  0.8492832E+02  0.7561462E-02  0.1315620E+00
          1   -1    0    0  501    0  0.00000000000E+00  0.00000000000E+00  0.55574488799E+02  0.55574488799E+02  0.00000000000E+00 0. -1.
         -1   -1    0    0    0  501 -0.00000000000E+00 -0.00000000000E+00 -0.21975993866E+03  0.21975993866E+03  0.00000000000E+00 0.  1.
         23    2    1    2    0    0 -0.28105382531E+02 -0.96289072707E+00 -0.72242320051E+02  0.11756459999E+03  0.88383497777E+02 0.  0.
          5    1    1    2  502    0  0.26694975416E+02 -0.36844000970E+02 -0.10737916022E+03  0.11669558076E+03  0.41800000000E+01 0. -1.
         -5    1    1    2    0  502  0.14104071153E+01  0.37806891697E+02  0.15436030405E+02  0.41074246708E+02  0.41800000000E+01 0. -1.
        -11    1    3    3    0    0 -0.10824473668E+02 -0.41048325118E+02 -0.57536495551E+02  0.71502325455E+02  0.00000000000E+00 0.  1.
         11    1    3    3    0    0 -0.17280908863E+02  0.40085434391E+02 -0.14705824501E+02  0.46062274538E+02  0.00000000000E+00 0. -1.
</event>
<event>
 7    1  0.5831876E-006  0.8488558E+02  0.7561462E-02  0.1315732E+00
          2   -1    0    0  501    0  0.00000000000E+00  0.00000000000E+00  0.23824149876E+03  0.23824149876E+03  0.00000000000E+00 0. -1.
         -2   -1    0    0    0  501 -0.00000000000E+00 -0.00000000000E+00 -0.60901224739E+02  0.60901224739E+02  0.00000000000E+00 0.  1.
         23    2    1    2    0    0 -0.36983139902E+02  0.37057131447E+02  0.70620456043E+02  0.12659727430E+03  0.91096857354E+02 0.  0.
          5    1    1    2  502    0  0.37118484109E+02  0.59505282522E+01  0.12120651046E+03  0.12697118267E+03  0.41800000000E+01 0. -1.
         -5    1    1    2    0  502 -0.13534420703E+00 -0.43007659699E+02 -0.14486692487E+02  0.45574266533E+02  0.41800000000E+01 0. -1.
        -11    1    3    3    0    0 -0.45331968583E+02  0.53604195281E+02  0.20461529009E+02  0.73123671248E+02  0.00000000000E+00 0.  1.
         11    1    3    3    0    0  0.83488286813E+01 -0.16547063835E+02  0.50158927034E+02  0.53473603049E+02  0.00000000000E+00 0. -1.
</event>
<event>
 7    1  0.5831876E-006  0.1002163E+03  0.7561462E-02  0.1279842E+00
          3   -1    0    0  501    0  0.00000000000E+00  0.00000000000E+00  0.10019384942E+03  0.10019384942E+03  0.00000000000E+00 0. -1.
         -3   -1    0    0    0  501 -0.00000000000E+00 -0.00000000000E+00 -0.12599776522E+03  0.12599776522E+03  0.00000000000E+00 0.  1.
         23    2    1    2    0    0 -0.50123942568E+01 -0.32245931791E+02 -0.13391040168E+02  0.96318970771E+02  0.89627562503E+02 0.  0.
          5    1    1    2  502    0  0.62754956495E+02  0.48347040134E+01 -0.17935842675E+02  0.65579919030E+02  0.41800000000E+01 0.  1.
         -5    1    1    2    0  502 -0.57742562238E+02  0.27411227778E+02  0.55229670373E+01  0.64292724837E+02  0.41800000000E+01 0.  1.
        -11    1    3    3    0    0 -0.32838919281E+02 -0.30737000374E+01 -0.37026246382E+02  0.49586138916E+02  0.00000000000E+00 0.  1.
         11    1    3    3    0    0  0.27826525024E+02 -0.29172231754E+02  0.23635206214E+02  0.46732831855E+02  0.00000000000E+00 0. -1.
</event>
<event>
 7    1  0.5831876E-006  0.1156103E+03  0.7561462E-02  0.1250519E+00
         -2   -1    0    0    0  501 -0.00000000000E+00  0.00000000000E+00  0.10043417205E+02  0.10043417205E+02  0.00000000000E+00 0.  1.
          2   -1    0    0  501    0  0.00000000000E+00 -0.00000000000E+00 -0.14192930610E+04  0.14192930610E+04  0.00000000000E+00 0. -1.
         23    2    1    2    0    0 -0.26430449927E+02 -0.25790695989E+02 -0.46431595815E+03  0.47544372521E+03  0.95360883838E+02 0.  0.
          5    1    1    2  502    0  0.18696816846E+02 -0.49796474459E+02 -0.44809460431E+03  0.45125991030E+03  0.41800000000E+01 0. -1.
         -5    1    1    2    0  502  0.77336330806E+01  0.75587170448E+02 -0.49683908131E+03  0.50263284268E+03  0.41800000000E+01 0. -1.
        -11    1    3    3    0    0  0.35588908748E+02 -0.15847542615E+02 -0.15560939304E+03  0.16041196413E+03  0.00000000000E+00 0.  1.
         11    1    3    3    0    0 -0.62019358675E+02 -0.99431533739E+01 -0.30870656511E+03  0.31503176108E+03  0.00000000000E+00 0. -1.
</event>
<event>
 7    1  0.5831876E-006  0.2647804E+03  0.7561462E-02  0.1104305E+00
          2   -1    0    0  501    0  0.00000000000E+00  0.00000000000E+00  0.21498796512E+04  0.21498796512E+04  0.00000000000E+00 0. -1.
         -2   -1    0    0    0  501 -0.00000000000E+00 -0.00000000000E+00 -0.95293765662E+02  0.95293765662E+02  0.00000000000E+00 0.  1.
         23    2    1    2    0    0 -0.22103648456E+03  0.99451382820E+02  0.10936297962E+03  0.28092122623E+03  0.90602257061E+02 0.  0.
          5    1    1    2  502    0  0.21033156586E+03 -0.44927211449E+02  0.14427448447E+04  0.14586939300E+04  0.41800000000E+01 0. -1.
         -5    1    1    2    0  502  0.10704918707E+02 -0.54524171371E+02  0.50247806124E+03  0.50555826072E+03  0.41800000000E+01 0. -1.
        -11    1    3    3    0    0 -0.18530740820E+03  0.40334002952E+02  0.82280560708E+02  0.20672628763E+03  0.00000000000E+00 0. -1.
         11    1    3    3    0    0 -0.35729076367E+02  0.59117379867E+02  0.27082418909E+02  0.74194938604E+02  0.00000000000E+00 0.  1.
</event>
<event>
 7    1  0.5831876E-006  0.1322689E+03  0.7561462E-02  0.1224127E+00
         -1   -1    0    0    0  501 -0.00000000000E+00  0.00000000000E+00  0.24720429349E+03  0.24720429349E+03  0.00000000000E+00 0.  1.
          1   -1    0    0  501    0  0.00000000000E+00 -0.00000000000E+00 -0.14072189659E+03  0.14072189659E+03  0.00000000000E+00 0. -1.
         23    2    1    2    0    0 -0.11150954289E+02 -0.10209893952E+03  0.16668840616E+03  0.21523657939E+03  0.89404827211E+02 0.  0.
          5    1    1    2  502    0  0.67587603001E+02  0.44181079832E+02 -0.28589554113E+02  0.85760637234E+02  0.41800000000E+01 0. -1.
         -5    1    1    2    0  502 -0.56436648711E+02  0.57917859692E+02 -0.31616455143E+02  0.86928973449E+02  0.41800000000E+01 0. -1.
        -11    1    3    3    0    0 -0.24112022021E+01 -0.24066570642E+02  0.12305043102E+03  0.12540503297E+03  0.00000000000E+00 0.  1.
         11    1    3    3    0    0 -0.87397520872E+01 -0.78032368881E+02  0.43637975136E+02  0.89831546429E+02  0.00000000000E+00 0. -1.
</event>
<event>
 7    1  0.5831876E-006  0.8034743E+02  0.7561462E-02  0.1328068E+00
          3   -1    0    0  501    0  0.00000000000E+00  0.00000000000E+00  0.73273887759E+02  0.73273887759E+02  0.00000000000E+00 0. -1.
         -3   -1    0    0    0  501 -0.00000000000E+00 -0.00000000000E+00 -0.20962299982E+03  0.20962299982E+03  0.00000000000E+00 0.  1.
         23    2    1    2    0    0 -0.35430389121E+02  0.43096130161E+02 -0.64579772586E+02  0.12832018165E+03  0.95827621715E+02 0.  0.
          5    1    1    2  502    0 -0.31025796213E-01  0.15625761042E+02 -0.83329925350E+02  0.84885300433E+02  0.41800000000E+01 0.  1.
         -5    1    1    2    0  502  0.35461414917E+02 -0.58721891203E+02  0.11560585873E+02  0.69691405497E+02  0.41800000000E+01 0.  1.
        -11    1    3    3    0    0 -0.32156663033E+02 -0.41532341873E+00  0.16574390583E+02  0.36179191452E+02  0.00000000000E+00 0. -1.
         11    1    3    3    0    0 -0.32737260881E+01  0.43511453580E+02 -0.81154163168E+02  0.92140990198E+02  0.00000000000E+00 0.  1.
</event>
<event>
 7    1  0.5831876E-006  0.9747354E+02  0.7561462E-02  0.1285700E+00
          2   -1    0    0  501    0  0.00000000000E+00  0.00000000000E+00  0.91824475574E+03  0.91824475574E+03  0.00000000000E+00 0. -1.
         -2   -1    0    0    0  501 -0.00000000000E+00 -0.00000000000E+00 -0.18049081146E+02  0.18049081146E+02  0.00000000000E+00 0.  1.
         23    2    1    2    0    0 -0.52727136334E+02 -0.89266242264E+00  0.26874417206E+03  0.29041487821E+03  0.96625171237E+02 0.  0.
          5    1    1    2  502    0  0.64581814457E+02 -0.33799033383E+02  0.56643927350E+03  0.57112530007E+03  0.41800000000E+01 0.  1.
         -5    1    1    2    0  502 -0.11854678123E+02  0.34691695806E+02  0.65012229035E+02  0.74753658608E+02  0.41800000000E+01 0.  1.
        -11    1    3    3    0    0 -0.23630692768E+02 -0.33716808516E+02  0.39655165543E+02  0.57164368023E+02  0.00000000000E+00 0.  1.
         11    1    3    3    0    0 -0.29096443566E+02  0.32824146093E+02  0.22908900652E+03  0.23325051019E+03  0.00000000000E+00 0. -1.
</event>
<event>
 7    1  0.5831876E-006  0.8314305E+02  0.7561462E-02  0.1320361E+00
         -2   -1    0    0    0  501 -0.00000000000E+00  0.00000000000E+00  0.99932281653E+02  0.99932281653E+02  0.00000000000E+00 0.  1.
          2   -1    0    0  501    0  0.00000000000E+00 -0.00000000000E+00 -0.12644159498E+03  0.12644159498E+03  0.00000000000E+00 0. -1.
         23    2    1    2    0    0 -0.15925498132E+01  0.23135947305E+02  0.80051061509E+01  0.94557981873E+02  0.91319887970E+02 0.  0.
          5    1    1    2  502    0  0.41154469996E+02 -0.47117773229E+02  0.14428951131E+02  0.64338495362E+02  0.41800000000E+01 0. -1.
         -5    1    1    2    0  502 -0.39561920183E+02  0.23981825924E+02 -0.48943370610E+02  0.67477399401E+02  0.41800000000E+01 0. -1.
        -11    1    3    3    0    0  0.19076971429E+02  0.29829969686E+02  0.41550570856E+02  0.54591280154E+02  0.00000000000E+00 0.  1.
         11    1    3    3    0    0 -0.20669521242E+02 -0.66940223814E+01 -0.33545464705E+02  0.39966701719E+02  0.00000000000E+00 0. -1.
</event>
<event>
 7    1  0.5831876E-006  0.9526943E+02  0.7561462E-02  0.1290570E+00
          3   -1    0    0  501    0  0.00000000000E+00  0.00000000000E+00  0.72221388590E+02  0.72221388590E+02  0.00000000000E+00 0. -1.
         -3   -1    0    0    0  501 -0.00000000000E+00 -0.00000000000E+00 -0.21325348854E+03  0.21325348854E+03  0.00000000000E+00 0.  1.
         23    2    1    2    0    0  0.25684859824E+02 -0.35587863133E+02 -0.94916663771E+02  0.14511702499E+03  0.10061595228E+03 0.  0.
          5    1    1    2  502    0 -0.51827893063E+02  0.35173534922E+02  0.22598076205E+02  0.66719213922E+02  0.41800000000E+01 0. -1.
         -5    1    1    2    0  502  0.26143033239E+02  0.41432821158E+00 -0.68713512388E+02  0.73638638224E+02  0.41800000000E+01 0. -1.
        -11    1    3    3    0    0  0.49867849361E+02  0.88935827856E+01 -0.75442768338E+02  0.90870839708E+02  0.00000000000E+00 0. -1.
         11    1    3    3    0    0 -0.24182989537E+02 -0.44481445919E+02 -0.19473895433E+02  0.54246185279E+02  0.00000000000E+00 0.  1.
</event>
<event>
 7    1  0.5831876E-006  0.1090959E+03  0.7561462E-02  0.1262253E+00
         -2   -1    0    0    0  501 -0.00000000000E+00  0.00000000000E+00  0.33931051023E+03  0.33931051023E+03  0.00000000000E+00 0. -1.
          2   -1    0    0  501    0  0.00000000000E+00 -0.00000000000E+00 -0.39953594213E+02  0.39953594213E+02  0.00000000000E+00 0.  1.
         23    2    1    2    0    0  0.17158393812E+02 -0.37943354333E+02  0.14216327090E+03  0.17410208100E+03  0.91471473154E+02 0.  0.
          5    1    1    2  502    0  0.20499381984E+02  0.71687755594E+02  0.12327844377E+03  0.14413329269E+03  0.41800000000E+01 0. -1.
         -5    1    1    2    0  502 -0.37657775796E+02 -0.33744401260E+02  0.33915201351E+02  0.61028730750E+02  0.41800000000E+01 0. -1.
        -11    1    3    3    0    0  0.22706109770E+02 -0.63076122945E+02  0.12856342455E+03  0.14499213372E+03  0.00000000000E+00 0. -1.
         11    1    3    3    0    0 -0.55477159574E+01  0.25132768612E+02  0.13599846343E+02  0.29109947286E+02  0.00000000000E+00 0.  1.
</event>
<event>
 7    1  0.5831876E-006  0.1525669E+03  0.7561462E-02  0.1197354E+00
          1   -1    0    0  501    0  0.00000000000E+00  0.00000000000E+00  0.77917285956E+03  0.77917285956E+03  0.00000000000E+00 0. -1.
         -1   -1    0    0    0  501 -0.00000000000E+00 -0.00000000000E+00 -0.30879691886E+02  0.30879691886E+02  0.00000000000E+00 0.  1.
         23    2    1    2    0    0  0.71472091488E+02  0.78819685774E+02  0.38335422922E+03  0.40986660230E+03  0.98536104489E+02 0.  0.
          5    1    1    2  502    0 -0.62747426459E+02  0.17138422995E+02  0.18306839187E+03  0.19432568943E+03  0.41800000000E+01 0.  1.
         -5    1    1    2    0  502 -0.87246650292E+01 -0.95958108769E+02  0.18187054658E+03  0.20586025972E+03  0.41800000000E+01 0.  1.
        -11    1    3    3    0    0  0.35727906919E+02 -0.18212989773E+02  0.82349325749E+02  0.91594802148E+02  0.00000000000E+00 0. -1.
         11    1    3    3    0    0  0.35744184569E+02  0.97032675547E+02  0.30100490347E+03  0.31827180015E+03  0.00000000000E+00 0.  1.
</event>
<event>
 7    1  0.5831876E-006  0.1182190E+03  0.7561462E-02  0.1246064E+00
          2   -1    0    0  501    0  0.00000000000E+00  0.00000000000E+00  0.41805592834E+02  0.41805592834E+02  0.00000000000E+00 0. -1.
         -2   -1    0    0    0  501 -0.00000000000E+00 -0.00000000000E+00 -0.34105001111E+03  0.34105001111E+03  0.00000000000E+00 0.  1.
         23    2    1    2    0    0  0.36594386884E+02  0.38659124678E+02 -0.14553833192E+03  0.17765540865E+03  0.86869793907E+02 0.  0.
          5    1    1    2  502    0 -0.79726979008E+02 -0.49457698599E+01 -0.10345109056E+03  0.13076869794E+03  0.41800000000E+01 0. -1.
         -5    1    1    2    0  502  0.43132592124E+02 -0.33713354818E+02 -0.50254995796E+02  0.74431497357E+02  0.41800000000E+01 0. -1.
        -11    1    3    3    0    0 -0.17834010752E+02  0.43388421754E+02 -0.60058805392E+02  0.76208051982E+02  0.00000000000E+00 0. -1.
         11    1    3    3    0    0  0.54428397636E+02 -0.47292970758E+01 -0.85479526529E+02  0.10144735667E+03  0.00000000000E+00 0.  1.
</event>
<event>
 7    1  0.5831876E-006  0.6913568E+02  0.7561462E-02  0.1363057E+00
         -2   -1    0    0    0  501 -0.00000000000E+00  0.00000000000E+00  0.39449506721E+02  0.39449506721E+02  0.00000000000E+00 0.  1.
          2   -1    0    0  501    0  0.00000000000E+00 -0.00000000000E+00 -0.61543625783E+03  0.61543625783E+03  0.00000000000E+00 0. -1.
         23    2    1    2    0    0  0.20325954391E+02  0.13560400467E+02 -0.50270566747E+02  0.10743579561E+03  0.91751247488E+02 0.  0.
          5    1    1    2  502    0  0.89365943380E+01 -0.13149392270E+02 -0.51610159822E+03  0.51636334235E+03  0.41800000000E+01 0. -1.
         -5    1    1    2    0  502 -0.29262548729E+02 -0.41100819674E+00 -0.96145861384E+01  0.31086626586E+02  0.41800000000E+01 0.  1.
        -11    1    3    3    0    0  0.53807673246E+02 -0.49103024826E+01 -0.41692266179E+02  0.68246771570E+02  0.00000000000E+00 0.  1.
         11    1    3    3    0    0 -0.33481718855E+02  0.18470702949E+02 -0.85783005685E+01  0.39189024044E+02  0.00000000000E+00 0. -1.
</event>
<event>
 7    1  0.5831876E-006  0.1069352E+03  0.7561462E-02  0.1266353E+00
          1   -1    0    0  501    0  0.00000000000E+00  0.00000000000E+00  0.27616228883E+03  0.27616228883E+03  0.00000000000E+00 0. -1.
         -1   -1    0    0    0  501 -0.00000000000E+00 -0.00000000000E+00 -0.56404563333E+02  0.56404563333E+02  0.00000000000E+00 0.  1.
         23    2    1    2    0    0  0.16070636929E+02  0.23055711177E+02  0.23812164128E+02  0.98378222714E+02  0.91221841435E+02 0.  0.
          5    1    1    2  502    0  0.15918634742E+02  0.43847802309E+02  0.40532603140E+02  0.61938655270E+02  0.41800000000E+01 0. -1.
         -5    1    1    2    0  502 -0.31989271671E+02 -0.66903513486E+02  0.15541295822E+03  0.17224997417E+03  0.41800000000E+01 0. -1.
        -11    1    3    3    0    0 -0.97623663111E+01  0.52609302629E+02  0.21623661785E+01  0.53551081657E+02  0.00000000000E+00 0.  1.
         11    1    3    3    0    0  0.25833003240E+02 -0.29553591453E+02  0.21649797949E+02  0.44827141057E+02  0.00000000000E+00 0. -1.
</event>
<event>
 7    1  0.5831876E-006  0.1403022E+03  0.7561462E-02  0.1212923E+00
          1   -1    0    0  501    0  0.00000000000E+00  0.00000000000E+00  0.58238709853E+02  0.58238709853E+02  0.00000000000E+00 0. -1.
         -1   -1    0    0    0  501 -0.00000000000E+00 -0.00000000000E+00 -0.66481379478E+03  0.66481379478E+03  0.00000000000E+00 0.  1.
         23    2    1    2    0    0  0.79754277728E+02  0.82840719954E+02 -0.50906215933E+03  0.53015323559E+03  0.93246133660E+02 0.  0.
          5    1    1    2  502    0 -0.10321496562E+03 -0.55923044033E+02 -0.10337316543E+03  0.15647427812E+03  0.41800000000E+01 0. -1.
         -5    1    1    2    0  502  0.23460687893E+02 -0.26917675921E+02  0.58602398293E+01  0.36424990930E+02  0.41800000000E+01 0.  1.
        -11    1    3    3    0    0  0.50401792485E+01  0.41488968248E+02 -0.60482343002E+02  0.73517696564E+02  0.00000000000E+00 0. -1.
         11    1    3    3    0    0  0.74714098480E+02  0.41351751706E+02 -0.44857981633E+03  0.45663553902E+03  0.00000000000E+00 0.  1.
</event>
<event>
 7    1  0.5831876E-006  0.1290721E+03  0.7561462E-02  0.1228839E+00
          1   -1    0    0  501    0  0.00000000000E+00  0.00000000000E+00  0.96221990742E+02  0.96221990742E+02  0.00000000000E+00 0. -1.
         -1   -1    0    0    0  501 -0.00000000000E+00 -0.00000000000E+00 -0.18104622040E+03  0.18104622040E+03  0.00000000000E+00 0.  1.
         23    2    1    2    0    0 -0.46902478193E+02  0.56655770348E+02 -0.55915642458E+02  0.12930486144E+03  0.90462530068E+02 0.  0.
          5    1    1    2  502    0  0.43421366145E+02  0.32184477279E+02  0.53638043745E+00  0.54212689655E+02  0.41800000000E+01 0. -1.
         -5    1    1    2    0  502  0.34811120485E+01 -0.88840247628E+02 -0.29444967636E+02  0.93750660044E+02  0.41800000000E+01 0. -1.
        -11    1    3    3    0    0 -0.73349909289E+02  0.38421387472E+02 -0.49734178457E+02  0.96591411185E+02  0.00000000000E+00 0.  1.
         11    1    3    3    0    0  0.26447431096E+02  0.18234382876E+02 -0.61814640005E+01  0.32713450256E+02  0.00000000000E+00 0. -1.
</event>
<event>
 7    1  0.5831876E-006  0.1176296E+03  0.7561462E-02  0.1247059E+00
          4   -1    0    0  501    0  0.00000000000E+00  0.00000000000E+00  0.50946434073E+02  0.50946434073E+02  0.00000000000E+00 0. -1.
         -4   -1    0    0    0  501 -0.00000000000E+00 -0.00000000000E+00 -0.36065990289E+03  0.36065990289E+03  0.00000000000E+00 0.  1.
         23    2    1    2    0    0  0.43089023560E+02  0.34847223900E+02 -0.23483711925E+03  0.25910500037E+03  0.94424232447E+02 0.  0.
          5    1    1    2  502    0 -0.24009583590E+02  0.44126571242E+02 -0.38275813706E+02  0.63293954756E+02  0.41800000000E+01 0. -1.
         -5    1    1    2    0  502 -0.19079439970E+02 -0.78973795141E+02 -0.36600535852E+02  0.89207381831E+02  0.41800000000E+01 0.  1.
        -11    1    3    3    0    0  0.68947248922E+02  0.14170882771E+02 -0.19494602487E+03  0.20726429906E+03  0.00000000000E+00 0. -1.
         11    1    3    3    0    0 -0.25858225362E+02  0.20676341128E+02 -0.39891094385E+02  0.51840701312E+02  0.00000000000E+00 0.  1.
</event>
<event>
 7    1  0.5831876E-006  0.1121123E+03  0.7561462E-02  0.1256707E+00
         -2   -1    0    0    0  501 -0.00000000000E+00  0.00000000000E+00  0.83764869971E+01  0.83764869971E+01  0.00000000000E+00 0.  1.
          2   -1    0    0  501    0  0.00000000000E+00 -0.00000000000E+00 -0.17779962227E+04  0.17779962227E+04  0.00000000000E+00 0. -1.
         23    2    1    2    0    0  0.34568755997E+02  0.83308386089E+01 -0.43876367079E+03  0.44917498970E+03  0.89332025623E+02 0.  0.
          5    1    1    2  502    0  0.44295036318E+02  0.15747534247E+02 -0.44009171830E+03  0.44261521438E+03  0.41800000000E+01 0.  1.
         -5    1    1    2    0  502 -0.78863792315E+02 -0.24078372856E+02 -0.89076434660E+03  0.89458250561E+03  0.41800000000E+01 0.  1.
        -11    1    3    3    0    0  0.47609108337E+02  0.38738763189E+02 -0.24280544102E+03  0.25044320945E+03  0.00000000000E+00 0.  1.
         11    1    3    3    0    0 -0.13040352340E+02 -0.30407924581E+02 -0.19595822977E+03  0.19873178025E+03  0.00000000000E+00 0. -1.
</event>
<event>
 7    1  0.5831876E-006  0.6368050E+02  0.7561462E-02  0.1383005E+00
          1   -1    0    0  501    0  0.00000000000E+00  0.00000000000E+00  0.13892840260E+03  0.13892840260E+03  0.00000000000E+00 0. -1.
         -1   -1    0    0    0  501 -0.00000000000E+00 -0.00000000000E+00 -0.14754861286E+03  0.14754861286E+03  0.00000000000E+00 0.  1.
         23    2    1    2    0    0  0.31975659362E+02 -0.38760676893E+02 -0.93142226418E+02  0.13879337097E+03  0.89795838535E+02 0.  0.
          5    1    1    2  502    0 -0.10475722041E+02  0.47064502221E+02  0.10560654714E+03  0.11616808220E+03  0.41800000000E+01 0. -1.
         -5    1    1    2    0  502 -0.21499937322E+02 -0.83038253280E+01 -0.21084530987E+02  0.31515562296E+02  0.41800000000E+01 0.  1.
        -11    1    3    3    0    0  0.31561654037E+02 -0.21304730238E+02 -0.10884280134E+03  0.11531168605E+03  0.00000000000E+00 0.  1.
         11    1    3    3    0    0  0.41400532538E+00 -0.17455946654E+02  0.15700574919E+02  0.23481684923E+02  0.00000000000E+00 0. -1.
</event>
<event>
 7    1  0.5831876E-006  0.1294304E+03  0.7561462E-02  0.1228303E+00
         -2   -1    0    0    0  501 -0.00000000000E+00  0.00000000000E+00  0.12234697573E+03  0.12234697573E+03  0.00000000000E+00 0.  1.
          2   -1    0    0  501    0  0.00000000000E+00 -0.00000000000E+00 -0.17874009395E+03  0.17874009395E+03  0.00000000000E+00 0. -1.
         23    2    1    2    0    0  0.95911181791E+02 -0.29155736191E+02 -0.31162503715E+02  0.13881349294E+03  0.90824404422E+02 0.  0.
          5    1    1    2  502    0 -0.15430605675E+02  0.54206413139E+02  0.27408134870E+02  0.62810166963E+02  0.41800000000E+01 0. -1.
         -5    1    1    2    0  502 -0.80480576116E+02 -0.25050676947E+02 -0.52638749376E+02  0.99463409771E+02  0.41800000000E+01 0. -1.
        -11    1    3    3    0    0  0.82924115357E+02 -0.47433204198E+02 -0.51511527772E+02  0.10853458095E+03  0.00000000000E+00 0. -1.
         11    1    3    3    0    0  0.12987066435E+02  0.18277468006E+02  0.20349024057E+02  0.30278911991E+02  0.00000000000E+00 0.  1.
</event>
<event>
 7    1  0.5831876E-006  0.8739524E+02  0.7561462E-02  0.1309285E+00
         -1   -1    0    0    0  501 -0.00000000000E+00  0.00000000000E+00  0.33158554041E+03  0.33158554041E+03  0.00000000000E+00 0.  1.
          1   -1    0    0  501    0  0.00000000000E+00 -0.00000000000E+00 -0.58375688404E+02  0.58375688404E+02  0.00000000000E+00 0. -1.
         23    2    1    2    0    0 -0.85965133285E+02 -0.63324724958E+01  0.10596629034E+03  0.16401298606E+03  0.90781609152E+02 0.  0.
          5    1    1    2  502    0  0.72620407042E+02  0.48979521602E+01  0.16756704733E+02  0.74806236423E+02  0.41800000000E+01 0.  1.
         -5    1    1    2    0  502  0.13344726243E+02  0.14345203356E+01  0.15048685694E+03  0.15114200633E+03  0.41800000000E+01 0.  1.
        -11    1    3    3    0    0 -0.24331639450E+02 -0.94816954159E+01  0.98436501412E+02  0.10184142594E+03  0.00000000000E+00 0.  1.
         11    1    3    3    0    0 -0.61633493835E+02  0.31492229201E+01  0.75297889267E+01  0.62171560127E+02  0.00000000000E+00 0. -1.
</event>
<event>
 7    1  0.5831876E-006  0.1033062E+03  0.7561462E-02  0.1273493E+00
          1   -1    0    0  501    0  0.00000000000E+00  0.00000000000E+00  0.90110032111E+03  0.90110032111E+03  0.00000000000E+00 0. -1.
         -1   -1    0    0    0  501 -0.00000000000E+00 -0.00000000000E+00 -0.13849540768E+02  0.13849540768E+02  0.00000000000E+00 0.  1.
         23    2    1    2    0    0 -0.11954143135E+02  0.19791220670E+02  0.32699733360E+03  0.34043627313E+03  0.91842288308E+02 0.  0.
          5    1    1    2  502    0  0.87095938203E+01  0.50281639818E+02  0.32433583776E+03  0.32835241492E+03  0.41800000000E+01 0.  1.
         -5    1    1    2    0  502  0.32445493151E+01 -0.70072860488E+02  0.23591760897E+03  0.24616117383E+03  0.41800000000E+01 0.  1.
        -11    1    3    3    0    0 -0.43347375182E+02 -0.69488412043E+01  0.24216235652E+03  0.24610950458E+03  0.00000000000E+00 0. -1.
         11    1    3    3    0    0  0.31393232046E+02  0.26740061874E+02  0.84834977081E+02  0.94326768543E+02  0.00000000000E+00 0.  1.
</event>
<event>
 7    1  0.5831876E-006  0.1283126E+03  0.7561462E-02  0.1229981E+00
         -2   -1    0    0    0  501 -0.00000000000E+00  0.00000000000E+00  0.20376166452E+03  0.20376166452E+03  0.00000000000E+00 0.  1.
          2   -1    0    0  501    0  0.00000000000E+00 -0.00000000000E+00 -0.88894882973E+02  0.88894882973E+02  0.00000000000E+00 0. -1.
         23    2    1    2    0    0  0.21088238364E+02 -0.66625594831E+02  0.78042555591E+02  0.13719798243E+03  0.88594368981E+02 0.  0.
          5    1    1    2  502    0 -0.14645829779E+02  0.10742453157E+03  0.18439943804E+02  0.11005468750E+03  0.41800000000E+01 0. -1.
         -5    1    1    2    0  502 -0.64424085844E+01 -0.40798936742E+02  0.18384282156E+02  0.45403877566E+02  0.41800000000E+01 0.  1.
        -11    1    3    3    0    0 -0.30490746271E+02 -0.33562870806E+02  0.56069760259E+02  0.72110816944E+02  0.00000000000E+00 0. -1.
         11    1    3    3    0    0  0.51578984634E+02 -0.33062724025E+02  0.21972795332E+02  0.65087165483E+02  0.00000000000E+00 0.  1.
</event>
<event>
 7    1  0.5831876E-006  0.1022323E+03  0.7561462E-02  0.1275671E+00
         -1   -1    0    0    0  501 -0.00000000000E+00  0.00000000000E+00  0.12317656837E+03  0.12317656837E+03  0.00000000000E+00 0.  1.
          1   -1    0    0  501    0  0.00000000000E+00 -0.00000000000E+00 -0.10605201170E+03  0.10605201170E+03  0.00000000000E+00 0. -1.
         23    2    1    2    0    0 -0.89184041966E+00 -0.19561607943E+02  0.31923170017E+02  0.10175030851E+03  0.94607529374E+02 0.  0.
          5    1    1    2  502    0 -0.58676294883E+02  0.69300195112E+01 -0.27226899529E+02  0.65189793753E+02  0.41800000000E+01 0.  1.
         -5    1    1    2    0  502  0.59568135303E+02  0.12631588432E+02  0.12428286182E+02  0.62288477804E+02  0.41800000000E+01 0.  1.
        -11    1    3    3    0    0  0.40485120063E+02 -0.85201241872E+01  0.40699725339E+02  0.58035378050E+02  0.00000000000E+00 0.  1.
         11    1    3    3    0    0 -0.41376960482E+02 -0.11041483756E+02 -0.87765553220E+01  0.43714930465E+02  0.00000000000E+00 0. -1.
</event>
<event>
 7    1  0.5831876E-006  0.1469430E+03  0.7561462E-02  0.1204280E+00
         -2   -1    0    0    0  501 -0.00000000000E+00  0.00000000000E+00  0.14308188620E+03  0.14308188620E+03  0.00000000000E+00 0.  1.
          2   -1    0    0  501    0  0.00000000000E+00 -0.00000000000E+00 -0.15673893825E+03  0.15673893825E+03  0.00000000000E+00 0. -1.
         23    2    1    2    0    0 -0.21807100297E+02 -0.99634060079E+02  0.30653828652E+01  0.13755639023E+03  0.92248947805E+02 0.  0.
          5    1    1    2  502    0 -0.77381960391E+01  0.12076354959E+03  0.21827592718E+01  0.12110306118E+03  0.41800000000E+01 0.  1.
         -5    1    1    2    0  502  0.29545296336E+02 -0.21129489515E+02 -0.18905194190E+02  0.41161373035E+02  0.41800000000E+01 0.  1.
        -11    1    3    3    0    0 -0.43159111404E+02 -0.10275389014E+02  0.98024165528E+01  0.45435447470E+02  0.00000000000E+00 0.  1.
         11    1    3    3    0    0  0.21352011107E+02 -0.89358671066E+02 -0.67370336876E+01  0.92120942764E+02  0.00000000000E+00 0. -1.
</event>
<event>
 6    1  0.5831876E-006  0.1649989E+03  0.7561462E-02  0.1183166E+00
         -2   -1    0    0    0  501 -0.00000000000E+00  0.00000000000E+00  0.46078659309E+02  0.46078659309E+02  0.00000000000E+00 0.  1.
          2   -1    0    0  501    0  0.00000000000E+00 -0.00000000000E+00 -0.13363636270E+04  0.13363636270E+04  0.00000000000E+00 0. -1.
          5    1    1    2  502    0  0.16735765260E+02  0.47684867336E+02 -0.76664594163E+03  0.76832115982E+03  0.41800000000E+01 0. -1.
         -5    1    1    2    0  502 -0.41029773787E+02 -0.36857114179E+02 -0.26091627902E+03  0.26671457827E+03  0.41800000000E+01 0.  1.
        -11    1    1    2    0    0 -0.20613926980E+02 -0.11168633322E+03 -0.10354987520E+03  0.15369238000E+03  0.00000000000E+00 0.  1.
         11    1    1    2    0    0  0.44907935507E+02  0.10085858007E+03 -0.15917287188E+03  0.19371416826E+03  0.00000000000E+00 0. -1.
</event>
<event>
 7    1  0.5831876E-006  0.3519184E+03  0.7561462E-02  0.1061830E+00
         -1   -1    0    0    0  501 -0.00000000000E+00  0.00000000000E+00  0.42391848901E+03  0.42391848901E+03  0.00000000000E+00 0.  1.
          1   -1    0    0  501    0  0.00000000000E+00 -0.00000000000E+00 -0.30833416673E+03  0.30833416673E+03  0.00000000000E+00 0. -1.
         23    2    1    2    0    0  0.18116473192E+03  0.29193137367E+03  0.83473025205E+02  0.36520425066E+03  0.91442942540E+02 0.  0.
          5    1    1    2  502    0 -0.10364128373E+03 -0.21970561066E+03  0.72551676539E+02  0.25356121394E+03  0.41800000000E+01 0.  1.
         -5    1    1    2    0  502 -0.77523448181E+02 -0.72225763017E+02 -0.40440379466E+02  0.11348719114E+03  0.41800000000E+01 0.  1.
        -11    1    3    3    0    0  0.88862322292E+02  0.22173079597E+03  0.45410457819E+02  0.24315256092E+03  0.00000000000E+00 0. -1.
         11    1    3    3    0    0  0.92302409623E+02  0.70200577705E+02  0.38062567386E+02  0.12205168974E+03  0.00000000000E+00 0.  1.
</event>
<event>
 7    1  0.5831876E-006  0.1173212E+03  0.7561462E-02  0.1247583E+00
          1   -1    0    0  501    0  0.00000000000E+00  0.00000000000E+00  0.91304790578E+03  0.91304790578E+03  0.00000000000E+00 0. -1.
         -1   -1    0    0    0  501 -0.00000000000E+00 -0.00000000000E+00 -0.24831874887E+02  0.24831874887E+02  0.00000000000E+00 0.  1.
         23    2    1    2    0    0  0.19761546593E+02  0.17846791825E+02  0.10726475358E+03  0.14404216652E+03  0.92376358847E+02 0.  0.
          5    1    1    2  502    0 -0.46633737910E+02 -0.68099829506E+02  0.53435141249E+03  0.54070435241E+03  0.41800000000E+01 0. -1.
         -5    1    1    2    0  502  0.26872191317E+02  0.50253037681E+02  0.24659986483E+03  0.25313326173E+03  0.41800000000E+01 0.  1.
        -11    1    3    3    0    0  0.17560330925E+02  0.54952139318E+02  0.76358402981E+02  0.95701141809E+02  0.00000000000E+00 0.  1.
         11    1    3    3    0    0  0.22012156678E+01 -0.37105347493E+02  0.30906350595E+02  0.48341024711E+02  0.00000000000E+00 0. -1.
</event>
<event>
 7    1  0.5831876E-006  0.1054814E+03  0.7561462E-02  0.1269174E+00
         -1   -1    0    0    0  501 -0.00000000000E+00  0.00000000000E+00  0.13703708534E+03  0.13703708534E+03  0.00000000000E+00 0.  1.
          1   -1    0    0  501    0  0.00000000000E+00 -0.00000000000E+00 -0.13457385327E+03  0.13457385327E+03  0.00000000000E+00 0. -1.
         23    2    1    2    0    0  0.76520382452E+01  0.62548996593E+02  0.54670007936E+02  0.12213346497E+03  0.89201136953E+02 0.  0.
          5    1    1    2  502    0 -0.25684057499E+02 -0.81771730770E+02 -0.75315862503E+02  0.11417634741E+03  0.41800000000E+01 0. -1.
         -5    1    1    2    0  502  0.18032019254E+02  0.19222734177E+02  0.23109086646E+02  0.35301126232E+02  0.41800000000E+01 0. -1.
        -11    1    3    3    0    0  0.25071665552E+02 -0.75894937502E+01  0.40891580566E+02  0.48562435999E+02  0.00000000000E+00 0.  1.
         11    1    3    3    0    0 -0.17419627307E+02  0.70138490343E+02  0.13778427370E+02  0.73571028971E+02  0.00000000000E+00 0. -1.
</event>
<event>
 7    1  0.5831876E-006  0.8150369E+02  0.7561462E-02  0.1324838E+00
          2   -1    0    0  501    0  0.00000000000E+00  0.00000000000E+00  0.23751999537E+03  0.23751999537E+03  0.00000000000E+00 0. -1.
         -2   -1    0    0    0  501 -0.00000000000E+00 -0.00000000000E+00 -0.48757052873E+02  0.48757052873E+02  0.00000000000E+00 0.  1.
         23    2    1    2    0    0 -0.38401744109E+01  0.52261734064E+01  0.77309596711E+02  0.11861819636E+03  0.89729833027E+02 0.  0.
          5    1    1    2  502    0 -0.34360564600E+02 -0.35346237668E+01  0.12273587931E+03  0.12757237332E+03  0.41800000000E+01 0.  1.
         -5    1    1    2    0  502  0.38200739011E+02 -0.16915496396E+01 -0.11282533525E+02  0.40086478567E+02  0.41800000000E+01 0.  1.
        -11    1    3    3    0    0  0.29260592459E+02  0.34725275512E+02  0.35003622141E+02  0.57334811358E+02  0.00000000000E+00 0.  1.
         11    1    3    3    0    0 -0.33100766870E+02 -0.29499102106E+02  0.42305974570E+02  0.61283384998E+02  0.00000000000E+00 0. -1.
</event>
<event>
 7    1  0.5831876E-006  0.7986093E+02  0.7561462E-02  0.1329447E+00
          1   -1    0    0  501    0  0.00000000000E+00  0.00000000000E+00  0.19259079393E+03  0.19259079393E+03  0.00000000000E+00 0. -1.
         -1   -1    0    0    0  501 -0.00000000000E+00 -0.00000000000E+00 -0.94315378307E+02  0.94315378307E+02  0.00000000000E+00 0.  1.
         23    2    1    2    0    0 -0.26004928788E+02 -0.35013611608E+02 -0.26998212668E+02  0.10007068798E+03  0.85924558687E+02 0.  0.
          5    1    1    2  502    0  0.17762801510E+02 -0.24351636617E+02  0.12300420620E+03  0.12671237692E+03  0.41800000000E+01 0. -1.
         -5    1    1    2    0  502  0.82421272777E+01  0.59365248225E+02  0.22694220913E+01  0.60123107334E+02  0.41800000000E+01 0.  1.
        -11    1    3    3    0    0 -0.39169698867E+00  0.13948807181E+02 -0.40796292664E+02  0.43116819728E+02  0.00000000000E+00 0.  1.
         11    1    3    3    0    0 -0.25613231799E+02 -0.48962418789E+02  0.13798079996E+02  0.56953868248E+02  0.00000000000E+00 0. -1.
</event>
<event>
 7    1  0.5831876E-006  0.9657087E+02  0.7561462E-02  0.1287677E+00
          1   -1    0    0  501    0  0.00000000000E+00  0.00000000000E+00  0.12892595454E+04  0.12892595454E+04  0.00000000000E+00 0. -1.
         -1   -1    0    0    0  501 -0.00000000000E+00 -0.00000000000E+00 -0.17866573924E+02  0.17866573924E+02  0.00000000000E+00 0.  1.
         23    2    1    2    0    0 -0.52668274976E+02  0.65583893781E+01  0.30498587263E+03  0.32258529805E+03  0.90707950890E+02 0.  0.
          5    1    1    2  502    0  0.74761532176E+02 -0.14403037957E+02  0.15457036860E+03  0.17235488228E+03  0.41800000000E+01 0. -1.
         -5    1    1    2    0  502 -0.22093257199E+02  0.78446485787E+01  0.81183673028E+03  0.81218593903E+03  0.41800000000E+01 0.  1.
        -11    1    3    3    0    0 -0.30548338491E+02  0.41615523077E+02  0.91017469475E+02  0.10463858034E+03  0.00000000000E+00 0.  1.
         11    1    3    3    0    0 -0.22119936485E+02 -0.35057133699E+02  0.21396840315E+03  0.21794671771E+03  0.00000000000E+00 0. -1.
</event>
<event>
 7    1  0.5831876E-006  0.1214028E+03  0.7561462E-02  0.1240801E+00
         -1   -1    0    0    0  501 -0.00000000000E+00  0.00000000000E+00  0.52140182914E+02  0.52140182914E+02  0.00000000000E+00 0.  1.
          1   -1    0    0  501    0  0.00000000000E+00 -0.00000000000E+00 -0.59857880483E+03  0.59857880483E+03  0.00000000000E+00 0. -1.
         23    2    1    2    0    0 -0.11654952258E+02  0.10385901399E+03 -0.86417971515E+02  0.16267202197E+03  0.89842018185E+02 0.  0.
          5    1    1    2  502    0  0.17329065654E+01 -0.24834977597E+02 -0.35637520399E+03  0.35726815909E+03  0.41800000000E+01 0. -1.
         -5    1    1    2    0  502  0.99220456931E+01 -0.79024036389E+02 -0.10364544641E+03  0.13077880669E+03  0.41800000000E+01 0. -1.
        -11    1    3    3    0    0 -0.33930878287E+01 -0.16661902583E+02 -0.99768759958E+01  0.19714717785E+02  0.00000000000E+00 0. -1.
         11    1    3    3    0    0 -0.82618644297E+01  0.12052091657E+03 -0.76441095519E+02  0.14295730418E+03  0.00000000000E+00 0.  1.
</event>
<event>
 7    1  0.5831876E-006  0.1357433E+03  0.7561462E-02  0.1219174E+00
         -1   -1    0    0    0  501 -0.00000000000E+00  0.00000000000E+00  0.32891584453E+02  0.32891584453E+02  0.00000000000E+00 0. -1.
          1   -1    0    0  501    0  0.00000000000E+00 -0.00000000000E+00 -0.77153205819E+03  0.77153205819E+03  0.00000000000E+00 0.  1.
         23    2    1    2    0    0 -0.57011323714E+02 -0.88482287914E+02 -0.23207359221E+03  0.27212845967E+03  0.95479526900E+02 0.  0.
          5    1    1    2  502    0 -0.35686668100E+01  0.64572642099E+02 -0.41396572657E+03  0.41900770478E+03  0.41800000000E+01 0. -1.
         -5    1    1    2    0  502  0.60579990524E+02  0.23909645814E+02 -0.92601154958E+02  0.11328747819E+03  0.41800000000E+01 0. -1.
        -11    1    3    3    0    0 -0.51892438091E+02  0.89008916290E+00 -0.72529735513E+02  0.89186209267E+02  0.00000000000E+00 0.  1.
         11    1    3    3    0    0 -0.51188856229E+01 -0.89372377076E+02 -0.15954385669E+03  0.18294225040E+03  0.00000000000E+00 0. -1.
</event>
<event>
 7    1  0.5831876E-006  0.1315106E+03  0.7561462E-02  0.1225231E+00
          2   -1    0    0  501    0  0.00000000000E+00  0.00000000000E+00  0.11463602609E+04  0.11463602609E+04  0.00000000000E+00 0. -1.
         -2   -1    0    0    0  501 -0.00000000000E+00 -0.00000000000E+00 -0.28098655817E+02  0.28098655817E+02  0.00000000000E+00 0.  1.
         23    2    1    2    0    0 -0.10254521735E+03 -0.30723331527E+02  0.28319997417E+03  0.32332164755E+03  0.11346901650E+03 0.  0.
          5    1    1    2  502    0  0.82499975066E+02  0.71292733965E+02  0.43389964659E+03  0.44740951656E+03  0.41800000000E+01 0. -1.
         -5    1    1    2    0  502  0.20045242286E+02 -0.40569402438E+02  0.40116198434E+03  0.40372775262E+03  0.41800000000E+01 0. -1.
        -11    1    3    3    0    0 -0.11231653173E+02  0.21015914559E+01 -0.95609130755E+01  0.14898918702E+02  0.00000000000E+00 0.  1.
         11    1    3    3    0    0 -0.91313564179E+02 -0.32824922983E+02  0.29276088725E+03  0.30842272885E+03  0.00000000000E+00 0. -1.
</event>
<event>
 7    1  0.5831876E-006  0.1099206E+03  0.7561462E-02  0.1260717E+00
         -2   -1    0    0    0  501 -0.00000000000E+00  0.00000000000E+00  0.22159134252E+03  0.22159134252E+03  0.00000000000E+00 0.  1.
          2   -1    0    0  501    0  0.00000000000E+00 -0.00000000000E+00 -0.61579317215E+02  0.61579317215E+02  0.00000000000E+00 0. -1.
         23    2    1    2    0    0 -0.38899084367E+02 -0.17521332387E+02  0.70750744426E+02  0.12368640797E+03  0.92046313487E+02 0.  0.
          5    1    1    2  502    0  0.12709805601E+02  0.64078594807E+02  0.82746514214E+02  0.10550859437E+03  0.41800000000E+01 0. -1.
         -5    1    1    2    0  502  0.26189278766E+02 -0.46557262420E+02  0.65147666606E+01  0.53975657393E+02  0.41800000000E+01 0. -1.
        -11    1    3    3    0    0 -0.62976452770E+02  0.10509902012E+02  0.51448135885E+02  0.81996355589E+02  0.00000000000E+00 0.  1.
         11    1    3    3    0    0  0.24077368403E+02 -0.28031234398E+02  0.19302608542E+02  0.41690052382E+02  0.00000000000E+00 0. -1.
</event>
<event>
 7    1  0.5831876E-006  0.1189448E+03  0.7561462E-02  0.1244848E+00
          1   -1    0    0  501    0  0.00000000000E+00  0.00000000000E+00  0.85387742079E+02  0.85387742079E+02  0.00000000000E+00 0. -1.
         -1   -1    0    0    0  501 -0.00000000000E+00 -0.00000000000E+00 -0.19643800350E+03  0.19643800350E+03  0.00000000000E+00 0.  1.
         23    2    1    2    0    0  0.34127295918E+01  0.55930678115E+02 -0.95575193210E+02  0.14388815208E+03  0.91811193616E+02 0.  0.
          5    1    1    2  502    0  0.16143432998E+02  0.37633589824E+02 -0.10286099308E+01  0.41175574682E+02  0.41800000000E+01 0.  1.
         -5    1    1    2    0  502 -0.19556162590E+02 -0.93564267939E+02 -0.14446458284E+02  0.96762018825E+02  0.41800000000E+01 0.  1.
        -11    1    3    3    0    0  0.42054295311E+02  0.43385620469E+02 -0.31820748560E+02  0.68289353903E+02  0.00000000000E+00 0. -1.
         11    1    3    3    0    0 -0.38641565719E+02  0.12545057646E+02 -0.63754444650E+02  0.75598798173E+02  0.00000000000E+00 0.  1.
</event>
<event>
 7    1  0.5831876E-006  0.7522647E+02  0.7561462E-02  0.1343171E+00
          3   -1    0    0  501    0  0.00000000000E+00  0.00000000000E+00  0.47464255517E+03  0.47464255517E+03  0.00000000000E+00 0. -1.
         -3   -1    0    0    0  501 -0.00000000000E+00 -0.00000000000E+00 -0.36983114080E+02  0.36983114080E+02  0.00000000000E+00 0.  1.
         23    2    1    2    0    0  0.28182363151E+02  0.16641190292E+02  0.48207793406E+02  0.10126823143E+03  0.82825651491E+02 0.  0.
          5    1    1    2  502    0 -0.46096568842E+02 -0.55994429689E+02  0.32225344029E+03  0.33034076648E+03  0.41800000000E+01 0.  1.
         -5    1    1    2    0  502  0.17914205691E+02  0.39353239397E+02  0.67198207394E+02  0.80016671348E+02  0.41800000000E+01 0.  1.
        -11    1    3    3    0    0  0.14924661223E+02  0.14730444305E+02 -0.21648409274E+02  0.30139428098E+02  0.00000000000E+00 0.  1.
         11    1    3    3    0    0  0.13257701928E+02  0.19107459872E+01  0.69856202679E+02  0.71128803332E+02  0.00000000000E+00 0. -1.
</event>
<event>
 7    1  0.5831876E-006  0.1421906E+03  0.7561462E-02  0.1210411E+00
          2   -1    0    0  501    0  0.00000000000E+00  0.00000000000E+00  0.81254487559E+03  0.81254487559E+03  0.00000000000E+00 0. -1.
         -2   -1    0    0    0  501 -0.00000000000E+00 -0.00000000000E+00 -0.34245519245E+02  0.34245519245E+02  0.00000000000E+00 0.  1.
         23    2    1    2    0    0  0.10333357003E+03  0.52603659369E+02  0.20484385940E+03  0.24850546052E+03  0.79680521468E+02 0.  0.
          5    1    1    2  502    0 -0.10192680692E+03 -0.71463631160E+01  0.22875791520E+03  0.25057494017E+03  0.41800000000E+01 0. -1.
         -5    1    1    2    0  502 -0.14067631128E+01 -0.45457296253E+02  0.34469758174E+03  0.34770999414E+03  0.41800000000E+01 0. -1.
        -11    1    3    3    0    0  0.89767844865E+02  0.70392858003E+02  0.19013647582E+03  0.22173249619E+03  0.00000000000E+00 0. -1.
         11    1    3    3    0    0  0.13565725167E+02 -0.17789198635E+02  0.14707383579E+02  0.26772964332E+02  0.00000000000E+00 0.  1.
</event>
<event>
 7    1  0.5831876E-006  0.1329158E+03  0.7561462E-02  0.1223192E+00
          2   -1    0    0  501    0  0.00000000000E+00  0.00000000000E+00  0.44764296342E+03  0.44764296342E+03  0.00000000000E+00 0. -1.
         -2   -1    0    0    0  501 -0.00000000000E+00 -0.00000000000E+00 -0.65183987290E+02  0.65183987290E+02  0.00000000000E+00 0.  1.
         23    2    1    2    0    0  0.92577086998E+02 -0.19825126627E+02  0.43317831174E+02  0.13915849500E+03  0.92331465651E+02 0.  0.
          5    1    1    2  502    0 -0.11830885641E+03  0.24450945130E+02  0.31661487633E+03  0.33890601432E+03  0.41800000000E+01 0. -1.
         -5    1    1    2    0  502  0.25731769412E+02 -0.46258185032E+01  0.22526268617E+02  0.34762441394E+02  0.41800000000E+01 0. -1.
        -11    1    3    3    0    0 -0.10478417956E+02  0.62102919612E+01  0.29569109816E+02  0.31979637653E+02  0.00000000000E+00 0. -1.
         11    1    3    3    0    0  0.10305550495E+03 -0.26035418588E+02  0.13748721358E+02  0.10717885734E+03  0.00000000000E+00 0.  1.
</event>
<event>
 7    1  0.5831876E-006  0.6138216E+02  0.7561462E-02  0.1392121E+00
         -1   -1    0    0    0  501 -0.00000000000E+00  0.00000000000E+00  0.97192719619E+02  0.97192719619E+02  0.00000000000E+00 0.  1.
          1   -1    0    0  501    0  0.00000000000E+00 -0.00000000000E+00 -0.13569448821E+03  0.13569448821E+03  0.00000000000E+00 0. -1.
         23    2    1    2    0    0  0.13902551107E+02 -0.16571091696E+02  0.17739055531E+02  0.94041133998E+02  0.89784067547E+02 0.  0.
          5    1    1    2  502    0 -0.52192580391E+01 -0.11972594972E+02 -0.91469801316E+02  0.92492057159E+02  0.41800000000E+01 0.  1.
         -5    1    1    2    0  502 -0.86832930683E+01  0.28543686668E+02  0.35228977196E+02  0.46354016669E+02  0.41800000000E+01 0.  1.
        -11    1    3    3    0    0  0.33673607415E+02  0.18679625597E+02  0.33125176036E+02  0.50794857380E+02  0.00000000000E+00 0.  1.
         11    1    3    3    0    0 -0.19771056308E+02 -0.35250717292E+02 -0.15386120505E+02  0.43246276618E+02  0.00000000000E+00 0. -1.
</event>
<event>
 7    1  0.5831876E-006  0.1648730E+03  0.7561462E-02  0.1183302E+00
         -1   -1    0    0    0  501 -0.00000000000E+00  0.00000000000E+00  0.27655033490E+03  0.27655033490E+03  0.00000000000E+00 0.  1.
          1   -1    0    0  501    0  0.00000000000E+00 -0.00000000000E+00 -0.18532890943E+03  0.18532890943E+03  0.00000000000E+00 0. -1.
         23    2    1    2    0    0 -0.12507937444E+03 -0.11852397051E+02  0.20121003860E+03  0.25320794132E+03  0.88563269408E+02 0.  0.
          5    1    1    2  502    0  0.14985240935E+03  0.24160844587E+01 -0.87063077890E+02  0.17337541344E+03  0.41800000000E+01 0.  1.
         -5    1    1    2    0  502 -0.24773034913E+02  0.94363125920E+01 -0.22925535240E+02  0.35295889565E+02  0.41800000000E+01 0.  1.
        -11    1    3    3    0    0 -0.11570267455E+03 -0.40694744371E+02  0.17064374512E+03  0.21014865897E+03  0.00000000000E+00 0.  1.
         11    1    3    3    0    0 -0.93766998953E+01  0.28842347321E+02  0.30566293485E+02  0.43059282359E+02  0.00000000000E+00 0. -1.
</event>
<event>
 7    1  0.5831876E-006  0.1080905E+03  0.7561462E-02  0.1264147E+00
         -2   -1    0    0    0  501 -0.00000000000E+00  0.00000000000E+00  0.23596818294E+02  0.23596818294E+02  0.00000000000E+00 0. -1.
          2   -1    0    0  501    0  0.00000000000E+00 -0.00000000000E+00 -0.84503080576E+03  0.84503080576E+03  0.00000000000E+00 0.  1.
         23    2    1    2    0    0 -0.77519671288E+02  0.12238502948E+02 -0.29230062230E+03  0.31927624097E+03  0.10167882699E+03 0.  0.
          5    1    1    2  502    0  0.32437478771E+01  0.15626391645E+02 -0.24122282692E+01  0.16673249874E+02  0.41800000000E+01 0. -1.
         -5    1    1    2    0  502  0.74275923410E+02 -0.27864894594E+02 -0.52672113690E+03  0.53267813321E+03  0.41800000000E+01 0. -1.
        -11    1    3    3    0    0 -0.12635492886E+02  0.45575793312E+02 -0.17382231322E+03  0.18014162537E+03  0.00000000000E+00 0.  1.
         11    1    3    3    0    0 -0.64884178401E+02 -0.33337290364E+02 -0.11847830908E+03  0.13913461560E+03  0.00000000000E+00 0. -1.
</event>
<event>
 7    1  0.5831876E-006  0.6692353E+02  0.7561462E-02  0.1370879E+00
         -1   -1    0    0    0  501 -0.00000000000E+00  0.00000000000E+00  0.81134504543E+02  0.81134504543E+02  0.00000000000E+00 0.  1.
          1   -1    0    0  501    0  0.00000000000E+00 -0.00000000000E+00 -0.16528532433E+03  0.16528532433E+03  0.00000000000E+00 0. -1.
         23    2    1    2    0    0  0.40971868593E+02  0.33118067547E+01 -0.23807104640E+02  0.10157880280E+03  0.89787598623E+02 0.  0.
          5    1    1    2  502    0 -0.16631248789E+02 -0.10561290988E+01 -0.98141339352E+02  0.99633873431E+02  0.41800000000E+01 0.  1.
         -5    1    1    2    0  502 -0.24340619804E+02 -0.22556776559E+01  0.37797624208E+02  0.45207152641E+02  0.41800000000E+01 0.  1.
        -11    1    3    3    0    0  0.30234826118E+02 -0.38354623715E+02 -0.31152935918E+02  0.57928639609E+02  0.00000000000E+00 0. -1.
         11    1    3    3    0    0  0.10737042476E+02  0.41666430470E+02  0.73458312772E+01  0.43650163189E+02  0.00000000000E+00 0.  1.
</event>
<event>
 7    1  0.5831876E-006  0.1931304E+03  0.7561462E-02  0.1155668E+00
         -1   -1    0    0    0  501 -0.00000000000E+00  0.00000000000E+00  0.25763559401E+03  0.25763559401E+03  0.00000000000E+00 0.  1.
          1   -1    0    0  501    0  0.00000000000E+00 -0.00000000000E+00 -0.17720966048E+03  0.17720966048E+03  0.00000000000E+00 0. -1.
         23    2    1    2    0    0 -0.81769014767E+01 -0.16778939761E+03  0.11336638789E+03  0.22282535454E+03  0.92623199331E+02 0.  0.
          5    1    1    2  502    0  0.50846432040E+02  0.15501474489E+03 -0.15223388558E+02  0.16390288205E+03  0.41800000000E+01 0.  1.
         -5    1    1    2    0  502 -0.42669530563E+02  0.12774652721E+02 -0.17717065796E+02  0.48117017895E+02  0.41800000000E+01 0.  1.
        -11    1    3    3    0    0  0.20819310292E+02 -0.12448686380E+03  0.11490901915E+03  0.17068832890E+03  0.00000000000E+00 0.  1.
         11    1    3    3    0    0 -0.28996211769E+02 -0.43302533817E+02 -0.15426312633E+01  0.52137025645E+02  0.00000000000E+00 0. -1.
</event>
<event>
 7    1  0.5831876E-006  0.9885213E+02  0.7561462E-02  0.1282728E+00
          2   -1    0    0  501    0  0.00000000000E+00  0.00000000000E+00  0.72171730052E+03  0.72171730052E+03  0.00000000000E+00 0. -1.
         -2   -1    0    0    0  501 -0.00000000000E+00 -0.00000000000E+00 -0.19165242333E+02  0.19165242333E+02  0.00000000000E+00 0.  1.
         23    2    1    2    0    0 -0.37769148436E+02  0.20610785004E+02  0.30631645181E+03  0.32314879467E+03  0.93509688351E+02 0.  0.
          5    1    1    2  502    0  0.71138451815E+02 -0.47728120691E+02  0.21628251273E+03  0.23266768263E+03  0.41800000000E+01 0.  1.
         -5    1    1    2    0  502 -0.33369303379E+02  0.27117335688E+02  0.17995309365E+03  0.18506606554E+03  0.41800000000E+01 0.  1.
        -11    1    3    3    0    0 -0.49027627970E+02  0.26813901084E+02  0.30516930340E+03  0.31024344849E+03  0.00000000000E+00 0. -1.
         11    1    3    3    0    0  0.11258479533E+02 -0.62031160804E+01  0.11471484115E+01  0.12905346178E+02  0.00000000000E+00 0.  1.
</event>
<event>
 7    1  0.5831876E-006  0.1259174E+03  0.7561462E-02  0.1233642E+00
          2   -1    0    0  501    0  0.00000000000E+00  0.00000000000E+00  0.81206141970E+02  0.81206141970E+02  0.00000000000E+00 0. -1.
         -2   -1    0    0    0  501 -0.00000000000E+00 -0.00000000000E+00 -0.26582745535E+03  0.26582745535E+03  0.00000000000E+00 0.  1.
         23    2    1    2    0    0  0.12291679469E+02 -0.73804014041E+02 -0.16071013531E+03  0.19932415982E+03  0.91127686365E+02 0.  0.
          5    1    1    2  502    0  0.31050125339E+02 -0.22244536847E+02 -0.17026249935E+02  0.42027315997E+02  0.41800000000E+01 0.  1.
         -5    1    1    2    0  502 -0.43341804808E+02  0.96048550888E+02 -0.68849281381E+01  0.10568212151E+03  0.41800000000E+01 0.  1.
        -11    1    3    3    0    0 -0.28795322063E+02 -0.71772340971E+01 -0.86547073090E+02  0.91493601539E+02  0.00000000000E+00 0.  1.
         11    1    3    3    0    0  0.41087001532E+02 -0.66626779944E+02 -0.74163062220E+02  0.10783055828E+03  0.00000000000E+00 0. -1.
</event>
<event>
 7    1  0.5831876E-006  0.1145891E+03  0.7561462E-02  0.1252300E+00
         -1   -1    0    0    0  501 -0.00000000000E+00  0.00000000000E+00  0.59947204960E+02  0.59947204960E+02  0.00000000000E+00 0.  1.
          1   -1    0    0  501    0  0.00000000000E+00 -0.00000000000E+00 -0.33462985662E+03  0.33462985662E+03  0.00000000000E+00 0. -1.
         23    2    1    2    0    0 -0.77518851306E+02  0.28360806366E+02 -0.71919199754E+02  0.14243829778E+03  0.91119645164E+02 0.  0.
          5    1    1    2  502    0  0.41820450468E+02 -0.55268330376E+02 -0.33633308911E+02  0.77150568942E+02  0.41800000000E+01 0. -1.
         -5    1    1    2    0  502  0.35698400838E+02  0.26907524010E+02 -0.16913014299E+03  0.17498819486E+03  0.41800000000E+01 0. -1.
        -11    1    3    3    0    0 -0.18455508966E+02  0.48936995419E+02 -0.78236719021E+01  0.52883316592E+02  0.00000000000E+00 0.  1.
         11    1    3    3    0    0 -0.59063342340E+02 -0.20576189053E+02 -0.64095527851E+02  0.89554981184E+02  0.00000000000E+00 0. -1.
</event>
<event>
 7    1  0.5831876E-006  0.9229348E+02  0.7561462E-02  0.1297391E+00
          3   -1    0    0  501    0  0.00000000000E+00  0.00000000000E+00  0.24874837645E+03  0.24874837645E+03  0.00000000000E+00 0. -1.
         -3   -1    0    0    0  501 -0.00000000000E+00 -0.00000000000E+00 -0.63366065961E+02  0.63366065961E+02  0.00000000000E+00 0.  1.
         23    2    1    2    0    0  0.43767978857E+02 -0.27906387348E+02  0.66343263930E+02  0.13181385581E+03  0.10138570652E+03 0.  0.
          5    1    1    2  502    0  0.15659011137E+02  0.51602210767E+02  0.99542979225E+02  0.11328843674E+03  0.41800000000E+01 0.  1.
         -5    1    1    2    0  502 -0.59426989995E+02 -0.23695823419E+02  0.19496067329E+02  0.67012149858E+02  0.41800000000E+01 0.  1.
        -11    1    3    3    0    0  0.77133394509E+01 -0.29306090804E+02 -0.21295301216E+02  0.37038256136E+02  0.00000000000E+00 0.  1.
         11    1    3    3    0    0  0.36054639406E+02  0.13997034561E+01  0.87638565147E+02  0.94775599673E+02  0.00000000000E+00 0. -1.
</event>
<event>
 7    1  0.5831876E-006  0.1425500E+03  0.7561462E-02  0.1209938E+00
          1   -1    0    0  501    0  0.00000000000E+00  0.00000000000E+00  0.17349047912E+03  0.17349047912E+03  0.00000000000E+00 0. -1.
         -1   -1    0    0    0  501 -0.00000000000E+00 -0.00000000000E+00 -0.24636546510E+03  0.24636546510E+03  0.00000000000E+00 0.  1.
         23    2    1    2    0    0  0.10483833592E+03  0.17533166961E+02 -0.17551773855E+03  0.22625588786E+03  0.95324506928E+02 0.  0.
          5    1    1    2  502    0 -0.11436807238E+03 -0.39960796618E+02  0.11398890819E+03  0.16639670921E+03  0.41800000000E+01 0. -1.
         -5    1    1    2    0  502  0.95297364612E+01  0.22427629657E+02 -0.11346155609E+02  0.27203347150E+02  0.41800000000E+01 0. -1.
        -11    1    3    3    0    0  0.38538970942E+02 -0.36912955795E+02 -0.43677148720E+02  0.68960219743E+02  0.00000000000E+00 0. -1.
         11    1    3    3    0    0  0.66299364975E+02  0.54446122756E+02 -0.13184058983E+03  0.15729566811E+03  0.00000000000E+00 0.  1.
</event>
<event>
 7    1  0.5831876E-006  0.1310808E+03  0.7561462E-02  0.1225861E+00
          1   -1    0    0  501    0  0.00000000000E+00  0.00000000000E+00  0.81367833248E+02  0.81367833248E+02  0.00000000000E+00 0. -1.
         -1   -1    0    0    0  501 -0.00000000000E+00 -0.00000000000E+00 -0.27539305472E+03  0.27539305472E+03  0.00000000000E+00 0.  1.
         23    2    1    2    0    0 -0.41913722250E+02 -0.86235869352E+02 -0.13450831370E+03  0.18828826109E+03  0.90369228902E+02 0.  0.
          5    1    1    2  502    0  0.72558033212E+02  0.99571067771E+02 -0.40293697086E+02  0.12969240589E+03  0.41800000000E+01 0. -1.
         -5    1    1    2    0  502 -0.30644310962E+02 -0.13335198419E+02 -0.19223210684E+02  0.38780220992E+02  0.41800000000E+01 0. -1.
        -11    1    3    3    0    0 -0.48739637912E+02 -0.56134330393E+02 -0.31472742429E+02  0.80728860195E+02  0.00000000000E+00 0. -1.
         11    1    3    3    0    0  0.68259156623E+01 -0.30101538959E+02 -0.10303557128E+03  0.10755940089E+03  0.00000000000E+00 0.  1.
</event>
<event>
 7    1  0.5831876E-006  0.2278499E+03  0.7561462E-02  0.1128162E+00
         -1   -1    0    0    0  501 -0.00000000000E+00  0.00000000000E+00  0.46624728359E+03  0.46624728359E+03  0.00000000000E+00 0.  1.
          1   -1    0    0  501    0  0.00000000000E+00 -0.00000000000E+00 -0.13437129036E+03  0.13437129036E+03  0.00000000000E+00 0. -1.
         23    2    1    2    0    0  0.54916200079E+01 -0.10953103103E+02  0.67848112246E+02  0.11048363406E+03  0.86331562604E+02 0.  0.
          5    1    1    2  502    0  0.74477951899E+02 -0.16301256051E+03  0.20668506628E+02  0.18045697485E+03  0.41800000000E+01 0. -1.
         -5    1    1    2    0  502 -0.79969571907E+02  0.17396566362E+03  0.24335937435E+03  0.30967796505E+03  0.41800000000E+01 0.  1.
        -11    1    3    3    0    0  0.42953811310E+02  0.67559361521E+01  0.47239477527E+02  0.64204679085E+02  0.00000000000E+00 0.  1.
         11    1    3    3    0    0 -0.37462191303E+02 -0.17709039255E+02  0.20608634719E+02  0.46278954974E+02  0.00000000000E+00 0. -1.
</event>
<event>
 7    1  0.5831876E-006  0.9980467E+02  0.7561462E-02  0.1280707E+00
         -1   -1    0    0    0  501 -0.00000000000E+00  0.00000000000E+00  0.39495404765E+02  0.39495404765E+02  0.00000000000E+00 0.  1.
          1   -1    0    0  501    0  0.00000000000E+00 -0.00000000000E+00 -0.51466561822E+03  0.51466561822E+03  0.00000000000E+00 0. -1.
         23    2    1    2    0    0 -0.51481317792E+02  0.63516407828E+02 -0.13949400705E+03  0.18672374332E+03  0.93394422588E+02 0.  0.
          5    1    1    2  502    0  0.92493108645E+01 -0.24629427241E+02 -0.29676577255E+03  0.29795898140E+03  0.41800000000E+01 0.  1.
         -5    1    1    2    0  502  0.42232006927E+02 -0.38886980586E+02 -0.38910433860E+02  0.69478298276E+02  0.41800000000E+01 0.  1.
        -11    1    3    3    0    0  0.53158312309E+01  0.58113795265E+02 -0.36062359600E+02  0.68600036747E+02  0.00000000000E+00 0.  1.
         11    1    3    3    0    0 -0.56797149023E+02  0.54026125628E+01 -0.10343164745E+03  0.11812370657E+03  0.00000000000E+00 0. -1.
</event>
<event>
 7    1  0.5831876E-006  0.1209075E+03  0.7561462E-02  0.1241607E+00
         -2   -1    0    0    0  501 -0.00000000000E+00  0.00000000000E+00  0.10984871194E+03  0.10984871194E+03  0.00000000000E+00 0.  1.
          2   -1    0    0  501    0  0.00000000000E+00 -0.00000000000E+00 -0.16814876278E+03  0.16814876278E+03  0.00000000000E+00 0. -1.
         23    2    1    2    0    0 -0.56651094770E+02  0.53959916505E+02  0.31352563687E+01  0.11817479366E+03  0.88512331889E+02 0.  0.
          5    1    1    2  502    0 -0.10010734983E+02 -0.56262079371E+02 -0.72152659051E+02  0.92136393451E+02  0.41800000000E+01 0. -1.
         -5    1    1    2    0  502  0.66661829753E+02  0.23021628660E+01  0.10717351833E+02  0.67686287608E+02  0.41800000000E+01 0. -1.
        -11    1    3    3    0    0  0.22623199139E+02  0.16014079231E+01  0.46811364226E+01  0.23157864427E+02  0.00000000000E+00 0.  1.
         11    1    3    3    0    0 -0.79274293910E+02  0.52358508582E+02 -0.15458800538E+01  0.95016929233E+02  0.00000000000E+00 0. -1.
</event>
<event>
 7    1  0.5831876E-006  0.8893081E+02  0.7561462E-02  0.1305462E+00
         -4   -1    0    0    0  501 -0.00000000000E+00  0.00000000000E+00  0.90302324486E+02  0.90302324486E+02  0.00000000000E+00 0. -1.
          4   -1    0    0  501    0  0.00000000000E+00 -0.00000000000E+00 -0.18128323272E+03  0.18128323272E+03  0.00000000000E+00 0.  1.
         23    2    1    2    0    0  0.52234610885E+02 -0.38266996045E+02 -0.23827946085E+02  0.11553968628E+03  0.92675943647E+02 0.  0.
          5    1    1    2  502    0 -0.50125679264E+02  0.59300238099E+02  0.77123377785E+01  0.78141247202E+02  0.41800000000E+01 0.  1.
         -5    1    1    2    0  502 -0.21089316214E+01 -0.21033242054E+02 -0.74865299924E+02  0.77904623718E+02  0.41800000000E+01 0.  1.
        -11    1    3    3    0    0  0.50945908782E+02 -0.12110366195E+02 -0.54248624642E+02  0.75399335983E+02  0.00000000000E+00 0.  1.
         11    1    3    3    0    0  0.12887021028E+01 -0.26156629851E+02  0.30420678557E+02  0.40140350299E+02  0.00000000000E+00 0. -1.
</event>
<event>
 7    1  0.5831876E-006  0.1146316E+03  0.7561462E-02  0.1252226E+00
         -1   -1    0    0    0  501 -0.00000000000E+00  0.00000000000E+00  0.17212220045E+03  0.17212220045E+03  0.00000000000E+00 0.  1.
          1   -1    0    0  501    0  0.00000000000E+00 -0.00000000000E+00 -0.92282513287E+02  0.92282513287E+02  0.00000000000E+00 0. -1.
         23    2    1    2    0    0 -0.61634859451E+02  0.57948825816E+01  0.29401303330E+02  0.11600459442E+03  0.93595901226E+02 0.  0.
          5    1    1    2  502    0  0.50204304495E+02 -0.58109205121E+02  0.54918442072E+02  0.94502167114E+02  0.41800000000E+01 0. -1.
         -5    1    1    2    0  502  0.11430554955E+02  0.52314322539E+02 -0.44800582391E+01  0.53897952198E+02  0.41800000000E+01 0. -1.
        -11    1    3    3    0    0  0.10849090717E+02 -0.19132621961E+02  0.32555796892E+02  0.39289183037E+02  0.00000000000E+00 0.  1.
         11    1    3    3    0    0 -0.72483950167E+02  0.24927504542E+02 -0.31544935624E+01  0.76715411387E+02  0.00000000000E+00 0. -1.
</event>
<event>
 6    1  0.5831876E-006  0.7267157E+02  0.7561462E-02  0.1351237E+00
         -2   -1    0    0    0  501 -0.00000000000E+00  0.00000000000E+00  0.57308445907E+02  0.57308445907E+02  0.00000000000E+00 0.  1.
          2   -1    0    0  501    0  0.00000000000E+00 -0.00000000000E+00 -0.28412956833E+03  0.28412956833E+03  0.00000000000E+00 0. -1.
          5    1    1    2  502    0 -0.29366780675E+02 -0.15394391437E+02 -0.22067523132E+03  0.22319145417E+03  0.41800000000E+01 0. -1.
         -5    1    1    2    0  502  0.37509462145E+02  0.54794968635E+02  0.12368348856E+02  0.67674934736E+02  0.41800000000E+01 0.  1.
        -11    1    1    2    0    0  0.71945651642E+01 -0.12730693412E+02 -0.12470013219E+02  0.19218052771E+02  0.00000000000E+00 0.  1.
         11    1    1    2    0    0 -0.15337246634E+02 -0.26669883786E+02 -0.60442267388E+01  0.31353572561E+02  0.00000000000E+00 0. -1.
</event>
<event>
 7    1  0.5831876E-006  0.9327955E+02  0.7561462E-02  0.1295099E+00
          1   -1    0    0  501    0  0.00000000000E+00  0.00000000000E+00  0.50363992997E+03  0.50363992997E+03  0.00000000000E+00 0. -1.
         -1   -1    0    0    0  501 -0.00000000000E+00 -0.00000000000E+00 -0.27032901143E+02  0.27032901143E+02  0.00000000000E+00 0.  1.
         23    2    1    2    0    0 -0.75006799581E+01 -0.26112462954E+01  0.11374650051E+03  0.14677220217E+03  0.92416092454E+02 0.  0.
          5    1    1    2  502    0 -0.33304216841E+02  0.29581645966E+02  0.30391334425E+03  0.30718892859E+03  0.41800000000E+01 0. -1.
         -5    1    1    2    0  502  0.40804896799E+02 -0.26970399671E+02  0.58947184067E+02  0.76711700350E+02  0.41800000000E+01 0. -1.
        -11    1    3    3    0    0 -0.47389871877E+02  0.14154102496E+02  0.62500250828E+02  0.79702069782E+02  0.00000000000E+00 0.  1.
         11    1    3    3    0    0  0.39889191919E+02 -0.16765348791E+02  0.51246249686E+02  0.67070132391E+02  0.00000000000E+00 0. -1.
</event>
<event>
 7    1  0.5831876E-006  0.5510051E+02  0.7561462E-02  0.1419624E+00
         -1   -1    0    0    0  501 -0.00000000000E+00  0.00000000000E+00  0.28062967191E+02  0.28062967191E+02  0.00000000000E+00 0.  1.
          1   -1    0    0  501    0  0.00000000000E+00 -0.00000000000E+00 -0.47145507789E+03  0.47145507789E+03  0.00000000000E+00 0. -1.
         23    2    1    2    0    0  0.17166967698E+02 -0.33209758038E+01 -0.10906128087E+03  0.14211801721E+03  0.89428374518E+02 0.  0.
          5    1    1    2  502    0 -0.16165870689E+02 -0.23815362482E+02 -0.83460302160E+01  0.30259469355E+02  0.41800000000E+01 0. -1.
         -5    1    1    2    0  502 -0.10010970088E+01  0.27136338286E+02 -0.32598479961E+03  0.32714055852E+03  0.41800000000E+01 0. -1.
        -11    1    3    3    0    0  0.20819466816E+02  0.20691001753E+02 -0.11366811422E+03  0.11739679698E+03  0.00000000000E+00 0. -1.
         11    1    3    3    0    0 -0.36524991176E+01 -0.24011977557E+02  0.46068333428E+01  0.24721220226E+02  0.00000000000E+00 0.  1.
</event>
<event>
 7    1  0.5831876E-006  0.9142808E+02  0.7561462E-02  0.1299430E+00
         -2   -1    0    0    0  501 -0.00000000000E+00  0.00000000000E+00  0.27699394196E+02  0.27699394196E+02  0.00000000000E+00 0.  1.
          2   -1    0    0  501    0  0.00000000000E+00 -0.00000000000E+00 -0.41248820764E+03  0.41248820764E+03  0.00000000000E+00 0. -1.
         23    2    1    2    0    0 -0.35384774892E+02 -0.77440161175E+01 -0.87595931125E+02  0.11572408274E+03  0.66384968900E+02 0.  0.
          5    1    1    2  502    0  0.26373101450E+02  0.63924158719E+02 -0.20124365488E+03  0.21283401884E+03  0.41800000000E+01 0. -1.
         -5    1    1    2    0  502  0.90116734420E+01 -0.56180142601E+02 -0.95949227443E+02  0.11162950026E+03  0.41800000000E+01 0. -1.
        -11    1    3    3    0    0 -0.45123087081E+02 -0.10653737210E+02 -0.93216275784E+02  0.10410988990E+03  0.00000000000E+00 0. -1.
         11    1    3    3    0    0  0.97383121893E+01  0.29097210925E+01  0.56203446591E+01  0.11614192835E+02  0.00000000000E+00 0.  1.
</event>
<event>
 7    1  0.5831876E-006  0.3090654E+03  0.7561462E-02  0.1080795E+00
          1   -1    0    0  501    0  0.00000000000E+00  0.00000000000E+00  0.17502658995E+04  0.17502658995E+04  0.00000000000E+00 0. -1.
         -1   -1    0    0    0  501 -0.00000000000E+00 -0.00000000000E+00 -0.60115238083E+02  0.60115238083E+02  0.00000000000E+00 0.  1.
         23    2    1    2    0    0 -0.11039068417E+03  0.28270004630E+03  0.89862519889E+03  0.95348867619E+03  0.97508913528E+02 0.  0.
          5    1    1    2  502    0  0.12237251644E+03 -0.23156949191E+03  0.73171086190E+03  0.77718576942E+03  0.41800000000E+01 0. -1.
         -5    1    1    2    0  502 -0.11981832269E+02 -0.51130554392E+02  0.59814600627E+02  0.79706691972E+02  0.41800000000E+01 0. -1.
        -11    1    3    3    0    0 -0.99505536985E+02  0.25256067146E+03  0.86685450315E+03  0.90836389971E+03  0.00000000000E+00 0. -1.
         11    1    3    3    0    0 -0.10885147185E+02  0.30139374841E+02  0.31770695737E+02  0.45124776483E+02  0.00000000000E+00 0.  1.
</event>
<event>
 7    1  0.5831876E-006  0.9887043E+02  0.7561462E-02  0.1282689E+00
          1   -1    0    0  501    0  0.00000000000E+00  0.00000000000E+00  0.70318858979E+03  0.70318858979E+03  0.00000000000E+00 0. -1.
         -1   -1    0    0    0  501 -0.00000000000E+00 -0.00000000000E+00 -0.19734115472E+02  0.19734115472E+02  0.00000000000E+00 0.  1.
         23    2    1    2    0    0  0.46446687597E+02  0.27720498092E+02  0.13638865702E+03  0.15913733836E+03  0.61620661246E+02 0.  0.
          5    1    1    2  502    0  0.21734726560E+02  0.28649887273E+02  0.28201349002E+03  0.28432779557E+03  0.41800000000E+01 0. -1.
         -5    1    1    2    0  502 -0.68181414157E+02 -0.56370385365E+02  0.26505232728E+03  0.27945757134E+03  0.41800000000E+01 0. -1.
        -11    1    3    3    0    0  0.56935812105E+02  0.22121461175E+02  0.75579538703E+02  0.97176707164E+02  0.00000000000E+00 0.  1.
         11    1    3    3    0    0 -0.10489124508E+02  0.55990369173E+01  0.60809118318E+02  0.61960631195E+02  0.00000000000E+00 0. -1.
</event>
<event>
 7    1  0.5831876E-006  0.7206184E+02  0.7561462E-02  0.1353219E+00
          2   -1    0    0  501    0  0.00000000000E+00  0.00000000000E+00  0.36504672860E+03  0.36504672860E+03  0.00000000000E+00 0. -1.
         -2   -1    0    0    0  501 -0.00000000000E+00 -0.00000000000E+00 -0.72204088438E+02  0.72204088438E+02  0.00000000000E+00 0.  1.
         23    2    1    2    0    0  0.50561812116E+01  0.27625195667E+02 -0.24603180297E+02  0.98961371248E+02  0.91647804744E+02 0.  0.
          5    1    1    2  502    0  0.19791645123E+02 -0.50508644026E+01  0.29905996367E+03  0.29978584810E+03  0.41800000000E+01 0. -1.
         -5    1    1    2    0  502 -0.24847826334E+02 -0.22574331265E+02  0.18385856787E+02  0.38503597694E+02  0.41800000000E+01 0.  1.
        -11    1    3    3    0    0 -0.23597381359E+02  0.48538303099E+02 -0.31972999332E+02  0.62730183811E+02  0.00000000000E+00 0. -1.
         11    1    3    3    0    0  0.28653562571E+02 -0.20913107431E+02  0.73698190357E+01  0.36231187436E+02  0.00000000000E+00 0.  1.
</event>
<event>
 7    1  0.5831876E-006  0.8206075E+02  0.7561462E-02  0.1323303E+00
         -1   -1    0    0    0  501 -0.00000000000E+00  0.00000000000E+00  0.12479198741E+02  0.12479198741E+02  0.00000000000E+00 0.  1.
          1   -1    0    0  501    0  0.00000000000E+00 -0.00000000000E+00 -0.24834495653E+04  0.24834495653E+04  0.00000000000E+00 0. -1.
         23    2    1    2    0    0  0.48333405751E+02 -0.19090553879E+02 -0.25610932024E+03  0.27720841280E+03  0.92476769260E+02 0.  0.
          5    1    1    2  502    0 -0.78401165664E+01 -0.55618887877E+01 -0.19211494391E+04  0.19211780349E+04  0.41800000000E+01 0. -1.
         -5    1    1    2    0  502 -0.40493289185E+02  0.24652442666E+02 -0.29371160714E+03  0.29754231626E+03  0.41800000000E+01 0.  1.
        -11    1    3    3    0    0  0.64720797118E+02 -0.42533104881E+02 -0.18991131912E+03  0.20509547952E+03  0.00000000000E+00 0.  1.
         11    1    3    3    0    0 -0.16387391366E+02  0.23442551003E+02 -0.66198001125E+02  0.72112933280E+02  0.00000000000E+00 0. -1.
</event>
<event>
 7    1  0.5831876E-006  0.1711325E+03  0.7561462E-02  0.1176672E+00
         -3   -1    0    0    0  501 -0.00000000000E+00  0.00000000000E+00  0.30365988379E+03  0.30365988379E+03  0.00000000000E+00 0.  1.
          3   -1    0    0  501    0  0.00000000000E+00 -0.00000000000E+00 -0.14090191429E+03  0.14090191429E+03  0.00000000000E+00 0. -1.
         23    2    1    2    0    0 -0.12849080543E+03  0.93516959296E+02  0.14252311136E+03  0.23223648259E+03  0.91463860705E+02 0.  0.
          5    1    1    2  502    0  0.98662504111E+02 -0.50387660526E+02 -0.52414950703E+02  0.12262954582E+03  0.41800000000E+01 0. -1.
         -5    1    1    2    0  502  0.29828301319E+02 -0.43129298770E+02  0.72649808837E+02  0.89695769666E+02  0.41800000000E+01 0.  1.
        -11    1    3    3    0    0 -0.72072634191E+02  0.98618592189E+02  0.12013141268E+03  0.17132322562E+03  0.00000000000E+00 0. -1.
         11    1    3    3    0    0 -0.56418171239E+02 -0.51016328929E+01  0.22391698683E+02  0.60913256965E+02  0.00000000000E+00 0.  1.
</event>
<event>
 7    1  0.5831876E-006  0.8976068E+02  0.7561462E-02  0.1303432E+00
         -2   -1    0    0    0  501 -0.00000000000E+00  0.00000000000E+00  0.44331018981E+03  0.44331018981E+03  0.00000000000E+00 0.  1.
          2   -1    0    0  501    0  0.00000000000E+00 -0.00000000000E+00 -0.29766586993E+02  0.29766586993E+02  0.00000000000E+00 0. -1.
         23    2    1    2    0    0 -0.12045815524E+02  0.36431216838E+02  0.17515833961E+03  0.20115000847E+03  0.91151230054E+02 0.  0.
          5    1    1    2  502    0 -0.27878105921E+02  0.33942405019E+02  0.48986502480E+02  0.65927425806E+02  0.41800000000E+01 0. -1.
         -5    1    1    2    0  502  0.39923921446E+02 -0.70373621857E+02  0.18939876074E+03  0.20599934253E+03  0.41800000000E+01 0. -1.
        -11    1    3    3    0    0  0.53840473756E+01  0.36557212839E+02  0.17943700114E+03  0.18320222475E+03  0.00000000000E+00 0.  1.
         11    1    3    3    0    0 -0.17429862900E+02 -0.12599600118E+00 -0.42786615327E+01  0.17947783713E+02  0.00000000000E+00 0. -1.
</event>
<event>
 7    1  0.5831876E-006  0.8053646E+02  0.7561462E-02  0.1327536E+00
          1   -1    0    0  501    0  0.00000000000E+00  0.00000000000E+00  0.11542551638E+03  0.11542551638E+03  0.00000000000E+00 0. -1.
         -1   -1    0    0    0  501 -0.00000000000E+00 -0.00000000000E+00 -0.11365582535E+03  0.11365582535E+03  0.00000000000E+00 0.  1.
         23    2    1    2    0    0  0.30587729852E+02  0.15678940123E+02 -0.14878552704E+02  0.98285781244E+02  0.90869604837E+02 0.  0.
          5    1    1    2  502    0 -0.64078040026E+02 -0.47298598593E+02 -0.46291638101E+01  0.79887760014E+02  0.41800000000E+01 0. -1.
         -5    1    1    2    0  502  0.33490310174E+02  0.31619658470E+02  0.21277407536E+02  0.50907800471E+02  0.41800000000E+01 0. -1.
        -11    1    3    3    0    0  0.20247058683E+02  0.65570545920E+01 -0.53339035379E+02  0.57428138098E+02  0.00000000000E+00 0.  1.
         11    1    3    3    0    0  0.10340671169E+02  0.91218855306E+01  0.38460482675E+02  0.40857643146E+02  0.00000000000E+00 0. -1.
</event>
<event>
 7    1  0.5831876E-006  0.9078557E+02  0.7561462E-02  0.1300960E+00
          1   -1    0    0  501    0  0.00000000000E+00  0.00000000000E+00  0.32033443831E+03  0.32033443831E+03  0.00000000000E+00 0. -1.
         -1   -1    0    0    0  501 -0.00000000000E+00 -0.00000000000E+00 -0.61538713347E+02  0.61538713347E+02  0.00000000000E+00 0.  1.
         23    2    1    2    0    0  0.31860519326E+02  0.56602502038E+02  0.34851173616E+02  0.11726522363E+03  0.91200835747E+02 0.  0.
          5    1    1    2  502    0 -0.24334701741E+02 -0.80480752651E+02  0.22392388584E+03  0.23922522506E+03  0.41800000000E+01 0. -1.
         -5    1    1    2    0  502 -0.75258175851E+01  0.23878250613E+02  0.20665500603E-01  0.25382702963E+02  0.41800000000E+01 0. -1.
        -11    1    3    3    0    0  0.11573910314E+02  0.48988108871E+02  0.63698169345E+02  0.81186495113E+02  0.00000000000E+00 0. -1.
         11    1    3    3    0    0  0.20286609012E+02  0.76143931674E+01 -0.28846995729E+02  0.36078728513E+02  0.00000000000E+00 0.  1.
</event>
<event>
 7    1  0.5831876E-006  0.1139268E+03  0.7561462E-02  0.1253466E+00
          1   -1    0    0  501    0  0.00000000000E+00  0.00000000000E+00  0.42869188483E+02  0.42869188483E+02  0.00000000000E+00 0. -1.
         -1   -1    0    0    0  501 -0.00000000000E+00 -0.00000000000E+00 -0.32674266182E+03  0.32674266182E+03  0.00000000000E+00 0.  1.
         23    2    1    2    0    0  0.62531713309E+01  0.43579047002E+02 -0.14554613498E+03  0.17798537686E+03  0.92503413345E+02 0.  0.
          5    1    1    2  502    0 -0.64082595992E+02 -0.37335427141E+02 -0.76082870023E+02  0.10633244444E+03  0.41800000000E+01 0. -1.
         -5    1    1    2    0  502  0.57829424661E+02 -0.62436198610E+01 -0.62244468335E+02  0.85294029005E+02  0.41800000000E+01 0. -1.
        -11    1    3    3    0    0 -0.38793586668E+02  0.26954118509E+02 -0.10501086857E+03  0.11514664298E+03  0.00000000000E+00 0.  1.
         11    1    3    3    0    0  0.45046757999E+02  0.16624928492E+02 -0.40535266413E+02  0.62838733889E+02  0.00000000000E+00 0. -1.
</event>
<event>
 7    1  0.5831876E-006  0.1031427E+03  0.7561462E-02  0.1273823E+00
         -1   -1    0    0    0  501 -0.00000000000E+00  0.00000000000E+00  0.17638587080E+03  0.17638587080E+03  0.00000000000E+00 0.  1.
          1   -1    0    0  501    0  0.00000000000E+00 -0.00000000000E+00 -0.10297692492E+03  0.10297692492E+03  0.00000000000E+00 0. -1.
         23    2    1    2    0    0  0.53137919730E+02 -0.96173866735E+01  0.94869143470E+02  0.14143834066E+03  0.89936183958E+02 0.  0.
          5    1    1    2  502    0  0.58913303000E+01 -0.32816731154E+02 -0.49555434602E+02  0.59873693013E+02  0.41800000000E+01 0.  1.
         -5    1    1    2    0  502 -0.59029250030E+02  0.42434117828E+02  0.28095237010E+02  0.78050762056E+02  0.41800000000E+01 0.  1.
        -11    1    3    3    0    0  0.24319007563E+02 -0.46847389468E+02  0.71511510132E+02  0.88881877288E+02  0.00000000000E+00 0.  1.
         11    1    3    3    0    0  0.28818912167E+02  0.37230002795E+02  0.23357633338E+02  0.52556463368E+02  0.00000000000E+00 0. -1.
</event>
<event>
 7    1  0.5831876E-006  0.1414194E+03  0.7561462E-02  0.1211432E+00
         -1   -1    0    0    0  501 -0.00000000000E+00  0.00000000000E+00  0.52930229254E+02  0.52930229254E+02  0.00000000000E+00 0.  1.
          1   -1    0    0  501    0  0.00000000000E+00 -0.00000000000E+00 -0.45235174701E+03  0.45235174701E+03  0.00000000000E+00 0. -1.
         23    2    1    2    0    0 -0.98264455256E+02  0.39911403928E+02 -0.17871486975E+03  0.22566795114E+03  0.87967017514E+02 0.  0.
          5    1    1    2  502    0  0.27138485125E+02  0.49766936564E+02 -0.65549264941E+02  0.86760727776E+02  0.41800000000E+01 0. -1.
         -5    1    1    2    0  502  0.71125970131E+02 -0.89678340492E+02 -0.15515738307E+03  0.19285329736E+03  0.41800000000E+01 0.  1.
        -11    1    3    3    0    0 -0.20107464956E+02  0.24682668407E+02 -0.12650827354E+03  0.13045262566E+03  0.00000000000E+00 0.  1.
         11    1    3    3    0    0 -0.78156990300E+02  0.15228735520E+02 -0.52206596208E+02  0.95215325478E+02  0.00000000000E+00 0. -1.
</event>
<event>
 7    1  0.5831876E-006  0.1067999E+03  0.7561462E-02  0.1266613E+00
         -2   -1    0    0    0  501 -0.00000000000E+00  0.00000000000E+00  0.23779916082E+02  0.23779916082E+02  0.00000000000E+00 0. -1.
          2   -1    0    0  501    0  0.00000000000E+00 -0.00000000000E+00 -0.55910205730E+03  0.55910205730E+03  0.00000000000E+00 0.  1.
         23    2    1    2    0    0  0.28535750910E+02 -0.24047682945E+02 -0.21097954497E+03  0.23324945905E+03  0.92197405698E+02 0.  0.
          5    1    1    2  502    0  0.29439923764E+02  0.46890682109E+02 -0.22915331001E+03  0.23578413236E+03  0.41800000000E+01 0. -1.
         -5    1    1    2    0  502 -0.57975674674E+02 -0.22842999164E+02 -0.95189286235E+02  0.11384838198E+03  0.41800000000E+01 0. -1.
        -11    1    3    3    0    0 -0.24364840182E+02 -0.33964720504E+02 -0.61369934103E+02  0.74253057094E+02  0.00000000000E+00 0. -1.
         11    1    3    3    0    0  0.52900591093E+02  0.99170375587E+01 -0.14960961087E+03  0.15899640196E+03  0.00000000000E+00 0.  1.
</event>
<event>
 7    1  0.5831876E-006  0.1407207E+03  0.7561462E-02  0.1212363E+00
          2   -1    0    0  501    0  0.00000000000E+00  0.00000000000E+00  0.47722504510E+03  0.47722504510E+03  0.00000000000E+00 0. -1.
         -2   -1    0    0    0  501 -0.00000000000E+00 -0.00000000000E+00 -0.68975090341E+02  0.68975090341E+02  0.00000000000E+00 0.  1.
         23    2    1    2    0    0  0.24012552698E+02  0.11185487312E+03  0.60608393608E+02  0.15943033240E+03  0.93040519055E+02 0.  0.
          5    1    1    2  502    0 -0.62248967133E+02 -0.52344137490E+02  0.98810692232E+02  0.12804635074E+03  0.41800000000E+01 0. -1.
         -5    1    1    2    0  502  0.38236414435E+02 -0.59510735627E+02  0.24883086892E+03  0.25872345230E+03  0.41800000000E+01 0. -1.
        -11    1    3    3    0    0  0.41993379814E+02  0.53098867651E+02 -0.70154048419E+01  0.68059897143E+02  0.00000000000E+00 0.  1.
         11    1    3    3    0    0 -0.17980827116E+02  0.58756005466E+02  0.67623798450E+02  0.91370435256E+02  0.00000000000E+00 0. -1.
</event>
<event>
 7    1  0.5831876E-006  0.1810429E+03  0.7561462E-02  0.1166797E+00
          2   -1    0    0  501    0  0.00000000000E+00  0.00000000000E+00  0.11194801701E+04  0.11194801701E+04  0.00000000000E+00 0. -1.
         -2   -1    0    0    0  501 -0.00000000000E+00 -0.00000000000E+00 -0.36731043736E+02  0.36731043736E+02  0.00000000000E+00 0.  1.
         23    2    1    2    0    0  0.16796653741E+03  0.43613941713E+02  0.42261389564E+03  0.46227895670E+03  0.70600250835E+02 0.  0.
          5    1    1    2  502    0 -0.15011599200E+03 -0.20448664768E+02  0.64113976761E+03  0.65881001279E+03  0.41800000000E+01 0. -1.
         -5    1    1    2    0  502 -0.17850545413E+02 -0.23165276944E+02  0.18995463066E+02  0.35122244298E+02  0.41800000000E+01 0. -1.
        -11    1    3    3    0    0  0.41466517075E+02  0.34874442417E+02  0.77118457980E+02  0.94249431476E+02  0.00000000000E+00 0.  1.
         11    1    3    3    0    0  0.12650002033E+03  0.87394992953E+01  0.34549543766E+03  0.36802952523E+03  0.00000000000E+00 0. -1.
</event>
<event>
 7    1  0.5831876E-006  0.9104550E+02  0.7561462E-02  0.1300339E+00
          4   -1    0    0  501    0  0.00000000000E+00  0.00000000000E+00  0.29113975362E+03  0.29113975362E+03  0.00000000000E+00 0. -1.
         -4   -1    0    0    0  501 -0.00000000000E+00 -0.00000000000E+00 -0.51423427009E+02  0.51423427009E+02  0.00000000000E+00 0.  1.
         23    2    1    2    0    0  0.54335876935E+02  0.13610166726E+02  0.86027224008E+02  0.13663758305E+03  0.90174950354E+02 0.  0.
          5    1    1    2  502    0 -0.91566301146E+01 -0.41200340127E+02 -0.95027144117E+00  0.42422721712E+02  0.41800000000E+01 0. -1.
         -5    1    1    2    0  502 -0.45179246821E+02  0.27590173401E+02  0.15463937404E+03  0.16350287586E+03  0.41800000000E+01 0. -1.
        -11    1    3    3    0    0  0.51381096922E+02 -0.18290412307E+02  0.11813744108E+02  0.55804308553E+02  0.00000000000E+00 0.  1.
         11    1    3    3    0    0  0.29547800135E+01  0.31900579032E+02  0.74213479900E+02  0.80833274500E+02  0.00000000000E+00 0. -1.
</event>
<event>
 6    1  0.5831876E-006  0.1061945E+03  0.7561462E-02  0.1267784E+00
          3   -1    0    0  501    0  0.00000000000E+00  0.00000000000E+00  0.13829813422E+04  0.13829813422E+04  0.00000000000E+00 0. -1.
         -3   -1    0    0    0  501 -0.00000000000E+00 -0.00000000000E+00 -0.10807570903E+02  0.10807570903E+02  0.00000000000E+00 0.  1.
          5    1    1    2  502    0  0.41226247308E+02  0.16431167958E+02  0.14151507196E+03  0.14836972312E+03  0.41800000000E+01 0. -1.
         -5    1    1    2    0  502  0.11085419444E+01 -0.78689539154E+02  0.88076935591E+03  0.88428807702E+03  0.41800000000E+01 0. -1.
        -11    1    1    2    0    0 -0.51474676670E+02  0.40809360582E+02  0.27251526077E+03  0.28032055508E+03  0.00000000000E+00 0.  1.
         11    1    1    2    0    0  0.91398874178E+01  0.21449010614E+02  0.77374082605E+02  0.80810557833E+02  0.00000000000E+00 0. -1.
</event>
<event>
 7    1  0.5831876E-006  0.1061757E+03  0.7561462E-02  0.1267820E+00
          2   -1    0    0  501    0  0.00000000000E+00  0.00000000000E+00  0.43956628548E+03  0.43956628548E+03  0.00000000000E+00 0. -1.
         -2   -1    0    0    0  501 -0.00000000000E+00 -0.00000000000E+00 -0.42305749850E+02  0.42305749850E+02  0.00000000000E+00 0.  1.
         23    2    1    2    0    0 -0.57646062781E+02 -0.35589842183E+02  0.98453728147E+02  0.15093031113E+03  0.92179806954E+02 0.  0.
          5    1    1    2  502    0  0.27143598262E+01 -0.38482131512E+02  0.15708411466E+03  0.16180585179E+03  0.41800000000E+01 0.  1.
         -5    1    1    2    0  502  0.54931702955E+02  0.74071973694E+02  0.14172269283E+03  0.16913587242E+03  0.41800000000E+01 0.  1.
        -11    1    3    3    0    0 -0.24542858349E+00 -0.22319293740E+02 -0.12297429357E+02  0.25484071045E+02  0.00000000000E+00 0.  1.
         11    1    3    3    0    0 -0.57400634198E+02 -0.13270548442E+02  0.11075115750E+03  0.12544624008E+03  0.00000000000E+00 0. -1.
</event>
<event>
 7    1  0.5831876E-006  0.1132448E+03  0.7561462E-02  0.1254676E+00
          2   -1    0    0  501    0  0.00000000000E+00  0.00000000000E+00  0.45803670800E+03  0.45803670800E+03  0.00000000000E+00 0.  1.
         -2   -1    0    0    0  501 -0.00000000000E+00 -0.00000000000E+00 -0.42008670168E+02  0.42008670168E+02  0.00000000000E+00 0. -1.
         23    2    1    2    0    0  0.51649701946E+02  0.37244141134E+02  0.85685478717E+02  0.14111829213E+03  0.92290591894E+02 0.  0.
          5    1    1    2  502    0  0.60148689928E+01  0.38411154388E+02  0.54230712229E+02  0.66858342630E+02  0.41800000000E+01 0.  1.
         -5    1    1    2    0  502 -0.57664570939E+02 -0.75655295522E+02  0.27611184689E+03  0.29206874340E+03  0.41800000000E+01 0.  1.
        -11    1    3    3    0    0  0.66935577241E+02  0.37802493841E+02  0.28602342213E+02  0.82021302241E+02  0.00000000000E+00 0. -1.
         11    1    3    3    0    0 -0.15285875296E+02 -0.55835270722E+00  0.57083136504E+02  0.59096989893E+02  0.00000000000E+00 0.  1.
</event>
<event>
 7    1  0.5831876E-006  0.1030293E+03  0.7561462E-02  0.1274052E+00
         -3   -1    0    0    0  501 -0.00000000000E+00  0.00000000000E+00  0.37172707925E+03  0.37172707925E+03  0.00000000000E+00 0.  1.
          3   -1    0    0  501    0  0.00000000000E+00 -0.00000000000E+00 -0.42947790815E+02  0.42947790815E+02  0.00000000000E+00 0. -1.
         23    2    1    2    0    0  0.11235845736E+01 -0.87162994498E-01  0.25016981784E+03  0.26693148641E+03  0.93092484332E+02 0.  0.
          5    1    1    2  502    0 -0.45844199421E+02 -0.35870187620E+02  0.11740251853E+02  0.59528706470E+02  0.41800000000E+01 0.  1.
         -5    1    1    2    0  502  0.44720614848E+02  0.35957350614E+02  0.66869218738E+02  0.88214677181E+02  0.41800000000E+01 0.  1.
        -11    1    3    3    0    0 -0.44471187575E+02 -0.21391217859E+01  0.90379819985E+02  0.10075105075E+03  0.00000000000E+00 0.  1.
         11    1    3    3    0    0  0.45594772148E+02  0.20519587914E+01  0.15978999786E+03  0.16618043566E+03  0.00000000000E+00 0. -1.
</event>
<event>
 7    1  0.5831876E-006  0.1003680E+03  0.7561462E-02  0.1279524E+00
          1   -1    0    0  501    0  0.00000000000E+00  0.00000000000E+00  0.42971110226E+03  0.42971110226E+03  0.00000000000E+00 0. -1.
         -1   -1    0    0    0  501 -0.00000000000E+00 -0.00000000000E+00 -0.53302581158E+02  0.53302581158E+02  0.00000000000E+00 0.  1.
         23    2    1    2    0    0  0.67506512232E+02  0.46517256561E+02  0.68820217554E+02  0.14099170255E+03  0.91768477657E+02 0.  0.
          5    1    1    2  502    0 -0.23139653238E+02 -0.43287064647E+01 -0.41798122578E+01  0.24271886662E+02  0.41800000000E+01 0. -1.
         -5    1    1    2    0  502 -0.44366858994E+02 -0.42188550096E+02  0.31176811581E+03  0.31775009421E+03  0.41800000000E+01 0. -1.
        -11    1    3    3    0    0  0.44886602508E+02 -0.17029452109E+02  0.53383008731E+02  0.71795229264E+02  0.00000000000E+00 0. -1.
         11    1    3    3    0    0  0.22619909723E+02  0.63546708670E+02  0.15437208824E+02  0.69196473284E+02  0.00000000000E+00 0.  1.
</event>
<event>
 7    1  0.5831876E-006  0.1366637E+03  0.7561462E-02  0.1217890E+00
          1   -1    0    0  501    0  0.00000000000E+00  0.00000000000E+00  0.19313395965E+04  0.19313395965E+04  0.00000000000E+00 0. -1.
         -1   -1    0    0    0  501 -0.00000000000E+00 -0.00000000000E+00 -0.86927641350E+02  0.86927641350E+02  0.00000000000E+00 0.  1.
         23    2    1    2    0    0  0.53976043206E+00  0.54008889132E+02 -0.55652706038E+02  0.10883315370E+03  0.76355616738E+02 0.  0.
          5    1    1    2  502    0  0.38583806823E+02 -0.10974699617E+03  0.99115722803E+03  0.99796955684E+03  0.41800000000E+01 0. -1.
         -5    1    1    2    0  502 -0.39123567255E+02  0.55738107041E+02  0.90890743315E+03  0.91146452730E+03  0.41800000000E+01 0.  1.
        -11    1    3    3    0    0  0.34604287967E+02  0.17559377768E+02 -0.41844729123E+02  0.57068115868E+02  0.00000000000E+00 0.  1.
         11    1    3    3    0    0 -0.34064527535E+02  0.36449511364E+02 -0.13807976915E+02  0.51765037828E+02  0.00000000000E+00 0. -1.
</event>
<event>
 7    1  0.5831876E-006  0.9576310E+02  0.7561462E-02  0.1289467E+00
         -1   -1    0    0    0  501 -0.00000000000E+00  0.00000000000E+00  0.26334449912E+02  0.26334449912E+02  0.00000000000E+00 0.  1.
          1   -1    0    0  501    0  0.00000000000E+00 -0.00000000000E+00 -0.70761594879E+03  0.70761594879E+03  0.00000000000E+00 0. -1.
         23    2    1    2    0    0  0.79576687480E+02 -0.15372130372E+02 -0.27225538041E+03  0.29861282378E+03  0.92075375565E+02 0.  0.
          5    1    1    2  502    0  0.14130275739E+02  0.51290167637E+00  0.68814026070E+00  0.14760545302E+02  0.41800000000E+01 0.  1.
         -5    1    1    2    0  502 -0.93706963219E+02  0.14859228696E+02 -0.40971425873E+03  0.42057702962E+03  0.41800000000E+01 0.  1.
        -11    1    3    3    0    0  0.54372182907E+02 -0.51576228835E+01 -0.26485588992E+03  0.27042850769E+03  0.00000000000E+00 0. -1.
         11    1    3    3    0    0  0.25204504574E+02 -0.10214507489E+02 -0.73994904864E+01  0.28184316091E+02  0.00000000000E+00 0.  1.
</event>
<event>
 7    1  0.5831876E-006  0.6365615E+02  0.7561462E-02  0.1383099E+00
          1   -1    0    0  501    0  0.00000000000E+00  0.00000000000E+00  0.53644736121E+03  0.53644736121E+03  0.00000000000E+00 0. -1.
         -1   -1    0    0    0  501 -0.00000000000E+00 -0.00000000000E+00 -0.27928397352E+02  0.27928397352E+02  0.00000000000E+00 0.  1.
         23    2    1    2    0    0  0.13029906597E+02  0.85440106538E+01  0.99922848910E+02  0.13677353027E+03  0.92084983925E+02 0.  0.
          5    1    1    2  502    0 -0.20535247899E+02 -0.26076230326E+02  0.20965530911E+02  0.39480274577E+02  0.41800000000E+01 0.  1.
         -5    1    1    2    0  502  0.75053413020E+01  0.17532219672E+02  0.38763058403E+03  0.38812195371E+03  0.41800000000E+01 0.  1.
        -11    1    3    3    0    0  0.37328538715E+02 -0.15252710380E+02  0.11343908778E+02  0.41889727176E+02  0.00000000000E+00 0. -1.
         11    1    3    3    0    0 -0.24298632118E+02  0.23796721034E+02  0.88578940132E+02  0.94883803095E+02  0.00000000000E+00 0.  1.
</event>
<event>
 7    1  0.5831876E-006  0.1354275E+03  0.7561462E-02  0.1219618E+00
          1   -1    0    0  501    0  0.00000000000E+00  0.00000000000E+00  0.18889858288E+03  0.18889858288E+03  0.00000000000E+00 0. -1.
         -1   -1    0    0    0  501 -0.00000000000E+00 -0.00000000000E+00 -0.12754084360E+03  0.12754084360E+03  0.00000000000E+00 0.  1.
         23    2    1    2    0    0 -0.95706184574E+02 -0.53543297168E+02  0.27534209938E+02  0.14668489592E+03  0.93443927236E+02 0.  0.
          5    1    1    2  502    0  0.12713507465E+02  0.54355111551E+02 -0.31336568029E+02  0.64152664166E+02  0.41800000000E+01 0. -1.
         -5    1    1    2    0  502  0.82992677109E+02 -0.81181438255E+00  0.65160097368E+02  0.10560186639E+03  0.41800000000E+01 0. -1.
        -11    1    3    3    0    0 -0.99388144306E+02 -0.24320133016E+02  0.45718224685E+02  0.11206974688E+03  0.00000000000E+00 0. -1.
         11    1    3    3    0    0  0.36819597316E+01 -0.29223164152E+02 -0.18184014747E+02  0.34615149037E+02  0.00000000000E+00 0.  1.
</event>
<event>
 7    1  0.5831876E-006  0.1084687E+03  0.7561462E-02  0.1263432E+00
         -2   -1    0    0    0  501 -0.00000000000E+00  0.00000000000E+00  0.11482222359E+02  0.11482222359E+02  0.00000000000E+00 0.  1.
          2   -1    0    0  501    0  0.00000000000E+00 -0.00000000000E+00 -0.11545781532E+04  0.11545781532E+04  0.00000000000E+00 0. -1.
         23    2    1    2    0    0  0.16405958507E+02 -0.19375379481E+02 -0.42351271148E+03  0.43524410261E+03  0.97107421248E+02 0.  0.
          5    1    1    2  502    0  0.49777238793E+02 -0.25190746736E+01 -0.18315840444E+03  0.18986466958E+03  0.41800000000E+01 0. -1.
         -5    1    1    2    0  502 -0.66183197300E+02  0.21894454154E+02 -0.53642481489E+03  0.54095160334E+03  0.41800000000E+01 0. -1.
        -11    1    3    3    0    0 -0.38927098342E+02 -0.14493140642E+02 -0.23785157689E+03  0.24145132582E+03  0.00000000000E+00 0.  1.
         11    1    3    3    0    0  0.55333056849E+02 -0.48822388387E+01 -0.18566113459E+03  0.19379277679E+03  0.00000000000E+00 0. -1.
</event>
<event>
 7    1  0.5831876E-006  0.1028232E+03  0.7561462E-02  0.1274469E+00
          2   -1    0    0  501    0  0.00000000000E+00  0.00000000000E+00  0.34052562370E+03  0.34052562370E+03  0.00000000000E+00 0. -1.
         -2   -1    0    0    0  501 -0.00000000000E+00 -0.00000000000E+00 -0.42279145780E+02  0.42279145780E+02  0.00000000000E+00 0.  1.
         23    2    1    2    0    0 -0.12334172568E+02  0.80792978159E+01  0.53438541091E+02  0.10749434475E+03  0.92097500586E+02 0.  0.
          5    1    1    2  502    0 -0.44468123784E+02 -0.40222730987E+02  0.10566670152E+03  0.12156564618E+03  0.41800000000E+01 0.  1.
         -5    1    1    2    0  502  0.56802296352E+02  0.32143433171E+02  0.13914123531E+03  0.15374477855E+03  0.41800000000E+01 0.  1.
        -11    1    3    3    0    0 -0.38309693049E+02  0.27961585755E+02  0.31892455890E+01  0.47535819619E+02  0.00000000000E+00 0.  1.
         11    1    3    3    0    0  0.25975520481E+02 -0.19882287939E+02  0.50249295502E+02  0.59958525135E+02  0.00000000000E+00 0. -1.
</event>
<event>
 7    1  0.5831876E-006  0.1161038E+03  0.7561462E-02  0.1249667E+00
          2   -1    0    0  501    0  0.00000000000E+00  0.00000000000E+00  0.41698328278E+02  0.41698328278E+02  0.00000000000E+00 0. -1.
         -2   -1    0    0    0  501 -0.00000000000E+00 -0.00000000000E+00 -0.32695581396E+03  0.32695581396E+03  0.00000000000E+00 0.  1.
         23    2    1    2    0    0 -0.37273001305E+02 -0.39061663788E+01 -0.14260719097E+03  0.17525868675E+03  0.94732579413E+02 0.  0.
          5    1    1    2  502    0  0.54109376010E+02  0.54506096484E+02 -0.79136937045E+02  0.11035790108E+03  0.41800000000E+01 0.  1.
         -5    1    1    2    0  502 -0.16836374706E+02 -0.50599930105E+02 -0.63513357662E+02  0.83037554404E+02  0.41800000000E+01 0.  1.
        -11    1    3    3    0    0 -0.63052221681E+02 -0.25654855276E+02 -0.98524692417E+02  0.11975336853E+03  0.00000000000E+00 0.  1.
         11    1    3    3    0    0  0.25779220376E+02  0.21748688897E+02 -0.44082498556E+02  0.55505318222E+02  0.00000000000E+00 0. -1.
</event>
<event>
 7    1  0.5831876E-006  0.1237556E+03  0.7561462E-02  0.1237027E+00
         -1   -1    0    0    0  501 -0.00000000000E+00  0.00000000000E+00  0.89741838895E+02  0.89741838895E+02  0.00000000000E+00 0.  1.
          1   -1    0    0  501    0  0.00000000000E+00 -0.00000000000E+00 -0.22311747418E+03  0.22311747418E+03  0.00000000000E+00 0. -1.
         23    2    1    2    0    0  0.41732286340E+02 -0.75948741910E+02 -0.24155716191E+02  0.12555060678E+03  0.87576601419E+02 0.  0.
          5    1    1    2  502    0  0.30180555823E+02  0.60983431468E+02 -0.18756285764E+02  0.70704423618E+02  0.41800000000E+01 0.  1.
         -5    1    1    2    0  502 -0.71912842164E+02  0.14965310441E+02 -0.90463633332E+02  0.11660428268E+03  0.41800000000E+01 0.  1.
        -11    1    3    3    0    0 -0.14863880621E+02 -0.27528561036E+02 -0.38594096885E+02  0.49681595528E+02  0.00000000000E+00 0. -1.
         11    1    3    3    0    0  0.56596166962E+02 -0.48420180873E+02  0.14438380694E+02  0.75869011247E+02  0.00000000000E+00 0.  1.
</event>
<event>
 7    1  0.5831876E-006  0.1031419E+03  0.7561462E-02  0.1273824E+00
          2   -1    0    0  501    0  0.00000000000E+00  0.00000000000E+00  0.25078878522E+03  0.25078878522E+03  0.00000000000E+00 0.  1.
         -2   -1    0    0    0  501 -0.00000000000E+00 -0.00000000000E+00 -0.53192920166E+02  0.53192920166E+02  0.00000000000E+00 0. -1.
         23    2    1    2    0    0  0.21013590326E+02 -0.75229613106E+01  0.42451437652E+02  0.10344110525E+03  0.91650268798E+02 0.  0.
          5    1    1    2  502    0 -0.40297990985E+02  0.50708002960E+02  0.40630177723E+02  0.76573581498E+02  0.41800000000E+01 0.  1.
         -5    1    1    2    0  502  0.19284400659E+02 -0.43185041649E+02  0.11451424967E+03  0.12396701864E+03  0.41800000000E+01 0.  1.
        -11    1    3    3    0    0  0.41449826572E+02  0.30003058895E+02  0.18203236151E+02  0.54310491365E+02  0.00000000000E+00 0.  1.
         11    1    3    3    0    0 -0.20436236246E+02 -0.37526020206E+02  0.24248201501E+02  0.49130613882E+02  0.00000000000E+00 0. -1.
</event>
<event>
 7    1  0.5831876E-006  0.1057507E+03  0.7561462E-02  0.1268648E+00
         -1   -1    0    0    0  501 -0.00000000000E+00  0.00000000000E+00  0.23822043526E+02  0.23822043526E+02  0.00000000000E+00 0.  1.
          1   -1    0    0  501    0  0.00000000000E+00 -0.00000000000E+00 -0.71299603952E+03  0.71299603952E+03  0.00000000000E+00 0. -1.
         23    2    1    2    0    0 -0.60129689169E+02 -0.33699607666E+02 -0.23479027148E+03  0.26051672125E+03  0.89393777157E+02 0.  0.
          5    1    1    2  502    0 -0.10623525473E+02 -0.29063803265E+02 -0.23897675466E+03  0.24100814430E+03  0.41800000000E+01 0.  1.
         -5    1    1    2    0  502  0.70753214642E+02  0.62763410931E+02 -0.21540696986E+03  0.23529321749E+03  0.41800000000E+01 0.  1.
        -11    1    3    3    0    0 -0.33701994390E+02  0.94525070836E+01 -0.20998169058E+02  0.40817856630E+02  0.00000000000E+00 0.  1.
         11    1    3    3    0    0 -0.26427694779E+02 -0.43152114749E+02 -0.21379210242E+03  0.21969886462E+03  0.00000000000E+00 0. -1.
</event>
<event>
 7    1  0.5831876E-006  0.8414302E+02  0.7561462E-02  0.1317689E+00
          3   -1    0    0  501    0  0.00000000000E+00  0.00000000000E+00  0.16918733253E+03  0.16918733253E+03  0.00000000000E+00 0. -1.
         -3   -1    0    0    0  501 -0.00000000000E+00 -0.00000000000E+00 -0.78321105961E+02  0.78321105961E+02  0.00000000000E+00 0.  1.
         23    2    1    2    0    0  0.14117305092E+02  0.28271720492E+02  0.16734208319E+02  0.98697413003E+02  0.91992157941E+02 0.  0.
          5    1    1    2  502    0  0.37686566319E+02 -0.56587401724E+02  0.27484144833E+02  0.73452446740E+02  0.41800000000E+01 0. -1.
         -5    1    1    2    0  502 -0.51803871411E+02  0.28315681232E+02  0.46647873417E+02  0.75358578749E+02  0.41800000000E+01 0. -1.
        -11    1    3    3    0    0 -0.63600900804E+01  0.15740131143E+02  0.52749419154E+02  0.55413930517E+02  0.00000000000E+00 0. -1.
         11    1    3    3    0    0  0.20477395172E+02  0.12531589349E+02 -0.36015210835E+02  0.43283482486E+02  0.00000000000E+00 0.  1.
</event>
<event>
 7    1  0.5831876E-006  0.4146403E+03  0.7561462E-02  0.1038825E+00
         -2   -1    0    0    0  501 -0.00000000000E+00  0.00000000000E+00  0.90912828292E+02  0.90912828292E+02  0.00000000000E+00 0. -1.
          2   -1    0    0  501    0  0.00000000000E+00 -0.00000000000E+00 -0.23187601184E+04  0.23187601184E+04  0.00000000000E+00 0.  1.
         23    2    1    2    0    0 -0.37293791435E+03 -0.14512632089E+03 -0.58753982512E+03  0.71662871760E+03  0.90605385094E+02 0.  0.
          5    1    1    2  502    0  0.97134608550E+02 -0.17897487638E+02 -0.38273040410E+03  0.39529164786E+03  0.41800000000E+01 0. -1.
         -5    1    1    2    0  502  0.27580330580E+03  0.16302380853E+03 -0.12575770609E+04  0.12977525813E+04  0.41800000000E+01 0. -1.
        -11    1    3    3    0    0 -0.14430222848E+03 -0.10493123231E+02 -0.22044317103E+03  0.26368244241E+03  0.00000000000E+00 0. -1.
         11    1    3    3    0    0 -0.22863568588E+03 -0.13463319766E+03 -0.36709665409E+03  0.45294627519E+03  0.00000000000E+00 0.  1.
</event>
<event>
 7    1  0.5831876E-006  0.1977206E+03  0.7561462E-02  0.1151676E+00
         -2   -1    0    0    0  501 -0.00000000000E+00  0.00000000000E+00  0.10673650670E+03  0.10673650670E+03  0.00000000000E+00 0.  1.
          2   -1    0    0  501    0  0.00000000000E+00 -0.00000000000E+00 -0.87793814435E+03  0.87793814435E+03  0.00000000000E+00 0. -1.
         23    2    1    2    0    0  0.33214013144E+02 -0.87967260388E+01  0.43607503482E+02  0.11067027349E+03  0.95737881824E+02 0.  0.
          5    1    1    2  502    0 -0.10761246515E+03 -0.11168266067E+03 -0.57418885477E+03  0.59478044074E+03  0.41800000000E+01 0. -1.
         -5    1    1    2    0  502  0.74398452003E+02  0.12047938671E+03 -0.24062028636E+03  0.27922393681E+03  0.41800000000E+01 0.  1.
        -11    1    3    3    0    0  0.20593008278E+02 -0.50777872632E+02  0.10635896123E+02  0.55817440154E+02  0.00000000000E+00 0.  1.
         11    1    3    3    0    0  0.12621004865E+02  0.41981146594E+02  0.32971607359E+02  0.54852833336E+02  0.00000000000E+00 0. -1.
</event>
<event>
 7    1  0.5831876E-006  0.9986127E+02  0.7561462E-02  0.1280588E+00
         -2   -1    0    0    0  501 -0.00000000000E+00  0.00000000000E+00  0.48907925297E+02  0.48907925297E+02  0.00000000000E+00 0. -1.
          2   -1    0    0  501    0  0.00000000000E+00 -0.00000000000E+00 -0.29114096796E+03  0.29114096796E+03  0.00000000000E+00 0.  1.
         23    2    1    2    0    0  0.33757054665E+01  0.33531626472E+02 -0.53263366983E+02  0.11093384228E+03  0.91288365847E+02 0.  0.
          5    1    1    2  502    0 -0.49089685919E+02 -0.42056908618E+02 -0.16364556705E+03  0.17599978648E+03  0.41800000000E+01 0.  1.
         -5    1    1    2    0  502  0.45713980453E+02  0.85252821464E+01 -0.25324108625E+02  0.53115264493E+02  0.41800000000E+01 0.  1.
        -11    1    3    3    0    0  0.35934813442E+02 -0.66436606614E+01 -0.45945624477E+02  0.58706468576E+02  0.00000000000E+00 0.  1.
         11    1    3    3    0    0 -0.32559107976E+02  0.40175287134E+02 -0.73177425056E+01  0.52227373702E+02  0.00000000000E+00 0. -1.
</event>
<event>
 7    1  0.5831876E-006  0.1332716E+03  0.7561462E-02  0.1222680E+00
          4   -1    0    0  501    0  0.00000000000E+00  0.00000000000E+00  0.31668504085E+03  0.31668504085E+03  0.00000000000E+00 0. -1.
         -4   -1    0    0    0  501 -0.00000000000E+00 -0.00000000000E+00 -0.65510962106E+02  0.65510962106E+02  0.00000000000E+00 0.  1.
         23    2    1    2    0    0  0.85653365232E+02  0.20402259613E+02  0.68869259570E+02  0.14421568016E+03  0.91117705837E+02 0.  0.
          5    1    1    2  502    0 -0.24690785092E+02  0.47713495118E+02  0.33998283451E+02  0.63714740543E+02  0.41800000000E+01 0. -1.
         -5    1    1    2    0  502 -0.60962580141E+02 -0.68115754731E+02  0.14830653573E+03  0.17426558226E+03  0.41800000000E+01 0. -1.
        -11    1    3    3    0    0  0.59578037808E+02 -0.28260631161E+02  0.16174376462E+02  0.67895628111E+02  0.00000000000E+00 0.  1.
         11    1    3    3    0    0  0.26075327425E+02  0.48662890774E+02  0.52694883108E+02  0.76320052047E+02  0.00000000000E+00 0. -1.
</event>
<event>
 7    1  0.5831876E-006  0.1349826E+03  0.7561462E-02  0.1220244E+00
         -2   -1    0    0    0  501 -0.00000000000E+00  0.00000000000E+00  0.20884036177E+03  0.20884036177E+03  0.00000000000E+00 0.  1.
          2   -1    0    0  501    0  0.00000000000E+00 -0.00000000000E+00 -0.12084490382E+03  0.12084490382E+03  0.00000000000E+00 0. -1.
         23    2    1    2    0    0 -0.20925584640E+02  0.53435845290E+02  0.57085293141E+02  0.12310063288E+03  0.92745703229E+02 0.  0.
          5    1    1    2  502    0  0.86712054987E+02  0.31766961961E+01 -0.38841928544E+02  0.95159023176E+02  0.41800000000E+01 0. -1.
         -5    1    1    2    0  502 -0.65786470348E+02 -0.56612541486E+02  0.69752093356E+02  0.11142560954E+03  0.41800000000E+01 0.  1.
        -11    1    3    3    0    0 -0.43176607374E+02  0.57213084674E+01 -0.24537317852E+01  0.43623085569E+02  0.00000000000E+00 0.  1.
         11    1    3    3    0    0  0.22251022735E+02  0.47714536823E+02  0.59539024927E+02  0.79477547308E+02  0.00000000000E+00 0. -1.
</event>
<event>
 7    1  0.5831876E-006  0.1770014E+03  0.7561462E-02  0.1170737E+00
          1   -1    0    0  501    0  0.00000000000E+00  0.00000000000E+00  0.65880886349E+03  0.65880886349E+03  0.00000000000E+00 0. -1.
         -1   -1    0    0    0  501 -0.00000000000E+00 -0.00000000000E+00 -0.18209849700E+03  0.18209849700E+03  0.00000000000E+00 0.  1.
         23    2    1    2    0    0 -0.10783674745E+03  0.95640878546E+02 -0.12116558006E+03  0.21081125126E+03  0.94785780150E+02 0.  0.
          5    1    1    2  502    0  0.13997136484E+03 -0.88313842901E+02  0.50623168894E+03  0.53261553968E+03  0.41800000000E+01 0. -1.
         -5    1    1    2    0  502 -0.32134617397E+02 -0.73270356458E+01  0.91644257611E+02  0.97480569550E+02  0.41800000000E+01 0.  1.
        -11    1    3    3    0    0 -0.74340492551E+02  0.96379535812E+02 -0.12798163457E+03  0.17662056093E+03  0.00000000000E+00 0.  1.
         11    1    3    3    0    0 -0.33496254895E+02 -0.73865726530E+00  0.68160545060E+01  0.34190690335E+02  0.00000000000E+00 0. -1.
</event>
<event>
 7    1  0.5831876E-006  0.2653452E+03  0.7561462E-02  0.1103974E+00
          2   -1    0    0  501    0  0.00000000000E+00  0.00000000000E+00  0.95284956651E+03  0.95284956651E+03  0.00000000000E+00 0. -1.
         -2   -1    0    0    0  501 -0.00000000000E+00 -0.00000000000E+00 -0.78304304347E+02  0.78304304347E+02  0.00000000000E+00 0.  1.
         23    2    1    2    0    0  0.23734064502E+02  0.24083159111E+03  0.54858805185E+03  0.60634906966E+03  0.90261744680E+02 0.  0.
          5    1    1    2  502    0  0.39281922217E+02 -0.23220334194E+02  0.55689906643E+02  0.72118592852E+02  0.41800000000E+01 0.  1.
         -5    1    1    2    0  502 -0.63015986719E+02 -0.21761125692E+03  0.27026730367E+03  0.35268620834E+03  0.41800000000E+01 0.  1.
        -11    1    3    3    0    0 -0.23627107326E+00  0.23308675152E+03  0.49383395622E+03  0.54607825984E+03  0.00000000000E+00 0.  1.
         11    1    3    3    0    0  0.23970335575E+02  0.77448395907E+01  0.54754095631E+02  0.60270809819E+02  0.00000000000E+00 0. -1.
</event>
<event>
 7    1  0.5831876E-006  0.1859379E+03  0.7561462E-02  0.1162177E+00
         -1   -1    0    0    0  501 -0.00000000000E+00  0.00000000000E+00  0.55195856375E+03  0.55195856375E+03  0.00000000000E+00 0.  1.
          1   -1    0    0  501    0  0.00000000000E+00 -0.00000000000E+00 -0.10493563387E+03  0.10493563387E+03  0.00000000000E+00 0. -1.
         23    2    1    2    0    0  0.96198481984E+02  0.13299909960E+03  0.40486290918E+03  0.44625790597E+03  0.91045235941E+02 0.  0.
          5    1    1    2  502    0  0.40115069163E+01 -0.10055758859E+03  0.25638039964E+02  0.10393604911E+03  0.41800000000E+01 0.  1.
         -5    1    1    2    0  502 -0.10020998890E+03 -0.32441511010E+02  0.16521980736E+02  0.10670024255E+03  0.41800000000E+01 0.  1.
        -11    1    3    3    0    0  0.17690423980E+02  0.11562501778E+02  0.59664930508E+01  0.21959999710E+02  0.00000000000E+00 0. -1.
         11    1    3    3    0    0  0.78508058004E+02  0.12143659782E+03  0.39889641613E+03  0.42429790626E+03  0.00000000000E+00 0.  1.
</event>
<event>
 7    1  0.5831876E-006  0.9847915E+02  0.7561462E-02  0.1283527E+00
         -2   -1    0    0    0  501 -0.00000000000E+00  0.00000000000E+00  0.13457523912E+03  0.13457523912E+03  0.00000000000E+00 0.  1.
          2   -1    0    0  501    0  0.00000000000E+00 -0.00000000000E+00 -0.35348254327E+03  0.35348254327E+03  0.00000000000E+00 0. -1.
         23    2    1    2    0    0  0.19565086188E+02  0.19527004224E+02  0.80730012123E+02  0.12388253604E+03  0.89807858159E+02 0.  0.
          5    1    1    2  502    0 -0.79125315078E+02  0.14008408214E+02 -0.28228752094E+03  0.29353154492E+03  0.41800000000E+01 0. -1.
         -5    1    1    2    0  502  0.59560228889E+02 -0.33535412438E+02 -0.17349795335E+02  0.70643701424E+02  0.41800000000E+01 0.  1.
        -11    1    3    3    0    0 -0.12090805888E+02  0.38519192926E+01 -0.16280018378E+02  0.20641314581E+02  0.00000000000E+00 0. -1.
         11    1    3    3    0    0  0.31655892076E+02  0.15675084932E+02  0.97010030501E+02  0.10324122146E+03  0.00000000000E+00 0.  1.
</event>
<event>
 7    1  0.5831876E-006  0.1459827E+03  0.7561462E-02  0.1205498E+00
         -2   -1    0    0    0  501 -0.00000000000E+00  0.00000000000E+00  0.69551623717E+02  0.69551623717E+02  0.00000000000E+00 0. -1.
          2   -1    0    0  501    0  0.00000000000E+00 -0.00000000000E+00 -0.37990060867E+03  0.37990060867E+03  0.00000000000E+00 0.  1.
         23    2    1    2    0    0 -0.63245040220E+02 -0.10420449075E+03 -0.12148161936E+03  0.19220508761E+03  0.85594981491E+02 0.  0.
          5    1    1    2  502    0  0.93244958412E+02  0.10384236360E+03 -0.12873490411E+03  0.18991578840E+03  0.41800000000E+01 0. -1.
         -5    1    1    2    0  502 -0.29999918192E+02  0.36212714879E+00 -0.60132461485E+02  0.67331356380E+02  0.41800000000E+01 0. -1.
        -11    1    3    3    0    0 -0.46013424527E+02 -0.80813852406E+02 -0.32355202129E+02  0.98463054402E+02  0.00000000000E+00 0. -1.
         11    1    3    3    0    0 -0.17231615693E+02 -0.23390638342E+02 -0.89126417234E+02  0.93742033211E+02  0.00000000000E+00 0.  1.
</event>
<event>
 7    1  0.5831876E-006  0.1125252E+03  0.7561462E-02  0.1255964E+00
          3   -1    0    0  501    0  0.00000000000E+00  0.00000000000E+00  0.66545236305E+02  0.66545236305E+02  0.00000000000E+00 0. -1.
         -3   -1    0    0    0  501 -0.00000000000E+00 -0.00000000000E+00 -0.25377887723E+03  0.25377887723E+03  0.00000000000E+00 0.  1.
         23    2    1    2    0    0 -0.62532118590E+02 -0.66909562687E+01 -0.12472453723E+03  0.16699430572E+03  0.91519687521E+02 0.  0.
          5    1    1    2  502    0 -0.93336442444E+01 -0.39982056395E+02 -0.52761133329E+02  0.66984261873E+02  0.41800000000E+01 0. -1.
         -5    1    1    2    0  502  0.71865762834E+02  0.46673012663E+02 -0.97479703716E+01  0.86345545949E+02  0.41800000000E+01 0. -1.
        -11    1    3    3    0    0 -0.76723487334E+02 -0.19178539917E+02 -0.59171971901E+02  0.98770603728E+02  0.00000000000E+00 0. -1.
         11    1    3    3    0    0  0.14191368744E+02  0.12487583648E+02 -0.65552565325E+02  0.68223701987E+02  0.00000000000E+00 0.  1.
</event>
<event>
 7    1  0.5831876E-006  0.2533668E+03  0.7561462E-02  0.1111195E+00
         -2   -1    0    0    0  501 -0.00000000000E+00  0.00000000000E+00  0.81670869226E+02  0.81670869226E+02  0.00000000000E+00 0.  1.
          2   -1    0    0  501    0  0.00000000000E+00 -0.00000000000E+00 -0.11191714994E+04  0.11191714994E+04  0.00000000000E+00 0. -1.
         23    2    1    2    0    0 -0.31463365875E+02  0.24067871829E+03 -0.22335941296E+03  0.34212834415E+03  0.90808522106E+02 0.  0.
          5    1    1    2  502    0  0.19024099260E+02 -0.13142259009E+02 -0.15404082822E+02  0.28096147282E+02  0.41800000000E+01 0.  1.
         -5    1    1    2    0  502  0.12439266614E+02 -0.22753645928E+03 -0.79873713440E+03  0.83061787720E+03  0.41800000000E+01 0.  1.
        -11    1    3    3    0    0  0.24335210541E+02  0.38177371278E+02 -0.19092975344E+02  0.49135077666E+02  0.00000000000E+00 0.  1.
         11    1    3    3    0    0 -0.55798576416E+02  0.20250134701E+03 -0.20426643762E+03  0.29299326649E+03  0.00000000000E+00 0. -1.
</event>
<event>
 7    1  0.5831876E-006  0.8833303E+02  0.7561462E-02  0.1306939E+00
          2   -1    0    0  501    0  0.00000000000E+00  0.00000000000E+00  0.44563819077E+03  0.44563819077E+03  0.00000000000E+00 0. -1.
         -2   -1    0    0    0  501 -0.00000000000E+00 -0.00000000000E+00 -0.34627951367E+02  0.34627951367E+02  0.00000000000E+00 0.  1.
         23    2    1    2    0    0 -0.25820858379E+02  0.29031498090E+02  0.92664135813E+02  0.13602598087E+03  0.91689044044E+02 0.  0.
          5    1    1    2  502    0 -0.30808209400E+02 -0.46785496739E+02  0.74867737614E+02  0.93598498957E+02  0.41800000000E+01 0.  1.
         -5    1    1    2    0  502  0.56629067779E+02  0.17753998648E+02  0.24347836598E+03  0.25064166231E+03  0.41800000000E+01 0.  1.
        -11    1    3    3    0    0 -0.61778459712E+01  0.38640278763E+02 -0.16934800795E+01  0.39167649897E+02  0.00000000000E+00 0.  1.
         11    1    3    3    0    0 -0.19643012408E+02 -0.96087806724E+01  0.94357615893E+02  0.96858330976E+02  0.00000000000E+00 0. -1.
</event>
<event>
 7    1  0.5831876E-006  0.1200183E+03  0.7561462E-02  0.1243067E+00
          2   -1    0    0  501    0  0.00000000000E+00  0.00000000000E+00  0.18962782274E+03  0.18962782274E+03  0.00000000000E+00 0. -1.
         -2   -1    0    0    0  501 -0.00000000000E+00 -0.00000000000E+00 -0.10603157457E+03  0.10603157457E+03  0.00000000000E+00 0.  1.
         23    2    1    2    0    0  0.38055920639E+02 -0.48306948894E+02 -0.32427216088E+02  0.11430296628E+03  0.90729429344E+02 0.  0.
          5    1    1    2  502    0 -0.43714043361E+02 -0.30276046617E+02  0.19735306051E+02  0.56872764049E+02  0.41800000000E+01 0.  1.
         -5    1    1    2    0  502  0.56581227219E+01  0.78582995511E+02  0.96288158210E+02  0.12448366699E+03  0.41800000000E+01 0.  1.
        -11    1    3    3    0    0 -0.24021787719E+02 -0.37877980363E+02 -0.33902911327E+01  0.44980904344E+02  0.00000000000E+00 0.  1.
         11    1    3    3    0    0  0.62077708358E+02 -0.10428968531E+02 -0.29036924955E+02  0.69322061932E+02  0.00000000000E+00 0. -1.
</event>
<event>
 7    1  0.5831876E-006  0.9484176E+02  0.7561462E-02  0.1291533E+00
          3   -1    0    0  501    0  0.00000000000E+00  0.00000000000E+00  0.94633026233E+02  0.94633026233E+02  0.00000000000E+00 0. -1.
         -3   -1    0    0    0  501 -0.00000000000E+00 -0.00000000000E+00 -0.19281243510E+03  0.19281243510E+03  0.00000000000E+00 0.  1.
         23    2    1    2    0    0 -0.69690053913E+02  0.40385756719E+02 -0.46857268580E+02  0.13006376764E+03  0.90737352142E+02 0.  0.
          5    1    1    2  502    0  0.55663174021E+02 -0.27474536509E+02 -0.92693952330E+02  0.11163727109E+03  0.41800000000E+01 0. -1.
         -5    1    1    2    0  502  0.14026879891E+02 -0.12911220209E+02  0.41371812047E+02  0.45744422598E+02  0.41800000000E+01 0. -1.
        -11    1    3    3    0    0 -0.64524786737E+02 -0.26764590244E+01  0.21564155364E+01  0.64616264705E+02  0.00000000000E+00 0. -1.
         11    1    3    3    0    0 -0.51652671753E+01  0.43062215743E+02 -0.49013684117E+02  0.65447502935E+02  0.00000000000E+00 0.  1.
</event>
<event>
 7    1  0.5831876E-006  0.1060755E+03  0.7561462E-02  0.1268015E+00
         -1   -1    0    0    0  501 -0.00000000000E+00  0.00000000000E+00  0.76543678647E+02  0.76543678647E+02  0.00000000000E+00 0.  1.
          1   -1    0    0  501    0  0.00000000000E+00 -0.00000000000E+00 -0.16805909317E+03  0.16805909317E+03  0.00000000000E+00 0. -1.
         23    2    1    2    0    0  0.22666382387E+02  0.36803579700E+00 -0.14065918684E+02  0.95739238480E+02  0.91947003080E+02 0.  0.
          5    1    1    2  502    0  0.40598861784E+02 -0.33002157442E+02 -0.49888862496E+02  0.72413955666E+02  0.41800000000E+01 0. -1.
         -5    1    1    2    0  502 -0.63265244171E+02  0.32634121645E+02 -0.27560633338E+02  0.76449577667E+02  0.41800000000E+01 0. -1.
        -11    1    3    3    0    0  0.60315479984E+01  0.42568949812E+02 -0.24090862720E+02  0.49283513733E+02  0.00000000000E+00 0.  1.
         11    1    3    3    0    0  0.16634834388E+02 -0.42200914015E+02  0.10024944036E+02  0.46455724746E+02  0.00000000000E+00 0. -1.
</event>
<event>
 7    1  0.5831876E-006  0.1285451E+03  0.7561462E-02  0.1229631E+00
          2   -1    0    0  501    0  0.00000000000E+00  0.00000000000E+00  0.32585940258E+03  0.32585940258E+03  0.00000000000E+00 0. -1.
         -2   -1    0    0    0  501 -0.00000000000E+00 -0.00000000000E+00 -0.62654515276E+02  0.62654515276E+02  0.00000000000E+00 0.  1.
         23    2    1    2    0    0 -0.91856567717E+02  0.16306064832E+01  0.95908931399E+02  0.16031341037E+03  0.89786293565E+02 0.  0.
          5    1    1    2  502    0  0.19358008667E+02 -0.42349136270E+02  0.12773886848E+03  0.13602526516E+03  0.41800000000E+01 0. -1.
         -5    1    1    2    0  502  0.72498559050E+02  0.40718529787E+02  0.39557087431E+02  0.92175242329E+02  0.41800000000E+01 0. -1.
        -11    1    3    3    0    0  0.92744894252E+01  0.22041570616E+02  0.94761110211E+01  0.25722435138E+02  0.00000000000E+00 0. -1.
         11    1    3    3    0    0 -0.10113105714E+03 -0.20410964133E+02  0.86432820378E+02  0.13459097523E+03  0.00000000000E+00 0.  1.
</event>
<event>
 7    1  0.5831876E-006  0.2257597E+03  0.7561462E-02  0.1129660E+00
          1   -1    0    0  501    0  0.00000000000E+00  0.00000000000E+00  0.11819736363E+04  0.11819736363E+04  0.00000000000E+00 0. -1.
         -1   -1    0    0    0  501 -0.00000000000E+00 -0.00000000000E+00 -0.68760689991E+02  0.68760689991E+02  0.00000000000E+00 0.  1.
         23    2    1    2    0    0 -0.89097014159E+01  0.21305365328E+03  0.20399367411E+03  0.30850372999E+03  0.89943817938E+02 0.  0.
          5    1    1    2  502    0 -0.24844124573E+02 -0.16185900175E+03  0.80276157783E+03  0.81930408898E+03  0.41800000000E+01 0. -1.
         -5    1    1    2    0  502  0.33753825989E+02 -0.51194651525E+02  0.10645769441E+03  0.12292650737E+03  0.41800000000E+01 0. -1.
        -11    1    3    3    0    0 -0.38020784760E+02  0.17051631922E+03  0.12757251996E+03  0.21632416195E+03  0.00000000000E+00 0.  1.
         11    1    3    3    0    0  0.29111083345E+02  0.42537334058E+02  0.76421154146E+02  0.92179568036E+02  0.00000000000E+00 0. -1.
</event>
<event>
 7    1  0.5831876E-006  0.1041702E+03  0.7561462E-02  0.1271763E+00
          4   -1    0    0  501    0  0.00000000000E+00  0.00000000000E+00  0.24576542392E+03  0.24576542392E+03  0.00000000000E+00 0. -1.
         -4   -1    0    0    0  501 -0.00000000000E+00 -0.00000000000E+00 -0.81386225584E+02  0.81386225584E+02  0.00000000000E+00 0.  1.
         23    2    1    2    0    0  0.29595881394E+02 -0.74457299849E+02  0.25355197240E+02  0.12369307756E+03  0.90759493785E+02 0.  0.
          5    1    1    2  502    0  0.26380572057E+02  0.66166080510E+02  0.12667521795E+03  0.14538902309E+03  0.41800000000E+01 0.  1.
         -5    1    1    2    0  502 -0.55976453451E+02  0.82912193395E+01  0.12348783143E+02  0.58069548855E+02  0.41800000000E+01 0.  1.
        -11    1    3    3    0    0  0.25704515657E+02 -0.60014798641E+02 -0.25946995510E+02  0.70254855754E+02  0.00000000000E+00 0.  1.
         11    1    3    3    0    0  0.38913657377E+01 -0.14442501209E+02  0.51302192751E+02  0.53438221803E+02  0.00000000000E+00 0. -1.
</event>
<event>
 7    1  0.5831876E-006  0.1916547E+03  0.7561462E-02  0.1156977E+00
         -2   -1    0    0    0  501 -0.00000000000E+00  0.00000000000E+00  0.21278585855E+02  0.21278585855E+02  0.00000000000E+00 0.  1.
          2   -1    0    0  501    0  0.00000000000E+00 -0.00000000000E+00 -0.25336878241E+04  0.25336878241E+04  0.00000000000E+00 0. -1.
         23    2    1    2    0    0 -0.12756499715E+03 -0.10677791590E+03 -0.56831207653E+03  0.59975889775E+03  0.95172303077E+02 0.  0.
          5    1    1    2  502    0  0.35955458504E+02 -0.15021344264E+02 -0.16503738622E+03  0.16962678748E+03  0.41800000000E+01 0. -1.
         -5    1    1    2    0  502  0.91609538649E+02  0.12179926016E+03 -0.17790597755E+04  0.17855807247E+04  0.41800000000E+01 0. -1.
        -11    1    3    3    0    0 -0.28013509876E+01 -0.57413179221E+02 -0.17071653249E+03  0.18013399230E+03  0.00000000000E+00 0. -1.
         11    1    3    3    0    0 -0.12476364617E+03 -0.49364736674E+02 -0.39759554404E+03  0.41962490545E+03  0.00000000000E+00 0.  1.
</event>
<event>
 7    1  0.5831876E-006  0.8980982E+02  0.7561462E-02  0.1303313E+00
          1   -1    0    0  501    0  0.00000000000E+00  0.00000000000E+00  0.87861155137E+03  0.87861155137E+03  0.00000000000E+00 0. -1.
         -1   -1    0    0    0  501 -0.00000000000E+00 -0.00000000000E+00 -0.17569542587E+02  0.17569542587E+02  0.00000000000E+00 0.  1.
         23    2    1    2    0    0  0.45179762524E+02  0.31861036843E+02  0.28549716235E+03  0.30680421362E+03  0.97794985416E+02 0.  0.
          5    1    1    2  502    0  0.10111997959E+02 -0.62800435345E+01  0.44581242619E+03  0.44599090035E+03  0.41800000000E+01 0. -1.
         -5    1    1    2    0  502 -0.55291760483E+02 -0.25580993308E+02  0.12973242024E+03  0.14338597999E+03  0.41800000000E+01 0.  1.
        -11    1    3    3    0    0  0.72892018567E+02  0.27384536758E+02  0.24817334790E+03  0.26010222958E+03  0.00000000000E+00 0. -1.
         11    1    3    3    0    0 -0.27712256043E+02  0.44765000846E+01  0.37323814458E+02  0.46701984045E+02  0.00000000000E+00 0.  1.
</event>
<event>
 7    1  0.5831876E-006  0.1885478E+03  0.7561462E-02  0.1159778E+00
         -2   -1    0    0    0  501 -0.00000000000E+00  0.00000000000E+00  0.38458496661E+02  0.38458496661E+02  0.00000000000E+00 0.  1.
          2   -1    0    0  501    0  0.00000000000E+00 -0.00000000000E+00 -0.97608059758E+03  0.97608059758E+03  0.00000000000E+00 0. -1.
         23    2    1    2    0    0 -0.11654238443E+03  0.10928679294E+03 -0.42156407359E+03  0.46002202222E+03  0.91532848205E+02 0.  0.
          5    1    1    2  502    0  0.13288153244E+03 -0.11441618228E+03 -0.50263324270E+03  0.53235910201E+03  0.41800000000E+01 0.  1.
         -5    1    1    2    0  502 -0.16339148013E+02  0.51293893352E+01 -0.13424784629E+02  0.22157970012E+02  0.41800000000E+01 0.  1.
        -11    1    3    3    0    0 -0.43099052997E+02 -0.97561691556E+01 -0.96047952943E+02  0.10572568501E+03  0.00000000000E+00 0.  1.
         11    1    3    3    0    0 -0.73443331429E+02  0.11904296210E+03 -0.32551612065E+03  0.35429633721E+03  0.00000000000E+00 0. -1.
</event>
<event>
 7    1  0.5831876E-006  0.1475697E+03  0.7561462E-02  0.1203491E+00
         -2   -1    0    0    0  501 -0.00000000000E+00  0.00000000000E+00  0.25830166029E+03  0.25830166029E+03  0.00000000000E+00 0. -1.
          2   -1    0    0  501    0  0.00000000000E+00 -0.00000000000E+00 -0.10092598526E+03  0.10092598526E+03  0.00000000000E+00 0.  1.
         23    2    1    2    0    0  0.10245830088E+03 -0.57803369996E+02  0.96434710103E+02  0.17702474557E+03  0.90549291711E+02 0.  0.
          5    1    1    2  502    0 -0.64498254523E+02 -0.14474947283E+02  0.74117848618E+02  0.99400587619E+02  0.41800000000E+01 0. -1.
         -5    1    1    2    0  502 -0.37960046355E+02  0.72278317279E+02 -0.13176883687E+02  0.82802312357E+02  0.41800000000E+01 0. -1.
        -11    1    3    3    0    0  0.29259505554E+02 -0.67261895406E+02  0.36406337651E+02  0.81888354850E+02  0.00000000000E+00 0.  1.
         11    1    3    3    0    0  0.73198795323E+02  0.94585254098E+01  0.60028372452E+02  0.95136390719E+02  0.00000000000E+00 0. -1.
</event>
<event>
 7    1  0.5831876E-006  0.1178314E+03  0.7561462E-02  0.1246718E+00
          1   -1    0    0  501    0  0.00000000000E+00  0.00000000000E+00  0.83784483571E+03  0.83784483571E+03  0.00000000000E+00 0. -1.
         -1   -1    0    0    0  501 -0.00000000000E+00 -0.00000000000E+00 -0.22721599681E+02  0.22721599681E+02  0.00000000000E+00 0.  1.
         23    2    1    2    0    0  0.14006200090E+02 -0.69534780457E+02  0.22133719269E+03  0.24961593919E+03  0.91031340201E+02 0.  0.
          5    1    1    2  502    0 -0.89547982492E+01  0.94848122951E+02  0.56083566371E+03  0.56888528626E+03  0.41800000000E+01 0. -1.
         -5    1    1    2    0  502 -0.50514018408E+01 -0.25313342493E+02  0.32950379634E+02  0.42065209934E+02  0.41800000000E+01 0. -1.
        -11    1    3    3    0    0  0.80685101472E+01 -0.91267403774E+02  0.19088883366E+03  0.21173895878E+03  0.00000000000E+00 0. -1.
         11    1    3    3    0    0  0.59376899428E+01  0.21732623317E+02  0.30448359022E+02  0.37876980413E+02  0.00000000000E+00 0.  1.
</event>
<event>
 7    1  0.5831876E-006  0.1091430E+03  0.7561462E-02  0.1262165E+00
         -2   -1    0    0    0  501 -0.00000000000E+00  0.00000000000E+00  0.18946468701E+03  0.18946468701E+03  0.00000000000E+00 0.  1.
          2   -1    0    0  501    0  0.00000000000E+00 -0.00000000000E+00 -0.64224253807E+02  0.64224253807E+02  0.00000000000E+00 0. -1.
         23    2    1    2    0    0 -0.44149059658E+02 -0.30342646673E+01  0.64928842446E+02  0.10793441299E+03  0.73998220893E+02 0.  0.
          5    1    1    2  502    0  0.93255100443E+01 -0.59753087103E+02  0.31052378377E+02  0.68111079560E+02  0.41800000000E+01 0.  1.
         -5    1    1    2    0  502  0.34823549614E+02  0.62787351770E+02  0.29259212384E+02  0.77643448270E+02  0.41800000000E+01 0.  1.
        -11    1    3    3    0    0  0.45401450271E+01  0.27764603883E+02  0.16108800064E+02  0.32418815296E+02  0.00000000000E+00 0.  1.
         11    1    3    3    0    0 -0.48689204686E+02 -0.30798868551E+02  0.48820042381E+02  0.75515597694E+02  0.00000000000E+00 0. -1.
</event>
<event>
 7    1  0.5831876E-006  0.1000499E+03  0.7561462E-02  0.1280191E+00
         -2   -1    0    0    0  501 -0.00000000000E+00  0.00000000000E+00  0.20630194467E+03  0.20630194467E+03  0.00000000000E+00 0. -1.
          2   -1    0    0  501    0  0.00000000000E+00 -0.00000000000E+00 -0.82062345249E+02  0.82062345249E+02  0.00000000000E+00 0.  1.
         23    2    1    2    0    0 -0.71580161342E+02  0.26772347469E+01  0.66368443484E+02  0.13304813030E+03  0.90366739472E+02 0.  0.
          5    1    1    2  502    0  0.13268559510E+01  0.26518969337E+02  0.72862295769E+02  0.77662106758E+02  0.41800000000E+01 0. -1.
         -5    1    1    2    0  502  0.70253305391E+02 -0.29196204084E+02 -0.14991139834E+02  0.77654052855E+02  0.41800000000E+01 0. -1.
        -11    1    3    3    0    0 -0.60024147495E+02 -0.26523568445E+02  0.71417732029E+01  0.66010627100E+02  0.00000000000E+00 0.  1.
         11    1    3    3    0    0 -0.11556013847E+02  0.29200803192E+02  0.59226670281E+02  0.67037503203E+02  0.00000000000E+00 0. -1.
</event>
<event>
 7    1  0.5831876E-006  0.1439809E+03  0.7561462E-02  0.1208071E+00
          1   -1    0    0  501    0  0.00000000000E+00  0.00000000000E+00  0.34440849919E+03  0.34440849919E+03  0.00000000000E+00 0. -1.
         -1   -1    0    0    0  501 -0.00000000000E+00 -0.00000000000E+00 -0.70572346119E+02  0.70572346119E+02  0.00000000000E+00 0.  1.
         23    2    1    2    0    0 -0.89812274007E+02  0.40068273294E+02  0.70868497867E+02  0.15707748765E+03  0.99896356542E+02 0.  0.
          5    1    1    2  502    0  0.91288315735E+02 -0.78239818291E+02  0.16128598812E+03  0.20121050698E+03  0.41800000000E+01 0.  1.
         -5    1    1    2    0  502 -0.14760417281E+01  0.38171544997E+02  0.41681667086E+02  0.56692850675E+02  0.41800000000E+01 0.  1.
        -11    1    3    3    0    0  0.10421403189E+02 -0.12317394847E+02 -0.91374450297E+01  0.18542296565E+02  0.00000000000E+00 0.  1.
         11    1    3    3    0    0 -0.10023367720E+03  0.52385668141E+02  0.80005942897E+02  0.13853519109E+03  0.00000000000E+00 0. -1.
</event>
<event>
 7    1  0.5831876E-006  0.8436333E+02  0.7561462E-02  0.1317106E+00
          1   -1    0    0  501    0  0.00000000000E+00  0.00000000000E+00  0.64144294555E+03  0.64144294555E+03  0.00000000000E+00 0. -1.
         -1   -1    0    0    0  501 -0.00000000000E+00 -0.00000000000E+00 -0.19089789420E+02  0.19089789420E+02  0.00000000000E+00 0.  1.
         23    2    1    2    0    0  0.14293867179E+02 -0.11997501861E+02  0.23478695443E+03  0.25285119122E+03  0.91981282017E+02 0.  0.
          5    1    1    2  502    0  0.31217846514E+01  0.46587427145E+02  0.35144973362E+03  0.35456243677E+03  0.41800000000E+01 0. -1.
         -5    1    1    2    0  502 -0.17415651830E+02 -0.34589925284E+02  0.36116468089E+02  0.53119106987E+02  0.41800000000E+01 0. -1.
        -11    1    3    3    0    0  0.15709368963E+02 -0.46131488548E+02  0.74922997050E+02  0.89377592247E+02  0.00000000000E+00 0.  1.
         11    1    3    3    0    0 -0.14155017843E+01  0.34133986687E+02  0.15986395737E+03  0.16347359897E+03  0.00000000000E+00 0. -1.
</event>
<event>
 7    1  0.5831876E-006  0.7047729E+02  0.7561462E-02  0.1358477E+00
          2   -1    0    0  501    0  0.00000000000E+00  0.00000000000E+00  0.47533017429E+03  0.47533017429E+03  0.00000000000E+00 0. -1.
         -2   -1    0    0    0  501 -0.00000000000E+00 -0.00000000000E+00 -0.36656071288E+02  0.36656071288E+02  0.00000000000E+00 0.  1.
         23    2    1    2    0    0  0.43832330751E+02  0.54207750406E+01  0.78245391198E+02  0.12791813664E+03  0.91049713984E+02 0.  0.
          5    1    1    2  502    0 -0.24188710958E+02 -0.73470466289E+01  0.36284476943E+03  0.36374836348E+03  0.41800000000E+01 0. -1.
         -5    1    1    2    0  502 -0.19643619793E+02  0.19262715883E+01 -0.24160576308E+01  0.20319745453E+02  0.41800000000E+01 0. -1.
        -11    1    3    3    0    0  0.54133418653E+02  0.34576646138E+02  0.71785917258E+02  0.96328549194E+02  0.00000000000E+00 0. -1.
         11    1    3    3    0    0 -0.10301087902E+02 -0.29155871098E+02  0.64594739400E+01  0.31589587446E+02  0.00000000000E+00 0.  1.
</event>
<event>
 7    1  0.5831876E-006  0.7294001E+02  0.7561462E-02  0.1350371E+00
         -2   -1    0    0    0  501 -0.00000000000E+00  0.00000000000E+00  0.44266421209E+02  0.44266421209E+02  0.00000000000E+00 0.  1.
          2   -1    0    0  501    0  0.00000000000E+00 -0.00000000000E+00 -0.33648654425E+03  0.33648654425E+03  0.00000000000E+00 0. -1.
         23    2    1    2    0    0 -0.35045510516E+01 -0.16751182536E+02 -0.30415902306E+02  0.96108998194E+02  0.89548469704E+02 0.  0.
          5    1    1    2  502    0 -0.19845285319E+02  0.44437346379E+02 -0.23331855283E+03  0.23837687093E+03  0.41800000000E+01 0. -1.
         -5    1    1    2    0  502  0.23349836370E+02 -0.27686163844E+02 -0.28485667908E+02  0.46267096333E+02  0.41800000000E+01 0.  1.
        -11    1    3    3    0    0  0.23617782309E+02  0.68828834895E+01 -0.49580393624E+02  0.55347892085E+02  0.00000000000E+00 0. -1.
         11    1    3    3    0    0 -0.27122333360E+02 -0.23634066025E+02  0.19164491318E+02  0.40761106109E+02  0.00000000000E+00 0.  1.
</event>
<event>
 7    1  0.5831876E-006  0.8810848E+02  0.7561462E-02  0.1307498E+00
         -2   -1    0    0    0  501 -0.00000000000E+00  0.00000000000E+00  0.12573667997E+03  0.12573667997E+03  0.00000000000E+00 0.  1.
          2   -1    0    0  501    0  0.00000000000E+00 -0.00000000000E+00 -0.16303681122E+03  0.16303681122E+03  0.00000000000E+00 0. -1.
         23    2    1    2    0    0  0.11979392731E+02 -0.15441972090E+02  0.73882633544E+02  0.12027688234E+03  0.92875855495E+02 0.  0.
          5    1    1    2  502    0  0.35393117412E+02 -0.15315351431E+02  0.51294972763E+01  0.39128210947E+02  0.41800000000E+01 0. -1.
         -5    1    1    2    0  502 -0.47372510142E+02  0.30757323521E+02 -0.11631226208E+03  0.12936839790E+03  0.41800000000E+01 0. -1.
        -11    1    3    3    0    0 -0.25520605068E+02  0.17444405066E+02  0.61581436457E+02  0.68904875497E+02  0.00000000000E+00 0.  1.
         11    1    3    3    0    0  0.37499997798E+02 -0.32886377156E+02  0.12301197086E+02  0.51372006843E+02  0.00000000000E+00 0. -1.
</event>
<event>
 7    1  0.5831876E-006  0.1315728E+03  0.7561462E-02  0.1225140E+00
          2   -1    0    0  501    0  0.00000000000E+00  0.00000000000E+00  0.14524783823E+04  0.14524783823E+04  0.00000000000E+00 0. -1.
         -2   -1    0    0    0  501 -0.00000000000E+00 -0.00000000000E+00 -0.16262712818E+02  0.16262712818E+02  0.00000000000E+00 0.  1.
         23    2    1    2    0    0 -0.36982107252E+02 -0.10211672229E+03  0.66498856725E+03  0.67992293884E+03  0.91048926182E+02 0.  0.
          5    1    1    2  502    0  0.36899142720E+02  0.10805212060E+03  0.77295627379E+03  0.78135502884E+03  0.41800000000E+01 0.  1.
         -5    1    1    2    0  502  0.82964531927E-01 -0.59353983100E+01 -0.17291715955E+01  0.74631274020E+01  0.41800000000E+01 0.  1.
        -11    1    3    3    0    0 -0.12339268771E+02 -0.11372344956E+03  0.54651881874E+03  0.55836197916E+03  0.00000000000E+00 0.  1.
         11    1    3    3    0    0 -0.24642838481E+02  0.11606727270E+02  0.11846974851E+03  0.12156095968E+03  0.00000000000E+00 0. -1.
</event>
<event>
 7    1  0.5831876E-006  0.1506036E+03  0.7561462E-02  0.1199733E+00
         -1   -1    0    0    0  501 -0.00000000000E+00  0.00000000000E+00  0.32602931049E+03  0.32602931049E+03  0.00000000000E+00 0.  1.
          1   -1    0    0  501    0  0.00000000000E+00 -0.00000000000E+00 -0.85298756613E+02  0.85298756613E+02  0.00000000000E+00 0. -1.
         23    2    1    2    0    0 -0.10217187264E+03 -0.64605674578E+02  0.15650725251E+03  0.21805623199E+03  0.91874999181E+02 0.  0.
          5    1    1    2  502    0  0.31247815064E+02  0.72848015599E+02 -0.42656405955E+01  0.79491681405E+02  0.41800000000E+01 0. -1.
         -5    1    1    2    0  502  0.70924057576E+02 -0.82423410202E+01  0.88488941968E+02  0.11378015371E+03  0.41800000000E+01 0. -1.
        -11    1    3    3    0    0 -0.69607662229E+02  0.86460753547E+01  0.57740678258E+02  0.90851346637E+02  0.00000000000E+00 0.  1.
         11    1    3    3    0    0 -0.32564210410E+02 -0.73251749933E+02  0.98766574250E+02  0.12720488535E+03  0.00000000000E+00 0. -1.
</event>
<event>
 7    1  0.5831876E-006  0.1169137E+03  0.7561462E-02  0.1248277E+00
          2   -1    0    0  501    0  0.00000000000E+00  0.00000000000E+00  0.19237421776E+04  0.19237421776E+04  0.00000000000E+00 0. -1.
         -2   -1    0    0    0  501 -0.00000000000E+00 -0.00000000000E+00 -0.13300990579E+02  0.13300990579E+02  0.00000000000E+00 0.  1.
         23    2    1    2    0    0  0.90071872944E+02 -0.16050617128E+02  0.43274809062E+03  0.45124531735E+03  0.89335669748E+02 0.  0.
          5    1    1    2  502    0 -0.49547833986E+02 -0.21022278031E+02  0.12629363853E+04  0.12640896763E+04  0.41800000000E+01 0.  1.
         -5    1    1    2    0  502 -0.40524038958E+02  0.37072895158E+02  0.21475671116E+03  0.22170817458E+03  0.41800000000E+01 0.  1.
        -11    1    3    3    0    0  0.59858835454E+01 -0.37505325388E+02  0.18154384857E+03  0.18547412000E+03  0.00000000000E+00 0.  1.
         11    1    3    3    0    0  0.84085989399E+02  0.21454708260E+02  0.25120424204E+03  0.26577119735E+03  0.00000000000E+00 0. -1.
</event>
<event>
 7    1  0.5831876E-006  0.9589458E+02  0.7561462E-02  0.1289174E+00
         -1   -1    0    0    0  501 -0.00000000000E+00  0.00000000000E+00  0.24258757514E+02  0.24258757514E+02  0.00000000000E+00 0.  1.
          1   -1    0    0  501    0  0.00000000000E+00 -0.00000000000E+00 -0.11555698844E+04  0.11555698844E+04  0.00000000000E+00 0. -1.
         23    2    1    2    0    0 -0.17105446601E+02 -0.68297499252E+02 -0.15804048611E+03  0.19603048525E+03  0.92162959968E+02 0.  0.
          5    1    1    2  502    0 -0.11996597477E+02  0.41444906083E+00 -0.71574693344E+03  0.71585978742E+03  0.41800000000E+01 0.  1.
         -5    1    1    2    0  502  0.29102044077E+02  0.67883050191E+02 -0.25752370737E+03  0.26793836928E+03  0.41800000000E+01 0.  1.
        -11    1    3    3    0    0  0.18586589003E+02 -0.66844457525E+02 -0.13946121113E+03  0.15576608168E+03  0.00000000000E+00 0. -1.
         11    1    3    3    0    0 -0.35692035604E+02 -0.14530417265E+01 -0.18579274975E+02  0.40264403564E+02  0.00000000000E+00 0.  1.
</event>
<event>
 7    1  0.5831876E-006  0.1246764E+03  0.7561462E-02  0.1235576E+00
         -2   -1    0    0    0  501 -0.00000000000E+00  0.00000000000E+00  0.24325895314E+02  0.24325895314E+02  0.00000000000E+00 0.  1.
          2   -1    0    0  501    0  0.00000000000E+00 -0.00000000000E+00 -0.90494486158E+03  0.90494486158E+03  0.00000000000E+00 0. -1.
         23    2    1    2    0    0  0.96822396931E+02  0.17756431011E+02 -0.35282620839E+03  0.37799615139E+03  0.93299998657E+02 0.  0.
          5    1    1    2  502    0 -0.67522765049E+02 -0.54953336076E+02 -0.17721364936E+03  0.19748757648E+03  0.41800000000E+01 0.  1.
         -5    1    1    2    0  502 -0.29299631882E+02  0.37196905065E+02 -0.35057910852E+03  0.35378702903E+03  0.41800000000E+01 0.  1.
        -11    1    3    3    0    0  0.25920847847E+02  0.33174850699E+02 -0.24129240561E+03  0.24493771877E+03  0.00000000000E+00 0. -1.
         11    1    3    3    0    0  0.70901549085E+02 -0.15418419688E+02 -0.11153380278E+03  0.13305843261E+03  0.00000000000E+00 0.  1.
</event>
<event>
 7    1  0.5831876E-006  0.8243095E+02  0.7561462E-02  0.1322291E+00
          1   -1    0    0  501    0  0.00000000000E+00  0.00000000000E+00  0.19517682327E+03  0.19517682327E+03  0.00000000000E+00 0. -1.
         -1   -1    0    0    0  501 -0.00000000000E+00 -0.00000000000E+00 -0.80473237879E+02  0.80473237879E+02  0.00000000000E+00 0.  1.
         23    2    1    2    0    0 -0.39394560832E+01 -0.54360575017E+02  0.16122205526E+02  0.10732582107E+03  0.91040183036E+02 0.  0.
          5    1    1    2  502    0 -0.89882296532E+01  0.19927083385E+02 -0.28385894243E+02  0.36070879065E+02  0.41800000000E+01 0.  1.
         -5    1    1    2    0  502  0.12927685736E+02  0.34433491632E+02  0.12696727411E+03  0.13225336102E+03  0.41800000000E+01 0.  1.
        -11    1    3    3    0    0 -0.44030179052E+02 -0.88009938700E+01  0.12112788789E+02  0.46506277132E+02  0.00000000000E+00 0.  1.
         11    1    3    3    0    0  0.40090722969E+02 -0.45559581147E+02  0.40094167373E+01  0.60819543940E+02  0.00000000000E+00 0. -1.
</event>
<event>
 7    1  0.5831876E-006  0.1018145E+03  0.7561462E-02  0.1276526E+00
         -2   -1    0    0    0  501 -0.00000000000E+00  0.00000000000E+00  0.99502796635E+02  0.99502796635E+02  0.00000000000E+00 0.  1.
          2   -1    0    0  501    0  0.00000000000E+00 -0.00000000000E+00 -0.24368064154E+03  0.24368064154E+03  0.00000000000E+00 0. -1.
         23    2    1    2    0    0 -0.29546468555E+02 -0.59548540531E+01  0.53595128903E+02  0.11047468681E+03  0.91781068266E+02 0.  0.
          5    1    1    2  502    0  0.48419819890E+02 -0.36833197817E+02 -0.16371981840E+03  0.17470779821E+03  0.41800000000E+01 0. -1.
         -5    1    1    2    0  502 -0.18873351335E+02  0.42788051870E+02 -0.34053155402E+02  0.58000953150E+02  0.41800000000E+01 0.  1.
        -11    1    3    3    0    0 -0.56585011181E+02  0.18199879133E+02  0.25837258702E+02  0.64812522155E+02  0.00000000000E+00 0.  1.
         11    1    3    3    0    0  0.27038542626E+02 -0.24154733186E+02  0.27757870200E+02  0.45662164652E+02  0.00000000000E+00 0. -1.
</event>
<event>
 7    1  0.5831876E-006  0.7598311E+02  0.7561462E-02  0.1340853E+00
          2   -1    0    0  501    0  0.00000000000E+00  0.00000000000E+00  0.25054310140E+02  0.25054310140E+02  0.00000000000E+00 0. -1.
         -2   -1    0    0    0  501 -0.00000000000E+00 -0.00000000000E+00 -0.56239624103E+03  0.56239624103E+03  0.00000000000E+00 0.  1.
         23    2    1    2    0    0  0.37188949834E+02 -0.30066006800E+02 -0.24074160715E+03  0.26201660652E+03  0.91701678969E+02 0.  0.
          5    1    1    2  502    0 -0.36859159273E+02  0.41430322397E+01 -0.29683539426E+03  0.29917300350E+03  0.41800000000E+01 0.  1.
         -5    1    1    2    0  502 -0.32979056135E+00  0.25922974560E+02  0.23507051712E+00  0.26260941149E+02  0.41800000000E+01 0.  1.
        -11    1    3    3    0    0  0.76452415868E+00  0.23549744103E+02 -0.14172996346E+03  0.14367518049E+03  0.00000000000E+00 0.  1.
         11    1    3    3    0    0  0.36424425675E+02 -0.53615750903E+02 -0.99011643685E+02  0.11834142603E+03  0.00000000000E+00 0. -1.
</event>
<event>
 7    1  0.5831876E-006  0.8981520E+02  0.7561462E-02  0.1303300E+00
          1   -1    0    0  501    0  0.00000000000E+00  0.00000000000E+00  0.11861969238E+03  0.11861969238E+03  0.00000000000E+00 0. -1.
         -1   -1    0    0    0  501 -0.00000000000E+00 -0.00000000000E+00 -0.11974763594E+03  0.11974763594E+03  0.00000000000E+00 0.  1.
         23    2    1    2    0    0  0.12005679668E+02  0.42256129403E+02 -0.17395802276E+02  0.10479299538E+03  0.93537378233E+02 0.  0.
          5    1    1    2  502    0 -0.21340122575E+01 -0.72420690999E+02 -0.28981761379E+02  0.78145539769E+02  0.41800000000E+01 0.  1.
         -5    1    1    2    0  502 -0.98716674105E+01  0.30164561596E+02  0.45249620101E+02  0.55428793177E+02  0.41800000000E+01 0.  1.
        -11    1    3    3    0    0  0.71388607802E+01  0.58065862316E+02 -0.44181080911E+02  0.73311497121E+02  0.00000000000E+00 0.  1.
         11    1    3    3    0    0  0.48668188879E+01 -0.15809732913E+02  0.26785278635E+02  0.31481498255E+02  0.00000000000E+00 0. -1.
</event>
<event>
 7    1  0.5831876E-006  0.1147814E+03  0.7561462E-02  0.1251963E+00
         -2   -1    0    0    0  501 -0.00000000000E+00  0.00000000000E+00  0.18650483882E+02  0.18650483882E+02  0.00000000000E+00 0.  1.
          2   -1    0    0  501    0  0.00000000000E+00 -0.00000000000E+00 -0.10606094168E+04  0.10606094168E+04  0.00000000000E+00 0. -1.
         23    2    1    2    0    0  0.32080742098E+02  0.81772683997E+02 -0.52698208278E+03  0.54207931682E+03  0.91781938815E+02 0.  0.
          5    1    1    2  502    0 -0.54154394087E+02 -0.65086684098E+02 -0.49641097310E+03  0.50359736045E+03  0.41800000000E+01 0. -1.
         -5    1    1    2    0  502  0.22073651989E+02 -0.16685999899E+02 -0.18565877063E+02  0.33583223429E+02  0.41800000000E+01 0. -1.
        -11    1    3    3    0    0 -0.24091279473E+02  0.40413553732E+02 -0.11531249109E+03  0.12454162225E+03  0.00000000000E+00 0.  1.
         11    1    3    3    0    0  0.56172021571E+02  0.41359130265E+02 -0.41166959169E+03  0.41753769457E+03  0.00000000000E+00 0. -1.
</event>
<event>
 7    1  0.5831876E-006  0.1152787E+03  0.7561462E-02  0.1251095E+00
         -4   -1    0    0    0  501 -0.00000000000E+00  0.00000000000E+00  0.15492714056E+03  0.15492714056E+03  0.00000000000E+00 0.  1.
          4   -1    0    0  501    0  0.00000000000E+00 -0.00000000000E+00 -0.92400354918E+02  0.92400354918E+02  0.00000000000E+00 0. -1.
         23    2    1    2    0    0  0.34408443087E+02  0.37108795089E+02  0.37802966121E+02  0.11015007837E+03  0.90238416919E+02 0.  0.
          5    1    1    2  502    0  0.18779508809E+02 -0.64488451673E+02 -0.97615972800E+01  0.68001408307E+02  0.41800000000E+01 0. -1.
         -5    1    1    2    0  502 -0.53187951897E+02  0.27379656584E+02  0.34485416797E+02  0.69176008798E+02  0.41800000000E+01 0. -1.
        -11    1    3    3    0    0  0.63779479090E+02  0.37369448365E+02  0.24204459976E+02  0.77782732703E+02  0.00000000000E+00 0. -1.
         11    1    3    3    0    0 -0.29371036002E+02 -0.26065327601E+00  0.13598506145E+02  0.32367345664E+02  0.00000000000E+00 0.  1.
</event>
<event>
 7    1  0.5831876E-006  0.5262666E+02  0.7561462E-02  0.1431668E+00
         -2   -1    0    0    0  501 -0.00000000000E+00  0.00000000000E+00  0.71782907782E+02  0.71782907782E+02  0.00000000000E+00 0.  1.
          2   -1    0    0  501    0  0.00000000000E+00 -0.00000000000E+00 -0.17158932873E+03  0.17158932873E+03  0.00000000000E+00 0. -1.
         23    2    1    2    0    0  0.17780479294E+00 -0.11496396608E+02 -0.15931800289E+02  0.92331436707E+02  0.90216812149E+02 0.  0.
          5    1    1    2  502    0 -0.27782703741E+02  0.30093492903E+02 -0.10404721368E+03  0.11189634496E+03  0.41800000000E+01 0. -1.
         -5    1    1    2    0  502  0.27604898948E+02 -0.18597096295E+02  0.20172593012E+02  0.39144454848E+02  0.41800000000E+01 0. -1.
        -11    1    3    3    0    0  0.12496759065E+02 -0.13111083423E+02  0.35267205973E+02  0.39646504420E+02  0.00000000000E+00 0.  1.
         11    1    3    3    0    0 -0.12318954272E+02  0.16146868154E+01 -0.51199006261E+02  0.52684932286E+02  0.00000000000E+00 0. -1.
</event>
<event>
 7    1  0.5831876E-006  0.8350014E+02  0.7561462E-02  0.1319402E+00
         -1   -1    0    0    0  501 -0.00000000000E+00  0.00000000000E+00  0.33630081739E+02  0.33630081739E+02  0.00000000000E+00 0.  1.
          1   -1    0    0  501    0  0.00000000000E+00 -0.00000000000E+00 -0.48137399286E+03  0.48137399286E+03  0.00000000000E+00 0. -1.
         23    2    1    2    0    0 -0.55065298531E+02  0.32792177495E+01 -0.12895854420E+03  0.16814158457E+03  0.92727266587E+02 0.  0.
          5    1    1    2  502    0  0.37398450579E+02 -0.17246446616E+02 -0.17888367557E+02  0.45094901269E+02  0.41800000000E+01 0.  1.
         -5    1    1    2    0  502  0.17666847952E+02  0.13967228866E+02 -0.30089699937E+03  0.30176758876E+03  0.41800000000E+01 0.  1.
        -11    1    3    3    0    0 -0.35677160065E+02  0.44565624786E+02 -0.96634277087E+02  0.11223697328E+03  0.00000000000E+00 0. -1.
         11    1    3    3    0    0 -0.19388138466E+02 -0.41286407037E+02 -0.32324267109E+02  0.55904611289E+02  0.00000000000E+00 0.  1.
</event>
<event>
 7    1  0.5831876E-006  0.1053055E+03  0.7561462E-02  0.1269519E+00
          2   -1    0    0  501    0  0.00000000000E+00  0.00000000000E+00  0.45655212091E+02  0.45655212091E+02  0.00000000000E+00 0. -1.
         -2   -1    0    0    0  501 -0.00000000000E+00 -0.00000000000E+00 -0.38382547535E+03  0.38382547535E+03  0.00000000000E+00 0.  1.
         23    2    1    2    0    0  0.74861543724E+02 -0.11790410213E+01 -0.11404856130E+03  0.16211666399E+03  0.87573383754E+02 0.  0.
          5    1    1    2  502    0 -0.96475043144E+02  0.28390968291E+02 -0.11530275258E+03  0.15305449416E+03  0.41800000000E+01 0.  1.
         -5    1    1    2    0  502  0.21613499419E+02 -0.27211927269E+02 -0.10881894938E+03  0.11430952929E+03  0.41800000000E+01 0.  1.
        -11    1    3    3    0    0  0.49295851432E+02  0.92713305905E+00 -0.12488802975E+03  0.13426824092E+03  0.00000000000E+00 0.  1.
         11    1    3    3    0    0  0.25565692292E+02 -0.21061740804E+01  0.10839468446E+02  0.27848423076E+02  0.00000000000E+00 0. -1.
</event>
<event>
 7    1  0.5831876E-006  0.1960940E+03  0.7561462E-02  0.1153077E+00
          2   -1    0    0  501    0  0.00000000000E+00  0.00000000000E+00  0.10664482279E+04  0.10664482279E+04  0.00000000000E+00 0. -1.
         -2   -1    0    0    0  501 -0.00000000000E+00 -0.00000000000E+00 -0.31204526644E+03  0.31204526644E+03  0.00000000000E+00 0.  1.
         23    2    1    2    0    0  0.73250984242E+02 -0.88548238400E+02 -0.26871633928E+03  0.31437925893E+03  0.11584191914E+03 0.  0.
          5    1    1    2  502    0 -0.44561910408E+02  0.16708728302E+03  0.89149145750E+03  0.90811806237E+03  0.41800000000E+01 0. -1.
         -5    1    1    2    0  502 -0.28689073834E+02 -0.78539044625E+02  0.13162784326E+03  0.15599617306E+03  0.41800000000E+01 0.  1.
        -11    1    3    3    0    0  0.63776278076E+02 -0.20798921590E+02 -0.22104250969E+03  0.23099740231E+03  0.00000000000E+00 0.  1.
         11    1    3    3    0    0  0.94747061659E+01 -0.67749316810E+02 -0.47673829597E+02  0.83381856621E+02  0.00000000000E+00 0. -1.
</event>
<event>
 7    1  0.5831876E-006  0.8782309E+02  0.7561462E-02  0.1308211E+00
          1   -1    0    0  501    0  0.00000000000E+00  0.00000000000E+00  0.28996463590E+03  0.28996463590E+03  0.00000000000E+00 0. -1.
         -1   -1    0    0    0  501 -0.00000000000E+00 -0.00000000000E+00 -0.53214982780E+02  0.53214982780E+02  0.00000000000E+00 0.  1.
         23    2    1    2    0    0 -0.59879886018E+02  0.23761086578E+02  0.84107967970E+02  0.13558049142E+03  0.84603365133E+02 0.  0.
          5    1    1    2  502    0  0.22865283365E+01 -0.10939961551E+02 -0.21003117389E+02  0.24156040872E+02  0.41800000000E+01 0. -1.
         -5    1    1    2    0  502  0.57593357681E+02 -0.12821125027E+02  0.17364480254E+03  0.18344308639E+03  0.41800000000E+01 0. -1.
        -11    1    3    3    0    0  0.12670557209E+02  0.29177924125E+02  0.37519724696E+02  0.49189673891E+02  0.00000000000E+00 0.  1.
         11    1    3    3    0    0 -0.72550443227E+02 -0.54168375465E+01  0.46588243274E+02  0.86390817526E+02  0.00000000000E+00 0. -1.
</event>
<event>
 7    1  0.5831876E-006  0.1961110E+03  0.7561462E-02  0.1153062E+00
          1   -1    0    0  501    0  0.00000000000E+00  0.00000000000E+00  0.27049175694E+03  0.27049175694E+03  0.00000000000E+00 0. -1.
         -1   -1    0    0    0  501 -0.00000000000E+00 -0.00000000000E+00 -0.15159498895E+03  0.15159498895E+03  0.00000000000E+00 0.  1.
         23    2    1    2    0    0 -0.12309198062E+03  0.11670765579E+03  0.38083433329E+02  0.19636579779E+03  0.91306440259E+02 0.  0.
          5    1    1    2  502    0  0.12309186639E+03 -0.35533958663E+02  0.37184763873E+02  0.13347077903E+03  0.41800000000E+01 0. -1.
         -5    1    1    2    0  502  0.11423101336E-03 -0.81173697128E+02  0.43628570780E+02  0.92250169072E+02  0.41800000000E+01 0. -1.
        -11    1    3    3    0    0 -0.37675395029E+02  0.82587613143E+02  0.49972483474E+02  0.10362141834E+03  0.00000000000E+00 0.  1.
         11    1    3    3    0    0 -0.85416585595E+02  0.34120042648E+02 -0.11889050145E+02  0.92744379444E+02  0.00000000000E+00 0. -1.
</event>
<event>
 7    1  0.5831876E-006  0.9382599E+02  0.7561462E-02  0.1293842E+00
         -2   -1    0    0    0  501 -0.00000000000E+00  0.00000000000E+00  0.11355899499E+03  0.11355899499E+03  0.00000000000E+00 0.  1.
          2   -1    0    0  501    0  0.00000000000E+00 -0.00000000000E+00 -0.12252769453E+03  0.12252769453E+03  0.00000000000E+00 0. -1.
         23    2    1    2    0    0  0.33201650014E+02 -0.34712880311E+02  0.24856099041E+02  0.10526833248E+03  0.90312028768E+02 0.  0.
          5    1    1    2  502    0 -0.47480999879E+02  0.67987647612E+02 -0.42607517395E+02  0.93325444097E+02  0.41800000000E+01 0. -1.
         -5    1    1    2    0  502  0.14279349865E+02 -0.33274767300E+02  0.87827188054E+01  0.37492912944E+02  0.41800000000E+01 0.  1.
        -11    1    3    3    0    0 -0.12656019087E+02 -0.96159115768E+01  0.46158537605E+02  0.48818553526E+02  0.00000000000E+00 0. -1.
         11    1    3    3    0    0  0.45857669101E+02 -0.25096968735E+02 -0.21302438564E+02  0.56449778953E+02  0.00000000000E+00 0.  1.
</event>
<event>
 7    1  0.5831876E-006  0.1122532E+03  0.7561462E-02  0.1256453E+00
         -2   -1    0    0    0  501 -0.00000000000E+00  0.00000000000E+00  0.10036216562E+03  0.10036216562E+03  0.00000000000E+00 0.  1.
          2   -1    0    0  501    0  0.00000000000E+00 -0.00000000000E+00 -0.21504360741E+03  0.21504360741E+03  0.00000000000E+00 0. -1.
         23    2    1    2    0    0 -0.53672172270E+02  0.71433531985E+01  0.35258901016E+02  0.11276951832E+03  0.92423182103E+02 0.  0.
          5    1    1    2  502    0  0.87803810960E+02  0.28943714964E+01 -0.14021777875E+03  0.16551853215E+03  0.41800000000E+01 0.  1.
         -5    1    1    2    0  502 -0.34131638691E+02 -0.10037724695E+02 -0.97225640485E+01  0.37117722565E+02  0.41800000000E+01 0.  1.
        -11    1    3    3    0    0 -0.26153292693E+01  0.39956471805E+02  0.33245233641E+02  0.52044261414E+02  0.00000000000E+00 0.  1.
         11    1    3    3    0    0 -0.51056843000E+02 -0.32813118607E+02  0.20136673753E+01  0.60725256905E+02  0.00000000000E+00 0. -1.
</event>
<event>
 7    1  0.5831876E-006  0.1663788E+03  0.7561462E-02  0.1181678E+00
          1   -1    0    0  501    0  0.00000000000E+00  0.00000000000E+00  0.10605673806E+03  0.10605673806E+03  0.00000000000E+00 0. -1.
         -1   -1    0    0    0  501 -0.00000000000E+00 -0.00000000000E+00 -0.32447176610E+03  0.32447176610E+03  0.00000000000E+00 0.  1.
         23    2    1    2    0    0  0.46204624658E+01 -0.14558761271E+03 -0.14763087313E+03  0.22589147132E+03  0.89526423281E+02 0.  0.
          5    1    1    2  502    0  0.33316277235E+02  0.11988464203E+03 -0.53104398560E+01  0.12461129521E+03  0.41800000000E+01 0. -1.
         -5    1    1    2    0  502 -0.37936739701E+02  0.25702970678E+02 -0.65473715043E+02  0.80025737624E+02  0.41800000000E+01 0. -1.
        -11    1    3    3    0    0  0.38108431313E+02 -0.76006053485E+02 -0.11260247691E+03  0.14109745040E+03  0.00000000000E+00 0.  1.
         11    1    3    3    0    0 -0.33487968847E+02 -0.69581559224E+02 -0.35028396222E+02  0.84794020918E+02  0.00000000000E+00 0. -1.
</event>
<event>
 7    1  0.5831876E-006  0.1433181E+03  0.7561462E-02  0.1208933E+00
         -2   -1    0    0    0  501 -0.00000000000E+00  0.00000000000E+00  0.18638728683E+03  0.18638728683E+03  0.00000000000E+00 0.  1.
          2   -1    0    0  501    0  0.00000000000E+00 -0.00000000000E+00 -0.15369562983E+03  0.15369562983E+03  0.00000000000E+00 0. -1.
         23    2    1    2    0    0 -0.24026707249E+02 -0.96366962561E+02  0.99062564095E+02  0.16712014034E+03  0.90839834692E+02 0.  0.
          5    1    1    2  502    0  0.36298691249E+02 -0.19427419401E+02 -0.62597455772E+01  0.41853033650E+02  0.41800000000E+01 0.  1.
         -5    1    1    2    0  502 -0.12271984000E+02  0.11579438196E+03 -0.60111161521E+02  0.13110974268E+03  0.41800000000E+01 0.  1.
        -11    1    3    3    0    0 -0.53897168725E+02 -0.49616457262E+02  0.79960415850E+02  0.10844521995E+03  0.00000000000E+00 0.  1.
         11    1    3    3    0    0  0.29870461476E+02 -0.46750505300E+02  0.19102148246E+02  0.58674920385E+02  0.00000000000E+00 0. -1.
</event>
<event>
 7    1  0.5831876E-006  0.9698985E+02  0.7561462E-02  0.1286756E+00
         -2   -1    0    0    0  501 -0.00000000000E+00  0.00000000000E+00  0.92030511234E+02  0.92030511234E+02  0.00000000000E+00 0.  1.
          2   -1    0    0  501    0  0.00000000000E+00 -0.00000000000E+00 -0.16762252669E+03  0.16762252669E+03  0.00000000000E+00 0. -1.
         23    2    1    2    0    0 -0.46129933619E+02  0.13871850322E+02  0.58359351311E+01  0.10281428699E+03  0.90643921270E+02 0.  0.
          5    1    1    2  502    0 -0.81148425263E+01  0.42324858079E+02  0.86129082058E+00  0.43306564197E+02  0.41800000000E+01 0. -1.
         -5    1    1    2    0  502  0.54244776145E+02 -0.56196708401E+02 -0.82289241409E+02  0.11353218674E+03  0.41800000000E+01 0. -1.
        -11    1    3    3    0    0  0.45196449052E+01  0.20851389951E+02 -0.32522762481E+02  0.38896500259E+02  0.00000000000E+00 0. -1.
         11    1    3    3    0    0 -0.50649578524E+02 -0.69795396294E+01  0.38358697612E+02  0.63917786731E+02  0.00000000000E+00 0.  1.
</event>
<event>
 7    1  0.5831876E-006  0.1154916E+03  0.7561462E-02  0.1250725E+00
         -1   -1    0    0    0  501 -0.00000000000E+00  0.00000000000E+00  0.28904814215E+02  0.28904814215E+02  0.00000000000E+00 0.  1.
          1   -1    0    0  501    0  0.00000000000E+00 -0.00000000000E+00 -0.86893715909E+03  0.86893715909E+03  0.00000000000E+00 0. -1.
         23    2    1    2    0    0 -0.72722034297E+02  0.82532996364E+02 -0.29230543636E+03  0.32534475895E+03  0.91140300019E+02 0.  0.
          5    1    1    2  502    0  0.48218164579E+02 -0.45329435225E+02 -0.50905923336E+03  0.51336003405E+03  0.41800000000E+01 0.  1.
         -5    1    1    2    0  502  0.24503869718E+02 -0.37203561139E+02 -0.38667675153E+02  0.59137180304E+02  0.41800000000E+01 0.  1.
        -11    1    3    3    0    0 -0.16817299082E+02  0.55188271327E+02 -0.23059203361E+03  0.23769992176E+03  0.00000000000E+00 0. -1.
         11    1    3    3    0    0 -0.55904735215E+02  0.27344725037E+02 -0.61713402757E+02  0.87644837193E+02  0.00000000000E+00 0.  1.
</event>
<event>
 7    1  0.5831876E-006  0.1382126E+03  0.7561462E-02  0.1215754E+00
          2   -1    0    0  501    0  0.00000000000E+00  0.00000000000E+00  0.22829602475E+03  0.22829602475E+03  0.00000000000E+00 0. -1.
         -2   -1    0    0    0  501 -0.00000000000E+00 -0.00000000000E+00 -0.10583478202E+03  0.10583478202E+03  0.00000000000E+00 0.  1.
         23    2    1    2    0    0  0.31905882412E+02  0.10768086292E+03  0.67737827350E+01  0.13006281288E+03  0.65247969999E+02 0.  0.
          5    1    1    2  502    0 -0.62055155964E+02 -0.43043367714E+02  0.10849953511E+03  0.13226184410E+03  0.41800000000E+01 0.  1.
         -5    1    1    2    0  502  0.30149273553E+02 -0.64637495207E+02  0.71879248808E+01  0.71806149782E+02  0.41800000000E+01 0.  1.
        -11    1    3    3    0    0  0.74593053504E+01 -0.80983437326E+01 -0.27492423032E+01  0.11348248357E+02  0.00000000000E+00 0.  1.
         11    1    3    3    0    0  0.24446577061E+02  0.11577920665E+03  0.95230250381E+01  0.11871456452E+03  0.00000000000E+00 0. -1.
</event>
<event>
 7    1  0.5831876E-006  0.1018712E+03  0.7561462E-02  0.1276410E+00
         -2   -1    0    0    0  501 -0.00000000000E+00  0.00000000000E+00  0.16948003771E+02  0.16948003771E+02  0.00000000000E+00 0.  1.
          2   -1    0    0  501    0  0.00000000000E+00 -0.00000000000E+00 -0.77328078719E+03  0.77328078719E+03  0.00000000000E+00 0. -1.
         23    2    1    2    0    0 -0.28698973673E+02  0.64568332131E+01 -0.25380180214E+03  0.27152696465E+03  0.91903296894E+02 0.  0.
          5    1    1    2  502    0 -0.19184293307E+02  0.45876204077E+02 -0.29872222983E+03  0.30286152976E+03  0.41800000000E+01 0.  1.
         -5    1    1    2    0  502  0.47883266980E+02 -0.52333037290E+02 -0.20380875145E+03  0.21584029655E+03  0.41800000000E+01 0.  1.
        -11    1    3    3    0    0  0.22246888486E+02 -0.15700355802E+02 -0.16162560142E+03  0.16390320392E+03  0.00000000000E+00 0. -1.
         11    1    3    3    0    0 -0.50945862159E+02  0.22157189015E+02 -0.92176200718E+02  0.10762376074E+03  0.00000000000E+00 0.  1.
</event>
<event>
 7    1  0.5831876E-006  0.1048674E+03  0.7561462E-02  0.1270381E+00
          3   -1    0    0  501    0  0.00000000000E+00  0.00000000000E+00  0.91857488847E+02  0.91857488847E+02  0.00000000000E+00 0. -1.
         -3   -1    0    0    0  501 -0.00000000000E+00 -0.00000000000E+00 -0.19142115247E+03  0.19142115247E+03  0.00000000000E+00 0.  1.
         23    2    1    2    0    0 -0.61863236122E+02  0.31139454317E+02 -0.79116860621E+02  0.13884014555E+03  0.90666326617E+02 0.  0.
          5    1    1    2  502    0  0.46640236798E+02 -0.51848486763E+02  0.38661596764E+02  0.79848410958E+02  0.41800000000E+01 0. -1.
         -5    1    1    2    0  502  0.15222999324E+02  0.20709032445E+02 -0.59108399768E+02  0.64590084815E+02  0.41800000000E+01 0. -1.
        -11    1    3    3    0    0 -0.46395462417E+02  0.63101704800E+02 -0.58727884445E+02  0.97894476315E+02  0.00000000000E+00 0. -1.
         11    1    3    3    0    0 -0.15467773705E+02 -0.31962250483E+02 -0.20388976176E+02  0.40945669232E+02  0.00000000000E+00 0.  1.
</event>
<event>
 7    1  0.5831876E-006  0.1482253E+03  0.7561462E-02  0.1202671E+00
         -2   -1    0    0    0  501 -0.00000000000E+00  0.00000000000E+00  0.30285147326E+03  0.30285147326E+03  0.00000000000E+00 0.  1.
          2   -1    0    0  501    0  0.00000000000E+00 -0.00000000000E+00 -0.90832713024E+02  0.90832713024E+02  0.00000000000E+00 0. -1.
         23    2    1    2    0    0  0.62177188555E+02  0.80734056813E+02  0.18477922460E+03  0.23015583360E+03  0.91893172707E+02 0.  0.
          5    1    1    2  502    0 -0.40468847361E+02 -0.11320157589E+03  0.10231294754E+02  0.12072479523E+03  0.41800000000E+01 0. -1.
         -5    1    1    2    0  502 -0.21708341194E+02  0.32467519080E+02  0.17008240881E+02  0.42803557451E+02  0.41800000000E+01 0. -1.
        -11    1    3    3    0    0 -0.13045714710E+02 -0.11826380589E+02  0.29507505099E+02  0.34361996556E+02  0.00000000000E+00 0.  1.
         11    1    3    3    0    0  0.75222903265E+02  0.92560437402E+02  0.15527171950E+03  0.19579383705E+03  0.00000000000E+00 0. -1.
</event>
<event>
 7    1  0.5831876E-006  0.8950238E+02  0.7561462E-02  0.1304061E+00
          3   -1    0    0  501    0  0.00000000000E+00  0.00000000000E+00  0.10465736460E+04  0.10465736460E+04  0.00000000000E+00 0. -1.
         -3   -1    0    0    0  501 -0.00000000000E+00 -0.00000000000E+00 -0.25052961876E+02  0.25052961876E+02  0.00000000000E+00 0.  1.
         23    2    1    2    0    0  0.54427326013E+02  0.36949381368E+02  0.13577869031E+03  0.17622445852E+03  0.91058313396E+02 0.  0.
          5    1    1    2  502    0 -0.27231771447E+02 -0.10361181782E+02  0.81009053758E+03  0.81062511369E+03  0.41800000000E+01 0. -1.
         -5    1    1    2    0  502 -0.27195554566E+02 -0.26588199586E+02  0.75651456189E+02  0.84777035623E+02  0.41800000000E+01 0.  1.
        -11    1    3    3    0    0 -0.24946893763E+02  0.14347388843E+02  0.46142236281E+02  0.54381072479E+02  0.00000000000E+00 0. -1.
         11    1    3    3    0    0  0.79374219776E+02  0.22601992526E+02  0.89636454031E+02  0.12184338604E+03  0.00000000000E+00 0.  1.
</event>
<event>
 7    1  0.5831876E-006  0.1400659E+03  0.7561462E-02  0.1213240E+00
          2   -1    0    0  501    0  0.00000000000E+00  0.00000000000E+00  0.92936843171E+02  0.92936843171E+02  0.00000000000E+00 0. -1.
         -2   -1    0    0    0  501 -0.00000000000E+00 -0.00000000000E+00 -0.21479520028E+03  0.21479520028E+03  0.00000000000E+00 0.  1.
         23    2    1    2    0    0  0.86818457421E+02  0.67350130148E+01 -0.55910529767E+02  0.14166303559E+03  0.96745146460E+02 0.  0.
          5    1    1    2  502    0 -0.52617916754E+02  0.57991896842E+02 -0.26295101968E+02  0.82707980572E+02  0.41800000000E+01 0.  1.
         -5    1    1    2    0  502 -0.34200540667E+02 -0.64726909857E+02 -0.39652725370E+02  0.83361027289E+02  0.41800000000E+01 0.  1.
        -11    1    3    3    0    0 -0.15708601353E+02  0.19533397419E+02 -0.20690239421E+02  0.32502304203E+02  0.00000000000E+00 0.  1.
         11    1    3    3    0    0  0.10252705877E+03 -0.12798384404E+02 -0.35220290347E+02  0.10916073138E+03  0.00000000000E+00 0. -1.
</event>
<event>
 7    1  0.5831876E-006  0.1171795E+03  0.7561462E-02  0.1247824E+00
          1   -1    0    0  501    0  0.00000000000E+00  0.00000000000E+00  0.56264469993E+03  0.56264469993E+03  0.00000000000E+00 0. -1.
         -1   -1    0    0    0  501 -0.00000000000E+00 -0.00000000000E+00 -0.35628712541E+02  0.35628712541E+02  0.00000000000E+00 0.  1.
         23    2    1    2    0    0  0.71275046487E+02 -0.17677789351E+02  0.12342383012E+03  0.16942282771E+03  0.89877784901E+02 0.  0.
          5    1    1    2  502    0 -0.23383731450E+01  0.61543603732E+02  0.14408591238E+03  0.15675237062E+03  0.41800000000E+01 0. -1.
         -5    1    1    2    0  502 -0.68936673342E+02 -0.43865814381E+02  0.25950624489E+03  0.27209821414E+03  0.41800000000E+01 0. -1.
        -11    1    3    3    0    0  0.74112548329E+02 -0.28666669737E+02  0.13276160345E+03  0.15472585797E+03  0.00000000000E+00 0. -1.
         11    1    3    3    0    0 -0.28375018422E+01  0.10988880386E+02 -0.93377733275E+01  0.14696969741E+02  0.00000000000E+00 0.  1.
</event>
<event>
 7    1  0.5831876E-006  0.1195816E+03  0.7561462E-02  0.1243789E+00
         -2   -1    0    0    0  501 -0.00000000000E+00  0.00000000000E+00  0.24289707886E+02  0.24289707886E+02  0.00000000000E+00 0.  1.
          2   -1    0    0  501    0  0.00000000000E+00 -0.00000000000E+00 -0.10544893472E+04  0.10544893472E+04  0.00000000000E+00 0. -1.
         23    2    1    2    0    0  0.26996433664E+01  0.87414238725E+02 -0.22024798192E+03  0.25457096969E+03  0.92998214295E+02 0.  0.
          5    1    1    2  502    0  0.35532366830E+02  0.17508540052E+02 -0.25810491664E+03  0.26116033095E+03  0.41800000000E+01 0. -1.
         -5    1    1    2    0  502 -0.38232010196E+02 -0.10492277878E+03 -0.55184674073E+03  0.56304775443E+03  0.41800000000E+01 0. -1.
        -11    1    3    3    0    0  0.36014664961E+01  0.40717066136E+02 -0.14163718029E+02  0.43260385390E+02  0.00000000000E+00 0.  1.
         11    1    3    3    0    0 -0.90182312971E+00  0.46697172589E+02 -0.20608426390E+03  0.21131058430E+03  0.00000000000E+00 0. -1.
</event>
<event>
 7    1  0.5831876E-006  0.9060975E+02  0.7561462E-02  0.1301382E+00
         -2   -1    0    0    0  501 -0.00000000000E+00  0.00000000000E+00  0.24872754837E+03  0.24872754837E+03  0.00000000000E+00 0.  1.
          2   -1    0    0  501    0  0.00000000000E+00 -0.00000000000E+00 -0.67535856499E+02  0.67535856499E+02  0.00000000000E+00 0. -1.
         23    2    1    2    0    0 -0.63396966699E+02 -0.21270634148E+02  0.10931962962E+03  0.15725606303E+03  0.91143143877E+02 0.  0.
          5    1    1    2  502    0  0.12144182629E+02  0.33342767169E+02 -0.28420501882E+02  0.45655433646E+02  0.41800000000E+01 0. -1.
         -5    1    1    2    0  502  0.51252784070E+02 -0.12072133021E+02  0.10029256412E+03  0.11335190819E+03  0.41800000000E+01 0. -1.
        -11    1    3    3    0    0 -0.38586261096E+01 -0.31947407759E+02  0.87035279272E+02  0.92793672715E+02  0.00000000000E+00 0.  1.
         11    1    3    3    0    0 -0.59538340590E+02  0.10676773611E+02  0.22284350352E+02  0.64462390318E+02  0.00000000000E+00 0. -1.
</event>
<event>
 7    1  0.5831876E-006  0.1037567E+03  0.7561462E-02  0.1272589E+00
          1   -1    0    0  501    0  0.00000000000E+00  0.00000000000E+00  0.75018595777E+03  0.75018595777E+03  0.00000000000E+00 0. -1.
         -1   -1    0    0    0  501 -0.00000000000E+00 -0.00000000000E+00 -0.21038630784E+02  0.21038630784E+02  0.00000000000E+00 0.  1.
         23    2    1    2    0    0 -0.10833446994E+02 -0.16064416921E+02  0.13728858635E+03  0.16598155797E+03  0.91248520962E+02 0.  0.
          5    1    1    2  502    0  0.57123075978E+02  0.37364886919E+02  0.43279800953E+03  0.43816751367E+03  0.41800000000E+01 0.  1.
         -5    1    1    2    0  502 -0.46289628985E+02 -0.21300469998E+02  0.15906073111E+03  0.16707551692E+03  0.41800000000E+01 0.  1.
        -11    1    3    3    0    0  0.21929043805E+02 -0.41223259458E+02  0.44898513884E+02  0.64777439217E+02  0.00000000000E+00 0.  1.
         11    1    3    3    0    0 -0.32762490799E+02  0.25158842537E+02  0.92390072471E+02  0.10120411875E+03  0.00000000000E+00 0. -1.
</event>
<event>
 7    1  0.5831876E-006  0.1437095E+03  0.7561462E-02  0.1208423E+00
         -2   -1    0    0    0  501 -0.00000000000E+00  0.00000000000E+00  0.72746094321E+02  0.72746094321E+02  0.00000000000E+00 0.  1.
          2   -1    0    0  501    0  0.00000000000E+00 -0.00000000000E+00 -0.38228796668E+03  0.38228796668E+03  0.00000000000E+00 0. -1.
         23    2    1    2    0    0 -0.10197595328E+03 -0.79308675909E+01 -0.46257636507E+02  0.14612010762E+03  0.93537816991E+02 0.  0.
          5    1    1    2  502    0  0.10104708946E+03  0.45958317332E+02 -0.23909795756E+03  0.26364367417E+03  0.41800000000E+01 0. -1.
         -5    1    1    2    0  502  0.92886382052E+00 -0.38027449741E+02 -0.24186278285E+02  0.45270279203E+02  0.41800000000E+01 0. -1.
        -11    1    3    3    0    0 -0.23486884843E+02 -0.45381395018E+02 -0.10943771820E+02  0.52257735457E+02  0.00000000000E+00 0.  1.
         11    1    3    3    0    0 -0.78489068440E+02  0.37450527428E+02 -0.35313864687E+02  0.93862372165E+02  0.00000000000E+00 0. -1.
</event>
<event>
 7    1  0.5831876E-006  0.1237988E+03  0.7561462E-02  0.1236959E+00
         -1   -1    0    0    0  501 -0.00000000000E+00  0.00000000000E+00  0.10053593498E+03  0.10053593498E+03  0.00000000000E+00 0.  1.
          1   -1    0    0  501    0  0.00000000000E+00 -0.00000000000E+00 -0.21801682446E+03  0.21801682446E+03  0.00000000000E+00 0. -1.
         23    2    1    2    0    0 -0.88256801571E+02 -0.18856022977E+02 -0.64808207341E+01  0.12851985479E+03  0.91271788701E+02 0.  0.
          5    1    1    2  502    0  0.11364376817E+03  0.18046043199E+02 -0.53361526115E+02  0.12690740951E+03  0.41800000000E+01 0. -1.
         -5    1    1    2    0  502 -0.25386966599E+02  0.80997977847E+00 -0.57638542623E+02  0.63125495135E+02  0.41800000000E+01 0. -1.
        -11    1    3    3    0    0 -0.51265976046E+01  0.15827532330E+02  0.27588466299E+02  0.32216707705E+02  0.00000000000E+00 0.  1.
         11    1    3    3    0    0 -0.83130203967E+02 -0.34683555307E+02 -0.34069287033E+02  0.96303147089E+02  0.00000000000E+00 0. -1.
</event>
<event>
 7    1  0.5831876E-006  0.8923225E+02  0.7561462E-02  0.1304722E+00
         -1   -1    0    0    0  501 -0.00000000000E+00  0.00000000000E+00  0.11920231188E+03  0.11920231188E+03  0.00000000000E+00 0.  1.
          1   -1    0    0  501    0  0.00000000000E+00 -0.00000000000E+00 -0.18870042336E+03  0.18870042336E+03  0.00000000000E+00 0. -1.
         23    2    1    2    0    0 -0.13506964428E+02  0.35747925846E+02  0.71137310839E+02  0.12153735958E+03  0.90832045506E+02 0.  0.
          5    1    1    2  502    0 -0.45586387450E+02 -0.28561225507E+02 -0.10165402872E+03  0.11508638616E+03  0.41800000000E+01 0. -1.
         -5    1    1    2    0  502  0.59093351878E+02 -0.71867003393E+01 -0.38981393596E+02  0.71278989504E+02  0.41800000000E+01 0.  1.
        -11    1    3    3    0    0 -0.33314230273E+02  0.28160229499E+02 -0.36752417246E+01  0.43776064988E+02  0.00000000000E+00 0. -1.
         11    1    3    3    0    0  0.19807265845E+02  0.75876963472E+01  0.74812552563E+02  0.77761294595E+02  0.00000000000E+00 0.  1.
</event>
<event>
 7    1  0.5831876E-006  0.1052346E+03  0.7561462E-02  0.1269658E+00
         -2   -1    0    0    0  501 -0.00000000000E+00  0.00000000000E+00  0.13341398669E+03  0.13341398669E+03  0.00000000000E+00 0.  1.
          2   -1    0    0  501    0  0.00000000000E+00 -0.00000000000E+00 -0.12895776310E+03  0.12895776310E+03  0.00000000000E+00 0. -1.
         23    2    1    2    0    0 -0.24189977439E+02  0.68812269312E+02 -0.29227478014E+00  0.11749669906E+03  0.92114632110E+02 0.  0.
          5    1    1    2  502    0 -0.12895256270E+02  0.47678478525E+01  0.49132441169E+02  0.51190713832E+02  0.41800000000E+01 0. -1.
         -5    1    1    2    0  502  0.37085233709E+02 -0.73580117164E+02 -0.44383942796E+02  0.93684336894E+02  0.41800000000E+01 0. -1.
        -11    1    3    3    0    0 -0.56258399399E+02  0.55009294968E+02 -0.14129611913E+02  0.79941703563E+02  0.00000000000E+00 0. -1.
         11    1    3    3    0    0  0.32068421959E+02  0.13802974344E+02  0.13837337133E+02  0.37554995495E+02  0.00000000000E+00 0.  1.
</event>
<event>
 7    1  0.5831876E-006  0.1006547E+03  0.7561462E-02  0.1278925E+00
          1   -1    0    0  501    0  0.00000000000E+00  0.00000000000E+00  0.96281225524E+02  0.96281225524E+02  0.00000000000E+00 0. -1.
         -1   -1    0    0    0  501 -0.00000000000E+00 -0.00000000000E+00 -0.13953810528E+03  0.13953810528E+03  0.00000000000E+00 0.  1.
         23    2    1    2    0    0 -0.27641338986E+02 -0.29022202424E+02 -0.82208255251E+00  0.97775192027E+02  0.89179484758E+02 0.  0.
          5    1    1    2  502    0 -0.30264044556E+02  0.47000960733E+02  0.10989791527E+02  0.57124868669E+02  0.41800000000E+01 0. -1.
         -5    1    1    2    0  502  0.57905383541E+02 -0.17978758308E+02 -0.53424588727E+02  0.80919270103E+02  0.41800000000E+01 0. -1.
        -11    1    3    3    0    0  0.43623111806E+01  0.22993042452E+02  0.22439563002E+02  0.32422889257E+02  0.00000000000E+00 0. -1.
         11    1    3    3    0    0 -0.32003650166E+02 -0.52015244877E+02 -0.23261645554E+02  0.65352302771E+02  0.00000000000E+00 0.  1.
</event>
<event>
 7    1  0.5831876E-006  0.2513583E+03  0.7561462E-02  0.1112449E+00
          2   -1    0    0  501    0  0.00000000000E+00  0.00000000000E+00  0.20981906046E+04  0.20981906046E+04  0.00000000000E+00 0.  1.
         -2   -1    0    0    0  501 -0.00000000000E+00 -0.00000000000E+00 -0.40917672798E+02  0.40917672798E+02  0.00000000000E+00 0. -1.
         23    2    1    2    0    0  0.16905610982E+03 -0.18212583933E+03  0.60686859775E+03  0.66226271973E+03  0.92480405444E+02 0.  0.
          5    1    1    2  502    0 -0.10675076287E+03  0.13806742980E+03  0.65799075081E+03  0.68075519910E+03  0.41800000000E+01 0.  1.
         -5    1    1    2    0  502 -0.62305346947E+02  0.44058409530E+02  0.79241358322E+03  0.79609035855E+03  0.41800000000E+01 0.  1.
        -11    1    3    3    0    0  0.78760385429E+02 -0.11420828515E+03  0.43494924735E+03  0.45653869330E+03  0.00000000000E+00 0.  1.
         11    1    3    3    0    0  0.90295724390E+02 -0.67917554173E+02  0.17191935040E+03  0.20572402643E+03  0.00000000000E+00 0. -1.
</event>
<event>
 7    1  0.5831876E-006  0.8654664E+02  0.7561462E-02  0.1311437E+00
          2   -1    0    0  501    0  0.00000000000E+00  0.00000000000E+00  0.61775089688E+03  0.61775089688E+03  0.00000000000E+00 0.  1.
         -2   -1    0    0    0  501 -0.00000000000E+00 -0.00000000000E+00 -0.21150317567E+02  0.21150317567E+02  0.00000000000E+00 0. -1.
         23    2    1    2    0    0 -0.29494923990E+02 -0.89244600744E+01  0.20383114180E+03  0.22554522445E+03  0.91509110887E+02 0.  0.
          5    1    1    2  502    0  0.46990507812E+02  0.33015139850E+02  0.76950021840E+02  0.96108717320E+02  0.41800000000E+01 0. -1.
         -5    1    1    2    0  502 -0.17495583823E+02 -0.24090679776E+02  0.31581941567E+03  0.31724727267E+03  0.41800000000E+01 0. -1.
        -11    1    3    3    0    0  0.22830416477E+02  0.15608254233E+02  0.12366752725E+03  0.12672214807E+03  0.00000000000E+00 0.  1.
         11    1    3    3    0    0 -0.52325340467E+02 -0.24532714307E+02  0.80163614554E+02  0.98823076377E+02  0.00000000000E+00 0. -1.
</event>
<event>
 7    1  0.5831876E-006  0.1360034E+03  0.7561462E-02  0.1218810E+00
          4   -1    0    0  501    0  0.00000000000E+00  0.00000000000E+00  0.17825862375E+03  0.17825862375E+03  0.00000000000E+00 0. -1.
         -4   -1    0    0    0  501 -0.00000000000E+00 -0.00000000000E+00 -0.19844377534E+03  0.19844377534E+03  0.00000000000E+00 0.  1.
         23    2    1    2    0    0  0.81950376903E+02  0.53466040266E+02 -0.13379275789E+03  0.18978271557E+03  0.92425620533E+02 0.  0.
          5    1    1    2  502    0 -0.81890978597E+02 -0.77656065863E+02  0.11643692028E+03  0.16220858715E+03  0.41800000000E+01 0. -1.
         -5    1    1    2    0  502 -0.59398305761E-01  0.24190025597E+02 -0.28293139817E+01  0.24711096377E+02  0.41800000000E+01 0.  1.
        -11    1    3    3    0    0 -0.99908373845E+01  0.40450958246E+02 -0.44397171786E+02  0.60886827124E+02  0.00000000000E+00 0. -1.
         11    1    3    3    0    0  0.91941214288E+02  0.13015082021E+02 -0.89395586100E+02  0.12889588845E+03  0.00000000000E+00 0.  1.
</event>
<event>
 7    1  0.5831876E-006  0.5953252E+02  0.7561462E-02  0.1399804E+00
          3   -1    0    0  501    0  0.00000000000E+00  0.00000000000E+00  0.12493922080E+03  0.12493922080E+03  0.00000000000E+00 0. -1.
         -3   -1    0    0    0  501 -0.00000000000E+00 -0.00000000000E+00 -0.10517732538E+03  0.10517732538E+03  0.00000000000E+00 0.  1.
         23    2    1    2    0    0 -0.89084197440E+01 -0.58330457954E+01 -0.21152666594E+02  0.98074600555E+02  0.95172514963E+02 0.  0.
          5    1    1    2  502    0  0.18171552261E+02 -0.16102431619E+02  0.81312518200E+02  0.84962883847E+02  0.41800000000E+01 0.  1.
         -5    1    1    2    0  502 -0.92631325166E+01  0.21935477414E+02 -0.40397956191E+02  0.47079061777E+02  0.41800000000E+01 0.  1.
        -11    1    3    3    0    0  0.18865645132E+02  0.23314781220E+02 -0.42877545472E+02  0.52325667653E+02  0.00000000000E+00 0.  1.
         11    1    3    3    0    0 -0.27774064876E+02 -0.29147827016E+02  0.21724878878E+02  0.45748932903E+02  0.00000000000E+00 0. -1.
</event>
<event>
 7    1  0.5831876E-006  0.1837695E+03  0.7561462E-02  0.1164204E+00
          2   -1    0    0  501    0  0.00000000000E+00  0.00000000000E+00  0.57163991775E+03  0.57163991775E+03  0.00000000000E+00 0. -1.
         -2   -1    0    0    0  501 -0.00000000000E+00 -0.00000000000E+00 -0.75589150724E+02  0.75589150724E+02  0.00000000000E+00 0.  1.
         23    2    1    2    0    0 -0.51701749546E+02  0.14762206513E+03  0.10777651073E+03  0.21034153287E+03  0.90346218328E+02 0.  0.
          5    1    1    2  502    0  0.84754702045E+02 -0.96287150798E+02  0.32222581979E+03  0.34684510414E+03  0.41800000000E+01 0.  1.
         -5    1    1    2    0  502 -0.33052952499E+02 -0.51334914333E+02  0.66048436509E+02  0.90042431462E+02  0.41800000000E+01 0.  1.
        -11    1    3    3    0    0  0.23722305875E+02  0.41513269820E+02  0.45600318595E+02  0.66071842892E+02  0.00000000000E+00 0.  1.
         11    1    3    3    0    0 -0.75424055421E+02  0.10610879531E+03  0.62176192132E+02  0.14426968998E+03  0.00000000000E+00 0. -1.
</event>
<event>
 7    1  0.5831876E-006  0.1097301E+03  0.7561462E-02  0.1261071E+00
          1   -1    0    0  501    0  0.00000000000E+00  0.00000000000E+00  0.39721821642E+03  0.39721821642E+03  0.00000000000E+00 0. -1.
         -1   -1    0    0    0  501 -0.00000000000E+00 -0.00000000000E+00 -0.32661388004E+02  0.32661388004E+02  0.00000000000E+00 0.  1.
         23    2    1    2    0    0  0.26646580982E+02 -0.10422678134E+02  0.12187511192E+03  0.15535845777E+03  0.92000190196E+02 0.  0.
          5    1    1    2  502    0  0.41771363021E+02  0.33988207352E+02  0.12697242767E+03  0.13798374830E+03  0.41800000000E+01 0. -1.
         -5    1    1    2    0  502 -0.68417944003E+02 -0.23565529218E+02  0.11570928883E+03  0.13653739836E+03  0.41800000000E+01 0. -1.
        -11    1    3    3    0    0 -0.26975663945E+02 -0.25646589707E+02  0.69661077684E+02  0.78981641873E+02  0.00000000000E+00 0. -1.
         11    1    3    3    0    0  0.53622244927E+02  0.15223911573E+02  0.52214034236E+02  0.76376815892E+02  0.00000000000E+00 0.  1.
</event>
<event>
 7    1  0.5831876E-006  0.1284057E+03  0.7561462E-02  0.1229841E+00
         -1   -1    0    0    0  501 -0.00000000000E+00  0.00000000000E+00  0.91641017531E+02  0.91641017531E+02  0.00000000000E+00 0.  1.
          1   -1    0    0  501    0  0.00000000000E+00 -0.00000000000E+00 -0.49374723599E+03  0.49374723599E+03  0.00000000000E+00 0. -1.
         23    2    1    2    0    0 -0.90800853294E+02 -0.86886870286E+02 -0.12142969620E+02  0.15700386955E+03  0.93320095126E+02 0.  0.
          5    1    1    2  502    0  0.88895298101E+01  0.13938363912E+02 -0.24967877901E+03  0.25026039802E+03  0.41800000000E+01 0.  1.
         -5    1    1    2    0  502  0.81911323484E+02  0.72948506374E+02 -0.14028446983E+03  0.17812398595E+03  0.41800000000E+01 0.  1.
        -11    1    3    3    0    0 -0.37284809476E+02 -0.14573274517E+02  0.36984700141E+02  0.54501425599E+02  0.00000000000E+00 0.  1.
         11    1    3    3    0    0 -0.53516043818E+02 -0.72313595769E+02 -0.49127669761E+02  0.10250244395E+03  0.00000000000E+00 0. -1.
</event>
<event>
 7    1  0.5831876E-006  0.1132160E+03  0.7561462E-02  0.1254728E+00
         -3   -1    0    0    0  501 -0.00000000000E+00  0.00000000000E+00  0.13959053724E+03  0.13959053724E+03  0.00000000000E+00 0.  1.
          3   -1    0    0  501    0  0.00000000000E+00 -0.00000000000E+00 -0.12077118211E+03  0.12077118211E+03  0.00000000000E+00 0. -1.
         23    2    1    2    0    0  0.11914885783E+02  0.60337436205E+02  0.63631593819E+02  0.11394118033E+03  0.71770760981E+02 0.  0.
          5    1    1    2  502    0  0.38335406348E+02 -0.70707254950E+02 -0.49812974486E+02  0.94699124123E+02  0.41800000000E+01 0. -1.
         -5    1    1    2    0  502 -0.50250292131E+02  0.10369818745E+02  0.50007357946E+01  0.51721414893E+02  0.41800000000E+01 0. -1.
        -11    1    3    3    0    0  0.28692977308E+02  0.69575788900E+02  0.48527270123E+02  0.89548720222E+02  0.00000000000E+00 0. -1.
         11    1    3    3    0    0 -0.16778091525E+02 -0.92383526948E+01  0.15104323697E+02  0.24392460107E+02  0.00000000000E+00 0.  1.
</event>
<event>
 7    1  0.5831876E-006  0.1905521E+03  0.7561462E-02  0.1157964E+00
         -3   -1    0    0    0  501 -0.00000000000E+00  0.00000000000E+00  0.20267265032E+03  0.20267265032E+03  0.00000000000E+00 0.  1.
          3   -1    0    0  501    0  0.00000000000E+00 -0.00000000000E+00 -0.19828058731E+03  0.19828058731E+03  0.00000000000E+00 0. -1.
         23    2    1    2    0    0 -0.12186789933E+03  0.10198965056E+03 -0.54225053866E+02  0.19039491788E+03  0.89756306636E+02 0.  0.
          5    1    1    2  502    0 -0.21032251979E+02 -0.37520839443E+02  0.23029714484E+00  0.43216830663E+02  0.41800000000E+01 0. -1.
         -5    1    1    2    0  502  0.14290015131E+03 -0.64468811118E+02  0.58386819730E+02  0.16734148908E+03  0.41800000000E+01 0. -1.
        -11    1    3    3    0    0 -0.11316280726E+03  0.11759071544E+03 -0.41293703619E+02  0.16834062868E+03  0.00000000000E+00 0.  1.
         11    1    3    3    0    0 -0.87050920639E+01 -0.15601064877E+02 -0.12931350247E+02  0.22054289205E+02  0.00000000000E+00 0. -1.
</event>
<event>
 7    1  0.5831876E-006  0.8658484E+02  0.7561462E-02  0.1311339E+00
         -1   -1    0    0    0  501 -0.00000000000E+00  0.00000000000E+00  0.11823683467E+02  0.11823683467E+02  0.00000000000E+00 0.  1.
          1   -1    0    0  501    0  0.00000000000E+00 -0.00000000000E+00 -0.14512235769E+04  0.14512235769E+04  0.00000000000E+00 0. -1.
         23    2    1    2    0    0 -0.31352973623E+02 -0.12966554056E+02 -0.29179904365E+03  0.30815130138E+03  0.93055908943E+02 0.  0.
          5    1    1    2  502    0  0.17875336361E+02  0.47497569827E+02 -0.10355041092E+04  0.10367554096E+04  0.41800000000E+01 0. -1.
         -5    1    1    2    0  502  0.13477637262E+02 -0.34531015771E+02 -0.11209674053E+03  0.11814054932E+03  0.41800000000E+01 0. -1.
        -11    1    3    3    0    0 -0.91176431596E-01 -0.42166897170E+02 -0.65888741423E+02  0.78226477464E+02  0.00000000000E+00 0. -1.
         11    1    3    3    0    0 -0.31261797191E+02  0.29200343113E+02 -0.22591030223E+03  0.22992482392E+03  0.00000000000E+00 0.  1.
</event>
<event>
 7    1  0.5831876E-006  0.1092350E+03  0.7561462E-02  0.1261993E+00
         -1   -1    0    0    0  501 -0.00000000000E+00  0.00000000000E+00  0.41066258626E+02  0.41066258626E+02  0.00000000000E+00 0.  1.
          1   -1    0    0  501    0  0.00000000000E+00 -0.00000000000E+00 -0.31464667398E+03  0.31464667398E+03  0.00000000000E+00 0. -1.
         23    2    1    2    0    0  0.44103210024E+01 -0.21439930548E+02 -0.74145899010E+02  0.11927905474E+03  0.90833677709E+02 0.  0.
          5    1    1    2  502    0 -0.29724493201E+02 -0.45948201901E+02 -0.86481801442E+02  0.10242732611E+03  0.41800000000E+01 0. -1.
         -5    1    1    2    0  502  0.25314172199E+02  0.67388132449E+02 -0.11295271490E+03  0.13400655175E+03  0.41800000000E+01 0. -1.
        -11    1    3    3    0    0 -0.40988500348E+02  0.64404142732E+00 -0.45459363215E+02  0.61212953319E+02  0.00000000000E+00 0.  1.
         11    1    3    3    0    0  0.45398821350E+02 -0.22083971975E+02 -0.28686535795E+02  0.58066101420E+02  0.00000000000E+00 0. -1.
</event>
<event>
 7    1  0.5831876E-006  0.2394019E+03  0.7561462E-02  0.1120192E+00
         -1   -1    0    0    0  501 -0.00000000000E+00  0.00000000000E+00  0.73981601625E+03  0.73981601625E+03  0.00000000000E+00 0.  1.
          1   -1    0    0  501    0  0.00000000000E+00 -0.00000000000E+00 -0.87308489729E+02  0.87308489729E+02  0.00000000000E+00 0. -1.
         23    2    1    2    0    0 -0.11621384067E+03  0.19162763409E+03  0.23564676060E+03  0.33758739470E+03  0.90603787830E+02 0.  0.
          5    1    1    2  502    0 -0.24326626423E+02 -0.28830815846E+02  0.96123648556E+02  0.10334519296E+03  0.41800000000E+01 0. -1.
         -5    1    1    2    0  502  0.14054046709E+03 -0.16279681825E+03  0.32073711736E+03  0.38619191832E+03  0.41800000000E+01 0. -1.
        -11    1    3    3    0    0 -0.83982029259E+01  0.32219103303E+02  0.90830788704E+02  0.96741059569E+02  0.00000000000E+00 0.  1.
         11    1    3    3    0    0 -0.10781563774E+03  0.15940853079E+03  0.14481597190E+03  0.24084633513E+03  0.00000000000E+00 0. -1.
</event>
<event>
 7    1  0.5831876E-006  0.8186975E+02  0.7561462E-02  0.1323828E+00
          1   -1    0    0  501    0  0.00000000000E+00  0.00000000000E+00  0.59214798589E+03  0.59214798589E+03  0.00000000000E+00 0. -1.
         -1   -1    0    0    0  501 -0.00000000000E+00 -0.00000000000E+00 -0.25782309245E+02  0.25782309245E+02  0.00000000000E+00 0.  1.
         23    2    1    2    0    0 -0.61188687028E+02 -0.16935677566E+02  0.24526316298E+03  0.26752221720E+03  0.85925810922E+02 0.  0.
          5    1    1    2  502    0 -0.55426319068E+01  0.92875157675E+01  0.25765849343E+03  0.25791927100E+03  0.41800000000E+01 0. -1.
         -5    1    1    2    0  502  0.66731318934E+02  0.76481617984E+01  0.63444020234E+02  0.92488806939E+02  0.41800000000E+01 0. -1.
        -11    1    3    3    0    0 -0.20921033219E+02  0.20914350494E+02  0.20317175660E+02  0.35887146924E+02  0.00000000000E+00 0.  1.
         11    1    3    3    0    0 -0.40267653808E+02 -0.37850028060E+02  0.22494598732E+03  0.23163507027E+03  0.00000000000E+00 0. -1.
</event>
<event>
 7    1  0.5831876E-006  0.1421580E+03  0.7561462E-02  0.1210454E+00
         -1   -1    0    0    0  501 -0.00000000000E+00  0.00000000000E+00  0.63702891687E+03  0.63702891687E+03  0.00000000000E+00 0.  1.
          1   -1    0    0  501    0  0.00000000000E+00 -0.00000000000E+00 -0.37510036889E+02  0.37510036889E+02  0.00000000000E+00 0. -1.
         23    2    1    2    0    0 -0.10252063455E+03  0.89643958040E+01  0.35272944139E+03  0.37933904739E+03  0.94282623787E+02 0.  0.
          5    1    1    2  502    0  0.76145049002E+02 -0.64421223313E+02  0.16479494554E+03  0.19267332191E+03  0.41800000000E+01 0.  1.
         -5    1    1    2    0  502  0.26375585551E+02  0.55456827509E+02  0.81994493055E+02  0.10252658446E+03  0.41800000000E+01 0.  1.
        -11    1    3    3    0    0 -0.95027613004E+02 -0.16449491253E+02  0.33192531721E+03  0.34565191913E+03  0.00000000000E+00 0.  1.
         11    1    3    3    0    0 -0.74930215493E+01  0.25413887057E+02  0.20804124188E+02  0.33687128261E+02  0.00000000000E+00 0. -1.
</event>
<event>
 7    1  0.5831876E-006  0.3257137E+03  0.7561462E-02  0.1073049E+00
         -2   -1    0    0    0  501 -0.00000000000E+00  0.00000000000E+00  0.45252210859E+02  0.45252210859E+02  0.00000000000E+00 0.  1.
          2   -1    0    0  501    0  0.00000000000E+00 -0.00000000000E+00 -0.26203097965E+04  0.26203097965E+04  0.00000000000E+00 0. -1.
         23    2    1    2    0    0 -0.22877191098E+03 -0.22934547528E+03 -0.11163122187E+04  0.11660549363E+04  0.92710358242E+02 0.  0.
          5    1    1    2  502    0  0.32575733271E+02  0.13621130662E+02 -0.52940179076E+02  0.63771847702E+02  0.41800000000E+01 0. -1.
         -5    1    1    2    0  502  0.19619617771E+03  0.21572434462E+03 -0.14058051879E+04  0.14357352234E+04  0.41800000000E+01 0. -1.
        -11    1    3    3    0    0 -0.15484671935E+03 -0.16438601778E+03 -0.90806679680E+03  0.93572729830E+03  0.00000000000E+00 0. -1.
         11    1    3    3    0    0 -0.73925191627E+02 -0.64959457496E+02 -0.20824542189E+03  0.23032763797E+03  0.00000000000E+00 0.  1.
</event>
<event>
 7    1  0.5831876E-006  0.2997419E+03  0.7561462E-02  0.1085370E+00
          1   -1    0    0  501    0  0.00000000000E+00  0.00000000000E+00  0.19536111375E+04  0.19536111375E+04  0.00000000000E+00 0. -1.
         -1   -1    0    0    0  501 -0.00000000000E+00 -0.00000000000E+00 -0.48151569178E+02  0.48151569178E+02  0.00000000000E+00 0.  1.
         23    2    1    2    0    0  0.37339146630E+02  0.28385760901E+03  0.97142778720E+03  0.10168606172E+04  0.91456082775E+02 0.  0.
          5    1    1    2  502    0 -0.78665818131E+02 -0.22121590290E+03  0.75671323508E+03  0.79231128932E+03  0.41800000000E+01 0. -1.
         -5    1    1    2    0  502  0.41326671501E+02 -0.62641706105E+02  0.17731854603E+03  0.19259080011E+03  0.41800000000E+01 0. -1.
        -11    1    3    3    0    0 -0.14736781805E+01  0.15296010409E+03  0.64773672724E+03  0.66555377919E+03  0.00000000000E+00 0. -1.
         11    1    3    3    0    0  0.38812824810E+02  0.13089750491E+03  0.32369105996E+03  0.35130683805E+03  0.00000000000E+00 0.  1.
</event>
<event>
 7    1  0.5831876E-006  0.1118632E+03  0.7561462E-02  0.1257158E+00
          3   -1    0    0  501    0  0.00000000000E+00  0.00000000000E+00  0.74244776171E+02  0.74244776171E+02  0.00000000000E+00 0. -1.
         -3   -1    0    0    0  501 -0.00000000000E+00 -0.00000000000E+00 -0.23522184401E+03  0.23522184401E+03  0.00000000000E+00 0.  1.
         23    2    1    2    0    0  0.62972513576E+02 -0.19596090139E+02 -0.11809363020E+03  0.16169751657E+03  0.88602692711E+02 0.  0.
          5    1    1    2  502    0 -0.39874058466E+02 -0.35486782450E+02  0.23412302142E+02  0.58436808253E+02  0.41800000000E+01 0.  1.
         -5    1    1    2    0  502 -0.23098455110E+02  0.55082872589E+02 -0.66295739782E+02  0.89332295361E+02  0.41800000000E+01 0.  1.
        -11    1    3    3    0    0  0.39811781921E+02 -0.55063844120E+02 -0.68681553383E+02  0.96613460160E+02  0.00000000000E+00 0.  1.
         11    1    3    3    0    0  0.23160731656E+02  0.35467753980E+02 -0.49412076818E+02  0.65084056410E+02  0.00000000000E+00 0. -1.
</event>
<event>
 7    1  0.5831876E-006  0.1023798E+03  0.7561462E-02  0.1275370E+00
         -2   -1    0    0    0  501 -0.00000000000E+00  0.00000000000E+00  0.10742694544E+03  0.10742694544E+03  0.00000000000E+00 0. -1.
          2   -1    0    0  501    0  0.00000000000E+00 -0.00000000000E+00 -0.11405478920E+03  0.11405478920E+03  0.00000000000E+00 0.  1.
         23    2    1    2    0    0 -0.69589890392E+01  0.22128803178E+02 -0.63734951866E+01  0.94258133457E+02  0.91136506535E+02 0.  0.
          5    1    1    2  502    0  0.28791621656E+02 -0.66622102747E+02 -0.17153489939E+02  0.74693886424E+02  0.41800000000E+01 0.  1.
         -5    1    1    2    0  502 -0.21832632617E+02  0.44493299569E+02  0.16899141371E+02  0.52529714758E+02  0.41800000000E+01 0.  1.
        -11    1    3    3    0    0 -0.23411227840E+01  0.52023195720E+02 -0.25994190974E+02  0.58203021512E+02  0.00000000000E+00 0. -1.
         11    1    3    3    0    0 -0.46178662552E+01 -0.29894392541E+02  0.19620695788E+02  0.36055111945E+02  0.00000000000E+00 0.  1.
</event>
<event>
 7    1  0.5831876E-006  0.5905155E+02  0.7561462E-02  0.1401856E+00
          1   -1    0    0  501    0  0.00000000000E+00  0.00000000000E+00  0.46120918884E+03  0.46120918884E+03  0.00000000000E+00 0. -1.
         -1   -1    0    0    0  501 -0.00000000000E+00 -0.00000000000E+00 -0.26385430808E+02  0.26385430808E+02  0.00000000000E+00 0.  1.
         23    2    1    2    0    0 -0.19483327680E+02 -0.84275238450E+01  0.16945718453E+03  0.19345493800E+03  0.90876027822E+02 0.  0.
          5    1    1    2  502    0  0.32393251957E+02  0.55807361733E+00  0.47016821673E+01  0.33003218536E+02  0.41800000000E+01 0. -1.
         -5    1    1    2    0  502 -0.12909924277E+02  0.78694502276E+01  0.26066489133E+03  0.26113646311E+03  0.41800000000E+01 0. -1.
        -11    1    3    3    0    0 -0.33190947468E+02 -0.29636582850E+02  0.34905742089E+02  0.56554194076E+02  0.00000000000E+00 0.  1.
         11    1    3    3    0    0  0.13707619788E+02  0.21209059005E+02  0.13455144244E+03  0.13690074392E+03  0.00000000000E+00 0. -1.
</event>
<event>
 7    1  0.5831876E-006  0.1253201E+03  0.7561462E-02  0.1234570E+00
         -2   -1    0    0    0  501 -0.00000000000E+00  0.00000000000E+00  0.40669748130E+03  0.40669748130E+03  0.00000000000E+00 0.  1.
          2   -1    0    0  501    0  0.00000000000E+00 -0.00000000000E+00 -0.40039927183E+02  0.40039927183E+02  0.00000000000E+00 0. -1.
         23    2    1    2    0    0  0.40978864498E+02 -0.55044702090E+02  0.16136817251E+03  0.19673656133E+03  0.89198659765E+02 0.  0.
          5    1    1    2  502    0 -0.78953578991E+02  0.82821384176E+01  0.91723365714E+02  0.12137919785E+03  0.41800000000E+01 0. -1.
         -5    1    1    2    0  502  0.37974714493E+02  0.46762563672E+02  0.11356601590E+03  0.12862164930E+03  0.41800000000E+01 0. -1.
        -11    1    3    3    0    0  0.50359288926E+02  0.44256751049E+01  0.91247572495E+02  0.10431569425E+03  0.00000000000E+00 0.  1.
         11    1    3    3    0    0 -0.93804244278E+01 -0.59470377195E+02  0.70120600012E+02  0.92420867082E+02  0.00000000000E+00 0. -1.
</event>
<event>
 7    1  0.5831876E-006  0.9188809E+02  0.7561462E-02  0.1298343E+00
          3   -1    0    0  501    0  0.00000000000E+00  0.00000000000E+00  0.36514575470E+03  0.36514575470E+03  0.00000000000E+00 0. -1.
         -3   -1    0    0    0  501 -0.00000000000E+00 -0.00000000000E+00 -0.30928339568E+02  0.30928339568E+02  0.00000000000E+00 0.  1.
         23    2    1    2    0    0  0.39679461715E+01 -0.95416969008E+01  0.10701344821E+03  0.13650335192E+03  0.84110037511E+02 0.  0.
          5    1    1    2  502    0 -0.50244052304E+02  0.14274140100E+02  0.19723698804E+03  0.20407870472E+03  0.41800000000E+01 0. -1.
         -5    1    1    2    0  502  0.46276106133E+02 -0.47324431994E+01  0.29966978877E+02  0.55492037631E+02  0.41800000000E+01 0. -1.
        -11    1    3    3    0    0  0.25500626582E+02 -0.39960128773E+02  0.62664256240E+02  0.78574186968E+02  0.00000000000E+00 0. -1.
         11    1    3    3    0    0 -0.21532680411E+02  0.30418431872E+02  0.44349191974E+02  0.57929164952E+02  0.00000000000E+00 0.  1.
</event>
<event>
 7    1  0.5831876E-006  0.1018145E+03  0.7561462E-02  0.1276526E+00
          2   -1    0    0  501    0  0.00000000000E+00  0.00000000000E+00  0.31734658625E+02  0.31734658625E+02  0.00000000000E+00 0.  1.
         -2   -1    0    0    0  501 -0.00000000000E+00 -0.00000000000E+00 -0.59563582966E+03  0.59563582966E+03  0.00000000000E+00 0. -1.
         23    2    1    2    0    0 -0.61450650922E+02 -0.52789495337E+02 -0.21467121833E+03  0.24767115070E+03  0.93243517709E+02 0.  0.
          5    1    1    2  502    0  0.47082518312E+02  0.40140199137E+02 -0.49542687757E+02  0.79372220755E+02  0.41800000000E+01 0.  1.
         -5    1    1    2    0  502  0.14368132610E+02  0.12649296199E+02 -0.29968726495E+03  0.30032711683E+03  0.41800000000E+01 0.  1.
        -11    1    3    3    0    0  0.12210689548E+02  0.16746472044E+02 -0.23599976726E+02  0.31408663878E+02  0.00000000000E+00 0.  1.
         11    1    3    3    0    0 -0.73661340471E+02 -0.69535967381E+02 -0.19107124160E+03  0.21626248682E+03  0.00000000000E+00 0. -1.
</event>
<event>
 7    1  0.5831876E-006  0.1124406E+03  0.7561462E-02  0.1256116E+00
          3   -1    0    0  501    0  0.00000000000E+00  0.00000000000E+00  0.10437308178E+03  0.10437308178E+03  0.00000000000E+00 0. -1.
         -3   -1    0    0    0  501 -0.00000000000E+00 -0.00000000000E+00 -0.31119607088E+03  0.31119607088E+03  0.00000000000E+00 0.  1.
         23    2    1    2    0    0 -0.69496806407E+02  0.13564246504E+02 -0.24615574535E+03  0.27023113104E+03  0.86130240525E+02 0.  0.
          5    1    1    2  502    0  0.26587095723E+02  0.39870733771E+02  0.56858759427E+02  0.74477781882E+02  0.41800000000E+01 0. -1.
         -5    1    1    2    0  502  0.42909710684E+02 -0.53434980275E+02 -0.17526003178E+02  0.70860239735E+02  0.41800000000E+01 0.  1.
        -11    1    3    3    0    0 -0.65281110099E+02 -0.24569976659E+02 -0.12498319030E+03  0.14312967877E+03  0.00000000000E+00 0.  1.
         11    1    3    3    0    0 -0.42156963085E+01  0.38134223163E+02 -0.12117255505E+03  0.12710145227E+03  0.00000000000E+00 0. -1.
</event>
<event>
 7    1  0.5831876E-006  0.1130347E+03  0.7561462E-02  0.1255051E+00
         -1   -1    0    0    0  501 -0.00000000000E+00  0.00000000000E+00  0.34658156466E+03  0.34658156466E+03  0.00000000000E+00 0.  1.
          1   -1    0    0  501    0  0.00000000000E+00 -0.00000000000E+00 -0.45777574138E+02  0.45777574138E+02  0.00000000000E+00 0. -1.
         23    2    1    2    0    0  0.24366656667E+02 -0.16337901261E+02  0.11169240223E+03  0.16373227382E+03  0.11607068449E+03 0.  0.
          5    1    1    2  502    0  0.94049157928E+01  0.59129800858E+02  0.46593342720E+02  0.75981562082E+02  0.41800000000E+01 0. -1.
         -5    1    1    2    0  502 -0.33771572460E+02 -0.42791899596E+02  0.14251824557E+03  0.15264530290E+03  0.41800000000E+01 0. -1.
        -11    1    3    3    0    0 -0.34726050316E+02 -0.35102549327E+02  0.80227017634E+02  0.94204362416E+02  0.00000000000E+00 0.  1.
         11    1    3    3    0    0  0.59092706983E+02  0.18764648066E+02  0.31465384598E+02  0.69527911399E+02  0.00000000000E+00 0. -1.
</event>
<event>
 7    1  0.5831876E-006  0.2089673E+03  0.7561462E-02  0.1142386E+00
          1   -1    0    0  501    0  0.00000000000E+00  0.00000000000E+00  0.32274461637E+03  0.32274461637E+03  0.00000000000E+00 0. -1.
         -1   -1    0    0    0  501 -0.00000000000E+00 -0.00000000000E+00 -0.20790114950E+03  0.20790114950E+03  0.00000000000E+00 0.  1.
         23    2    1    2    0    0 -0.60758101178E+02 -0.19196008119E+03 -0.66772017235E+02  0.23202945645E+03  0.94015672863E+02 0.  0.
          5    1    1    2  502    0 -0.73445509829E+01  0.75746325077E+02  0.13679675694E+03  0.15659589172E+03  0.41800000000E+01 0. -1.
         -5    1    1    2    0  502  0.68102652161E+02  0.11621375611E+03  0.44818727156E+02  0.14202041771E+03  0.41800000000E+01 0. -1.
        -11    1    3    3    0    0 -0.59087773828E+02 -0.10905775984E+03  0.23803000769E+01  0.12405896109E+03  0.00000000000E+00 0. -1.
         11    1    3    3    0    0 -0.16703273497E+01 -0.82902321348E+02 -0.69152317312E+02  0.10797049536E+03  0.00000000000E+00 0.  1.
</event>
<event>
 7    1  0.5831876E-006  0.1818766E+03  0.7561462E-02  0.1165999E+00
          1   -1    0    0  501    0  0.00000000000E+00  0.00000000000E+00  0.78592671427E+02  0.78592671427E+02  0.00000000000E+00 0. -1.
         -1   -1    0    0    0  501 -0.00000000000E+00 -0.00000000000E+00 -0.42775107202E+03  0.42775107202E+03  0.00000000000E+00 0.  1.
         23    2    1    2    0    0  0.14373651635E+03  0.35625125936E+02 -0.17618098283E+03  0.24653844057E+03  0.88386244635E+02 0.  0.
          5    1    1    2  502    0 -0.14935101048E+03  0.63995359188E+01 -0.11946975170E+03  0.19140839156E+03  0.41800000000E+01 0.  1.
         -5    1    1    2    0  502  0.56144941337E+01 -0.42024661855E+02 -0.53507666071E+02  0.68396911310E+02  0.41800000000E+01 0.  1.
        -11    1    3    3    0    0  0.44308045511E+02 -0.29057833262E+02 -0.43401837673E+02  0.68492919957E+02  0.00000000000E+00 0.  1.
         11    1    3    3    0    0  0.99428470835E+02  0.64682959198E+02 -0.13277914516E+03  0.17804552062E+03  0.00000000000E+00 0. -1.
</event>
<event>
 7    1  0.5831876E-006  0.1034529E+03  0.7561462E-02  0.1273198E+00
          2   -1    0    0  501    0  0.00000000000E+00  0.00000000000E+00  0.14512682928E+03  0.14512682928E+03  0.00000000000E+00 0. -1.
         -2   -1    0    0    0  501 -0.00000000000E+00 -0.00000000000E+00 -0.91884436362E+02  0.91884436362E+02  0.00000000000E+00 0.  1.
         23    2    1    2    0    0  0.29647677869E+02 -0.27747709172E+02  0.18518699999E+02  0.10099120862E+03  0.90594491011E+02 0.  0.
          5    1    1    2  502    0 -0.10397523703E+02  0.67762092506E+02 -0.13861958796E+02  0.70067367452E+02  0.41800000000E+01 0. -1.
         -5    1    1    2    0  502 -0.19250154166E+02 -0.40014383334E+02  0.48585651718E+02  0.65952689573E+02  0.41800000000E+01 0. -1.
        -11    1    3    3    0    0 -0.13856765222E+02 -0.44801429570E+02 -0.75260403566E+01  0.47495466282E+02  0.00000000000E+00 0.  1.
         11    1    3    3    0    0  0.43504443090E+02  0.17053720398E+02  0.26044740356E+02  0.53495742337E+02  0.00000000000E+00 0. -1.
</event>
<event>
 7    1  0.5831876E-006  0.1050525E+03  0.7561462E-02  0.1270016E+00
         -2   -1    0    0    0  501 -0.00000000000E+00  0.00000000000E+00  0.22251978668E+03  0.22251978668E+03  0.00000000000E+00 0.  1.
          2   -1    0    0  501    0  0.00000000000E+00 -0.00000000000E+00 -0.11572789526E+03  0.11572789526E+03  0.00000000000E+00 0. -1.
         23    2    1    2    0    0 -0.25020209910E+02 -0.48201054452E+02  0.15832969584E+03  0.19244160742E+03  0.94953289198E+02 0.  0.
          5    1    1    2  502    0 -0.41010975935E+01  0.80006645287E+02 -0.61819738205E+02  0.10127701972E+03  0.41800000000E+01 0. -1.
         -5    1    1    2    0  502  0.29121307504E+02 -0.31805590835E+02  0.10281933780E+02  0.44529054800E+02  0.41800000000E+01 0. -1.
        -11    1    3    3    0    0 -0.47979716755E+02 -0.38973600065E+02  0.15574399420E+03  0.16756248521E+03  0.00000000000E+00 0.  1.
         11    1    3    3    0    0  0.22959506845E+02 -0.92274543870E+01  0.25857016397E+01  0.24879122211E+02  0.00000000000E+00 0. -1.
</event>
<event>
 7    1  0.5831876E-006  0.1209294E+03  0.7561462E-02  0.1241572E+00
          2   -1    0    0  501    0  0.00000000000E+00  0.00000000000E+00  0.81550107394E+03  0.81550107394E+03  0.00000000000E+00 0. -1.
         -2   -1    0    0    0  501 -0.00000000000E+00 -0.00000000000E+00 -0.32361890101E+02  0.32361890101E+02  0.00000000000E+00 0.  1.
         23    2    1    2    0    0  0.89268905198E+01 -0.92578161709E+02  0.16022162251E+03  0.20573756973E+03  0.89479460670E+02 0.  0.
          5    1    1    2  502    0 -0.49092465195E+01  0.11368056786E+03  0.59892054555E+03  0.60964798408E+03  0.41800000000E+01 0. -1.
         -5    1    1    2    0  502 -0.40176440002E+01 -0.21102406150E+02  0.23997015786E+02  0.32477410230E+02  0.41800000000E+01 0. -1.
        -11    1    3    3    0    0 -0.21457066177E+02 -0.37146129626E+02  0.11916365079E+02  0.44522358336E+02  0.00000000000E+00 0.  1.
         11    1    3    3    0    0  0.30383956697E+02 -0.55432032083E+02  0.14830525743E+03  0.16121521140E+03  0.00000000000E+00 0. -1.
</event>
<event>
 7    1  0.5831876E-006  0.1297518E+03  0.7561462E-02  0.1227825E+00
         -1   -1    0    0    0  501 -0.00000000000E+00  0.00000000000E+00  0.45004725205E+02  0.45004725205E+02  0.00000000000E+00 0.  1.
          1   -1    0    0  501    0  0.00000000000E+00 -0.00000000000E+00 -0.42375595522E+03  0.42375595522E+03  0.00000000000E+00 0. -1.
         23    2    1    2    0    0 -0.79048668077E+01  0.10895580043E+02 -0.12095460309E+03  0.15184354419E+03  0.90803333193E+02 0.  0.
          5    1    1    2  502    0 -0.10935940841E+02  0.79160363206E+02 -0.17759573324E+03  0.19479136216E+03  0.41800000000E+01 0. -1.
         -5    1    1    2    0  502  0.18840807649E+02 -0.90055943249E+02 -0.80200893685E+02  0.12212577408E+03  0.41800000000E+01 0.  1.
        -11    1    3    3    0    0  0.13433677917E+02 -0.34607615005E+02 -0.29219378360E+02  0.47243230102E+02  0.00000000000E+00 0.  1.
         11    1    3    3    0    0 -0.21338544724E+02  0.45503195048E+02 -0.91735224728E+02  0.10460031408E+03  0.00000000000E+00 0. -1.
</event>
<event>
 7    1  0.5831876E-006  0.1213482E+03  0.7561462E-02  0.1240889E+00
         -2   -1    0    0    0  501 -0.00000000000E+00  0.00000000000E+00  0.43172795968E+02  0.43172795968E+02  0.00000000000E+00 0.  1.
          2   -1    0    0  501    0  0.00000000000E+00 -0.00000000000E+00 -0.43104479379E+03  0.43104479379E+03  0.00000000000E+00 0. -1.
         23    2    1    2    0    0  0.44579463147E+02  0.61929785014E+02 -0.12090433002E+03  0.16968171529E+03  0.91385998281E+02 0.  0.
          5    1    1    2  502    0  0.35984094846E+02 -0.24365605223E+02 -0.34583980684E+02  0.55696157136E+02  0.41800000000E+01 0.  1.
         -5    1    1    2    0  502 -0.80563557992E+02 -0.37564179791E+02 -0.23238368712E+03  0.24883971733E+03  0.41800000000E+01 0.  1.
        -11    1    3    3    0    0 -0.22465980613E+02  0.74784160365E+01 -0.58543211364E+02  0.63150254062E+02  0.00000000000E+00 0. -1.
         11    1    3    3    0    0  0.67045443760E+02  0.54451368978E+02 -0.62361118652E+02  0.10653146123E+03  0.00000000000E+00 0.  1.
</event>
<event>
 6    1  0.5831876E-006  0.1292779E+03  0.7561462E-02  0.1228531E+00
         -2   -1    0    0    0  501 -0.00000000000E+00  0.00000000000E+00  0.31994041682E+02  0.31994041682E+02  0.00000000000E+00 0. -1.
          2   -1    0    0  501    0  0.00000000000E+00 -0.00000000000E+00 -0.11693526283E+04  0.11693526283E+04  0.00000000000E+00 0.  1.
          5    1    1    2  502    0  0.97346372940E+01  0.10412478917E+03 -0.94765410788E+03  0.95341623411E+03  0.41800000000E+01 0.  1.
         -5    1    1    2    0  502 -0.50765127400E+02 -0.99112106023E+02 -0.10673875367E+03  0.15430794424E+03  0.41800000000E+01 0. -1.
        -11    1    1    2    0    0  0.15381167254E+02 -0.66493680492E+01 -0.42504866013E+02  0.45688707975E+02  0.00000000000E+00 0. -1.
         11    1    1    2    0    0  0.25649322852E+02  0.16366849014E+01 -0.40460859041E+02  0.47933783645E+02  0.00000000000E+00 0.  1.
</event>
<event>
 7    1  0.5831876E-006  0.1267274E+03  0.7561462E-02  0.1232394E+00
         -1   -1    0    0    0  501 -0.00000000000E+00  0.00000000000E+00  0.12918839178E+03  0.12918839178E+03  0.00000000000E+00 0.  1.
          1   -1    0    0  501    0  0.00000000000E+00 -0.00000000000E+00 -0.17544481941E+03  0.17544481941E+03  0.00000000000E+00 0. -1.
         23    2    1    2    0    0 -0.89294710206E+02 -0.51579452994E+01  0.30189701731E+02  0.13290072955E+03  0.93546972980E+02 0.  0.
          5    1    1    2  502    0  0.44015827797E+01  0.51138372143E+02 -0.49452983601E+02  0.71397318041E+02  0.41800000000E+01 0.  1.
         -5    1    1    2    0  502  0.84893127426E+02 -0.45980426844E+02 -0.26993145755E+02  0.10033516360E+03  0.41800000000E+01 0.  1.
        -11    1    3    3    0    0 -0.34458899225E+02 -0.29465992218E+02  0.52078609600E+02  0.69049561990E+02  0.00000000000E+00 0.  1.
         11    1    3    3    0    0 -0.54835810981E+02  0.24308046919E+02 -0.21888907869E+02  0.63851167559E+02  0.00000000000E+00 0. -1.
</event>
<event>
 7    1  0.5831876E-006  0.9890151E+02  0.7561462E-02  0.1282623E+00
         -2   -1    0    0    0  501 -0.00000000000E+00  0.00000000000E+00  0.39368089930E+02  0.39368089930E+02  0.00000000000E+00 0.  1.
          2   -1    0    0  501    0  0.00000000000E+00 -0.00000000000E+00 -0.55312597187E+03  0.55312597187E+03  0.00000000000E+00 0. -1.
         23    2    1    2    0    0  0.46818939454E+02  0.29597350471E+02 -0.42274933509E+02  0.10155372105E+03  0.73878088827E+02 0.  0.
          5    1    1    2  502    0 -0.87008526971E+02 -0.30690505805E+02 -0.37749946241E+03  0.38863312704E+03  0.41800000000E+01 0. -1.
         -5    1    1    2    0  502  0.40189587516E+02  0.10931553333E+01 -0.93983486019E+02  0.10230721371E+03  0.41800000000E+01 0. -1.
        -11    1    3    3    0    0  0.92147684420E+01 -0.77388922386E+01  0.17775453494E+02  0.21465534175E+02  0.00000000000E+00 0.  1.
         11    1    3    3    0    0  0.37604171012E+02  0.37336242710E+02 -0.60050387003E+02  0.80088186872E+02  0.00000000000E+00 0. -1.
</event>
<event>
 7    1  0.5831876E-006  0.1220431E+03  0.7561462E-02  0.1239764E+00
         -2   -1    0    0    0  501 -0.00000000000E+00  0.00000000000E+00  0.11016946527E+03  0.11016946527E+03  0.00000000000E+00 0.  1.
          2   -1    0    0  501    0  0.00000000000E+00 -0.00000000000E+00 -0.22847203114E+03  0.22847203114E+03  0.00000000000E+00 0. -1.
         23    2    1    2    0    0  0.12822440733E+02 -0.10161710598E+03  0.78303345730E+01  0.13582787917E+03  0.88867583551E+02 0.  0.
          5    1    1    2  502    0 -0.63007057708E+01  0.11871933785E+03 -0.13674481468E+03  0.18124733602E+03  0.41800000000E+01 0. -1.
         -5    1    1    2    0  502 -0.65217349623E+01 -0.17102231865E+02  0.10611914236E+02  0.21566281215E+02  0.41800000000E+01 0.  1.
        -11    1    3    3    0    0  0.19445358606E+02 -0.41042584267E+02  0.45420153373E+02  0.64230880634E+02  0.00000000000E+00 0.  1.
         11    1    3    3    0    0 -0.66229178731E+01 -0.60574521714E+02 -0.37589818800E+02  0.71596998537E+02  0.00000000000E+00 0. -1.
</event>
<event>
 7    1  0.5831876E-006  0.9214462E+02  0.7561462E-02  0.1297740E+00
          1   -1    0    0  501    0  0.00000000000E+00  0.00000000000E+00  0.68736200134E+03  0.68736200134E+03  0.00000000000E+00 0. -1.
         -1   -1    0    0    0  501 -0.00000000000E+00 -0.00000000000E+00 -0.19793688782E+02  0.19793688782E+02  0.00000000000E+00 0.  1.
         23    2    1    2    0    0  0.40212057702E+02 -0.44669557466E+01  0.24275651377E+03  0.26246804977E+03  0.91223839513E+02 0.  0.
          5    1    1    2  502    0  0.26568827840E+02 -0.95941341848E+01  0.21823028429E+02  0.35939768967E+02  0.41800000000E+01 0.  1.
         -5    1    1    2    0  502 -0.66780885542E+02  0.14061089931E+02  0.40298877036E+03  0.40874787138E+03  0.41800000000E+01 0.  1.
        -11    1    3    3    0    0  0.34703571984E+02  0.33951411365E+02  0.19487950008E+03  0.20083589270E+03  0.00000000000E+00 0. -1.
         11    1    3    3    0    0  0.55084857176E+01 -0.38418367111E+02  0.47877013686E+02  0.61632157076E+02  0.00000000000E+00 0.  1.
</event>
<event>
 7    1  0.5831876E-006  0.1284469E+03  0.7561462E-02  0.1229779E+00
          2   -1    0    0  501    0  0.00000000000E+00  0.00000000000E+00  0.12454381174E+04  0.12454381174E+04  0.00000000000E+00 0. -1.
         -2   -1    0    0    0  501 -0.00000000000E+00 -0.00000000000E+00 -0.25998021327E+02  0.25998021327E+02  0.00000000000E+00 0.  1.
         23    2    1    2    0    0  0.58021662733E+02 -0.59722398315E+02  0.16198157075E+03  0.20335272012E+03  0.90448998386E+02 0.  0.
          5    1    1    2  502    0 -0.27510186114E+02  0.96320765710E+02  0.79558604762E+03  0.80187850191E+03  0.41800000000E+01 0.  1.
         -5    1    1    2    0  502 -0.30511476618E+02 -0.36598367395E+02  0.26187247769E+03  0.26620491670E+03  0.41800000000E+01 0.  1.
        -11    1    3    3    0    0  0.16210727374E+02 -0.64696870393E+02  0.14170999406E+03  0.15662118355E+03  0.00000000000E+00 0.  1.
         11    1    3    3    0    0  0.41810935359E+02  0.49744720781E+01  0.20271576689E+02  0.46731536562E+02  0.00000000000E+00 0. -1.
</event>
<event>
 7    1  0.5831876E-006  0.8034470E+02  0.7561462E-02  0.1328076E+00
         -2   -1    0    0    0  501 -0.00000000000E+00  0.00000000000E+00  0.41525043118E+02  0.41525043118E+02  0.00000000000E+00 0.  1.
          2   -1    0    0  501    0  0.00000000000E+00 -0.00000000000E+00 -0.33550700996E+03  0.33550700996E+03  0.00000000000E+00 0. -1.
         23    2    1    2    0    0  0.36886808483E+02  0.11764723638E+02 -0.88664676240E+02  0.13350980893E+03  0.92002167943E+02 0.  0.
          5    1    1    2  502    0  0.79287075199E+01 -0.14627999565E+02 -0.19689572919E+03  0.19764170448E+03  0.41800000000E+01 0. -1.
         -5    1    1    2    0  502 -0.44815516003E+02  0.28632759270E+01 -0.84215614099E+01  0.45880539668E+02  0.41800000000E+01 0. -1.
        -11    1    3    3    0    0  0.49172191195E+02 -0.28157167438E+02 -0.61810385622E+02  0.83852574414E+02  0.00000000000E+00 0. -1.
         11    1    3    3    0    0 -0.12285382712E+02  0.39921891076E+02 -0.26854290618E+02  0.49657234519E+02  0.00000000000E+00 0.  1.
</event>
<event>
 7    1  0.5831876E-006  0.1286936E+03  0.7561462E-02  0.1229407E+00
         -2   -1    0    0    0  501 -0.00000000000E+00  0.00000000000E+00  0.60684372188E+03  0.60684372188E+03  0.00000000000E+00 0.  1.
          2   -1    0    0  501    0  0.00000000000E+00 -0.00000000000E+00 -0.27387107717E+02  0.27387107717E+02  0.00000000000E+00 0. -1.
         23    2    1    2    0    0  0.23321184200E+02 -0.67087110715E+02  0.26792950752E+03  0.29110819991E+03  0.88956197103E+02 0.  0.
          5    1    1    2  502    0  0.36392825951E+02 -0.16998946495E+02  0.96319143837E+02  0.10444257672E+03  0.41800000000E+01 0.  1.
         -5    1    1    2    0  502 -0.59714010151E+02  0.84086057211E+02  0.21520796281E+03  0.23868005297E+03  0.41800000000E+01 0.  1.
        -11    1    3    3    0    0  0.57040642185E+02 -0.33287356724E+02  0.15141724898E+03  0.16519342077E+03  0.00000000000E+00 0. -1.
         11    1    3    3    0    0 -0.33719457985E+02 -0.33799753991E+02  0.11651225854E+03  0.12591477914E+03  0.00000000000E+00 0.  1.
</event>
<event>
 7    1  0.5831876E-006  0.8856959E+02  0.7561462E-02  0.1306353E+00
         -2   -1    0    0    0  501 -0.00000000000E+00  0.00000000000E+00  0.17573879631E+03  0.17573879631E+03  0.00000000000E+00 0.  1.
          2   -1    0    0  501    0  0.00000000000E+00 -0.00000000000E+00 -0.68160135067E+02  0.68160135067E+02  0.00000000000E+00 0. -1.
         23    2    1    2    0    0  0.38039958696E+01 -0.19427961535E+01  0.59463285068E+02  0.10981357535E+03  0.92221983378E+02 0.  0.
          5    1    1    2  502    0 -0.18348447677E+02  0.42789307942E+02  0.70902914994E+02  0.84925179782E+02  0.41800000000E+01 0. -1.
         -5    1    1    2    0  502  0.14544451808E+02 -0.40846511789E+02 -0.22787538816E+02  0.49160176251E+02  0.41800000000E+01 0. -1.
        -11    1    3    3    0    0  0.10451738446E+02 -0.43505733385E+02  0.11897365865E+02  0.46298325979E+02  0.00000000000E+00 0.  1.
         11    1    3    3    0    0 -0.66477425765E+01  0.41562937232E+02  0.47565919203E+02  0.63515249369E+02  0.00000000000E+00 0. -1.
</event>
<event>
 7    1  0.5831876E-006  0.9579445E+02  0.7561462E-02  0.1289397E+00
          2   -1    0    0  501    0  0.00000000000E+00  0.00000000000E+00  0.74366757907E+03  0.74366757907E+03  0.00000000000E+00 0. -1.
         -2   -1    0    0    0  501 -0.00000000000E+00 -0.00000000000E+00 -0.20096924802E+02  0.20096924802E+02  0.00000000000E+00 0.  1.
         23    2    1    2    0    0 -0.48010638983E+02 -0.30302905455E+01  0.22637934975E+03  0.24883069478E+03  0.91405145128E+02 0.  0.
          5    1    1    2  502    0  0.50495648759E+02 -0.43619163413E+02  0.14545958353E+03  0.16008874039E+03  0.41800000000E+01 0. -1.
         -5    1    1    2    0  502 -0.24850097756E+01  0.46649453959E+02  0.35173172100E+03  0.35484506870E+03  0.41800000000E+01 0. -1.
        -11    1    3    3    0    0  0.13172279211E+02 -0.95931841650E+01  0.23009793127E+01  0.16456993281E+02  0.00000000000E+00 0.  1.
         11    1    3    3    0    0 -0.61182918194E+02  0.65628936194E+01  0.22407837044E+03  0.23237370150E+03  0.00000000000E+00 0. -1.
</event>
<event>
 7    1  0.5831876E-006  0.1181330E+03  0.7561462E-02  0.1246209E+00
         -2   -1    0    0    0  501 -0.00000000000E+00  0.00000000000E+00  0.11700178343E+03  0.11700178343E+03  0.00000000000E+00 0. -1.
          2   -1    0    0  501    0  0.00000000000E+00 -0.00000000000E+00 -0.21972082612E+03  0.21972082612E+03  0.00000000000E+00 0.  1.
         23    2    1    2    0    0  0.10697135710E+03 -0.35164220015E+02 -0.11138432999E+02  0.14511550070E+03  0.90857307063E+02 0.  0.
          5    1    1    2  502    0 -0.30036832637E+02  0.11713526183E+02  0.31010050926E+02  0.44927871849E+02  0.41800000000E+01 0.  1.
         -5    1    1    2    0  502 -0.76934524458E+02  0.23450693833E+02 -0.12259066062E+03  0.14667923700E+03  0.41800000000E+01 0.  1.
        -11    1    3    3    0    0  0.74590806394E+02 -0.47652624194E+02 -0.42637342381E+02  0.98247157498E+02  0.00000000000E+00 0.  1.
         11    1    3    3    0    0  0.32380550701E+02  0.12488404178E+02  0.31498909382E+02  0.46868343206E+02  0.00000000000E+00 0. -1.
</event>
<event>
 7    1  0.5831876E-006  0.1373825E+03  0.7561462E-02  0.1216895E+00
          2   -1    0    0  501    0  0.00000000000E+00  0.00000000000E+00  0.24093989260E+04  0.24093989260E+04  0.00000000000E+00 0. -1.
         -2   -1    0    0    0  501 -0.00000000000E+00 -0.00000000000E+00 -0.10570841480E+02  0.10570841480E+02  0.00000000000E+00 0.  1.
         23    2    1    2    0    0  0.61982184312E+02 -0.15907675047E+02  0.41796294834E+03  0.43206752276E+03  0.88850845506E+02 0.  0.
          5    1    1    2  502    0 -0.10152393577E+03 -0.30294133028E+02  0.12191872004E+04  0.12237890938E+04  0.41800000000E+01 0. -1.
         -5    1    1    2    0  502  0.39541751457E+02  0.46201808075E+02  0.76167793577E+03  0.76411315092E+03  0.41800000000E+01 0.  1.
        -11    1    3    3    0    0 -0.50237522102E+01  0.27491248794E+02  0.77951802283E+02  0.82809965135E+02  0.00000000000E+00 0.  1.
         11    1    3    3    0    0  0.67005936522E+02 -0.43398923841E+02  0.34001114605E+03  0.34925755763E+03  0.00000000000E+00 0. -1.
</event>
<event>
 7    1  0.5831876E-006  0.1087993E+03  0.7561462E-02  0.1262810E+00
          1   -1    0    0  501    0  0.00000000000E+00  0.00000000000E+00  0.30964404323E+02  0.30964404323E+02  0.00000000000E+00 0. -1.
         -1   -1    0    0    0  501 -0.00000000000E+00 -0.00000000000E+00 -0.44534613489E+03  0.44534613489E+03  0.00000000000E+00 0.  1.
         23    2    1    2    0    0  0.11830344573E+02  0.13718651882E+02 -0.26356066342E+03  0.27952802297E+03  0.91342946408E+02 0.  0.
          5    1    1    2  502    0  0.22085081601E+02 -0.62602409499E+02 -0.85539122321E+02  0.10835693956E+03  0.41800000000E+01 0.  1.
         -5    1    1    2    0  502 -0.33915426174E+02  0.48883757617E+02 -0.65281944828E+02  0.88425576684E+02  0.41800000000E+01 0.  1.
        -11    1    3    3    0    0  0.75710322356E+01  0.52188492636E+02 -0.12513214195E+03  0.13579032455E+03  0.00000000000E+00 0. -1.
         11    1    3    3    0    0  0.42593123378E+01 -0.38469840754E+02 -0.13842852147E+03  0.14373769841E+03  0.00000000000E+00 0.  1.
</event>
<event>
 7    1  0.5831876E-006  0.8212413E+02  0.7561462E-02  0.1323129E+00
          2   -1    0    0  501    0  0.00000000000E+00  0.00000000000E+00  0.72760544781E+02  0.72760544781E+02  0.00000000000E+00 0.  1.
         -2   -1    0    0    0  501 -0.00000000000E+00 -0.00000000000E+00 -0.19223628058E+03  0.19223628058E+03  0.00000000000E+00 0. -1.
         23    2    1    2    0    0 -0.94457820929E+01  0.46486583642E+02 -0.64439701805E+02  0.12033413353E+03  0.89875487563E+02 0.  0.
          5    1    1    2  502    0  0.52547665026E+02 -0.20638026104E+02 -0.71877086816E+02  0.91493022851E+02  0.41800000000E+01 0. -1.
         -5    1    1    2    0  502 -0.43101882933E+02 -0.25848557538E+02  0.16841052826E+02  0.53169668981E+02  0.41800000000E+01 0. -1.
        -11    1    3    3    0    0 -0.21334857421E+02  0.32096341903E+02  0.13002163572E+02  0.40674409182E+02  0.00000000000E+00 0.  1.
         11    1    3    3    0    0  0.11889075328E+02  0.14390241739E+02 -0.77441865378E+02  0.79659724344E+02  0.00000000000E+00 0. -1.
</event>
<event>
 7    1  0.5831876E-006  0.9386019E+02  0.7561462E-02  0.1293764E+00
         -2   -1    0    0    0  501 -0.00000000000E+00  0.00000000000E+00  0.18440713141E+02  0.18440713141E+02  0.00000000000E+00 0.  1.
          2   -1    0    0  501    0  0.00000000000E+00 -0.00000000000E+00 -0.97078332078E+03  0.97078332078E+03  0.00000000000E+00 0. -1.
         23    2    1    2    0    0 -0.35331128783E+02  0.16847591747E+02 -0.17898482690E+03  0.20483658684E+03  0.91598739284E+02 0.  0.
          5    1    1    2  502    0  0.35232953515E+02  0.32649964993E+02 -0.64427514365E+03  0.64607686412E+03  0.41800000000E+01 0. -1.
         -5    1    1    2    0  502  0.98175268162E-01 -0.49497556740E+02 -0.12908263709E+03  0.13831058296E+03  0.41800000000E+01 0. -1.
        -11    1    3    3    0    0 -0.24273163495E+02 -0.31763805353E+02 -0.37448351067E+02  0.54776863676E+02  0.00000000000E+00 0.  1.
         11    1    3    3    0    0 -0.11057965288E+02  0.48611397100E+02 -0.14153647583E+03  0.15005972316E+03  0.00000000000E+00 0. -1.
</event>
<event>
 7    1  0.5831876E-006  0.7044455E+02  0.7561462E-02  0.1358588E+00
         -4   -1    0    0    0  501 -0.00000000000E+00  0.00000000000E+00  0.48386525072E+02  0.48386525072E+02  0.00000000000E+00 0.  1.
          4   -1    0    0  501    0  0.00000000000E+00 -0.00000000000E+00 -0.26630906028E+03  0.26630906028E+03  0.00000000000E+00 0. -1.
         23    2    1    2    0    0 -0.94230367602E-01  0.37403288518E+02 -0.71807950305E+02  0.11874728364E+03  0.86864957102E+02 0.  0.
          5    1    1    2  502    0  0.20901586492E+02  0.42552349121E+01 -0.14758016326E+03  0.14917225054E+03  0.41800000000E+01 0. -1.
         -5    1    1    2    0  502 -0.20807356124E+02 -0.41658523430E+02  0.14655783657E+01  0.46776051172E+02  0.41800000000E+01 0. -1.
        -11    1    3    3    0    0 -0.19891954861E+02  0.46527116759E+02 -0.80661159005E+02  0.95219142162E+02  0.00000000000E+00 0. -1.
         11    1    3    3    0    0  0.19797724493E+02 -0.91238282410E+01  0.88532087000E+01  0.23528141473E+02  0.00000000000E+00 0.  1.
</event>
<event>
 7    1  0.5831876E-006  0.1290886E+03  0.7561462E-02  0.1228814E+00
          1   -1    0    0  501    0  0.00000000000E+00  0.00000000000E+00  0.32649897621E+03  0.32649897621E+03  0.00000000000E+00 0.  1.
         -1   -1    0    0    0  501 -0.00000000000E+00 -0.00000000000E+00 -0.11486477330E+03  0.11486477330E+03  0.00000000000E+00 0. -1.
         23    2    1    2    0    0 -0.15969608102E+02  0.12137163307E+03 -0.17009380123E+02  0.15342008205E+03  0.90897199433E+02 0.  0.
          5    1    1    2  502    0 -0.11504407746E+02 -0.20915467056E+02 -0.11000939012E+02  0.26613929039E+02  0.41800000000E+01 0.  1.
         -5    1    1    2    0  502  0.27474015848E+02 -0.10045616602E+03  0.23964452205E+03  0.26132973843E+03  0.41800000000E+01 0.  1.
        -11    1    3    3    0    0 -0.26573084888E+02  0.42434879640E+02 -0.46654563848E+02  0.68436073663E+02  0.00000000000E+00 0. -1.
         11    1    3    3    0    0  0.10603476787E+02  0.78936753434E+02  0.29645183725E+02  0.84984008382E+02  0.00000000000E+00 0.  1.
</event>
<event>
 7    1  0.5831876E-006  0.1098237E+03  0.7561462E-02  0.1260897E+00
         -1   -1    0    0    0  501 -0.00000000000E+00  0.00000000000E+00  0.72286931396E+02  0.72286931396E+02  0.00000000000E+00 0.  1.
          1   -1    0    0  501    0  0.00000000000E+00 -0.00000000000E+00 -0.19154675970E+03  0.19154675970E+03  0.00000000000E+00 0. -1.
         23    2    1    2    0    0  0.31566937835E+02  0.13916447237E+02 -0.27816035401E+02  0.10509125045E+03  0.95290608283E+02 0.  0.
          5    1    1    2  502    0 -0.60084047926E+00  0.51495226608E+02 -0.61464485634E+02  0.80296169068E+02  0.41800000000E+01 0. -1.
         -5    1    1    2    0  502 -0.30966097356E+02 -0.65411673845E+02 -0.29979307268E+02  0.78446271581E+02  0.41800000000E+01 0. -1.
        -11    1    3    3    0    0  0.10777038524E+01  0.48997183671E+02  0.33618244679E+01  0.49124202966E+02  0.00000000000E+00 0.  1.
         11    1    3    3    0    0  0.30489233983E+02 -0.35080736434E+02 -0.31177859869E+02  0.55967047480E+02  0.00000000000E+00 0. -1.
</event>
<event>
 7    1  0.5831876E-006  0.1289812E+03  0.7561462E-02  0.1228975E+00
          2   -1    0    0  501    0  0.00000000000E+00  0.00000000000E+00  0.49433332429E+03  0.49433332429E+03  0.00000000000E+00 0.  1.
         -2   -1    0    0    0  501 -0.00000000000E+00 -0.00000000000E+00 -0.36677222879E+02  0.36677222879E+02  0.00000000000E+00 0. -1.
         23    2    1    2    0    0 -0.22394816689E+02  0.74834528152E+02  0.24549533793E+03  0.27262769477E+03  0.89197335115E+02 0.  0.
          5    1    1    2  502    0  0.39765569246E+02 -0.10501215688E+03  0.16423446500E+03  0.19899569213E+03  0.41800000000E+01 0. -1.
         -5    1    1    2    0  502 -0.17370752557E+02  0.30177628723E+02  0.47926298472E+02  0.59387160271E+02  0.41800000000E+01 0. -1.
        -11    1    3    3    0    0 -0.51865094927E+02  0.47398646030E+02  0.19943405517E+03  0.21144872210E+03  0.00000000000E+00 0.  1.
         11    1    3    3    0    0  0.29470278238E+02  0.27435882122E+02  0.46061282767E+02  0.61178972673E+02  0.00000000000E+00 0. -1.
</event>
<event>
 7    1  0.5831876E-006  0.1673268E+03  0.7561462E-02  0.1180665E+00
         -1   -1    0    0    0  501 -0.00000000000E+00  0.00000000000E+00  0.39110554858E+02  0.39110554858E+02  0.00000000000E+00 0.  1.
          1   -1    0    0  501    0  0.00000000000E+00 -0.00000000000E+00 -0.90024740729E+03  0.90024740729E+03  0.00000000000E+00 0. -1.
         23    2    1    2    0    0  0.11729237987E+03 -0.95399415751E+02 -0.34541130152E+03  0.38756550944E+03  0.89663292320E+02 0.  0.
          5    1    1    2  502    0 -0.45199178247E+02  0.71014393719E+02 -0.10795221342E+03  0.13695679104E+03  0.41800000000E+01 0. -1.
         -5    1    1    2    0  502 -0.72093201628E+02  0.24385022032E+02 -0.40777333749E+03  0.41483566166E+03  0.41800000000E+01 0. -1.
        -11    1    3    3    0    0  0.21095574544E+02 -0.72169231009E+02 -0.17562977688E+03  0.19104774193E+03  0.00000000000E+00 0. -1.
         11    1    3    3    0    0  0.96196805331E+02 -0.23230184742E+02 -0.16978152464E+03  0.19651776751E+03  0.00000000000E+00 0.  1.
</event>
<event>
 7    1  0.5831876E-006  0.2054416E+03  0.7561462E-02  0.1145227E+00
          1   -1    0    0  501    0  0.00000000000E+00  0.00000000000E+00  0.81363064272E+03  0.81363064272E+03  0.00000000000E+00 0. -1.
         -1   -1    0    0    0  501 -0.00000000000E+00 -0.00000000000E+00 -0.98085682857E+02  0.98085682857E+02  0.00000000000E+00 0.  1.
         23    2    1    2    0    0 -0.18622961093E+03 -0.22627608826E+02  0.58496820417E+02  0.21705545191E+03  0.92183049074E+02 0.  0.
          5    1    1    2  502    0  0.97660913778E+02  0.66656185150E+02  0.26334160796E+03  0.28869876339E+03  0.41800000000E+01 0. -1.
         -5    1    1    2    0  502  0.88568697151E+02 -0.44028576324E+02  0.39370653149E+03  0.40596211028E+03  0.41800000000E+01 0. -1.
        -11    1    3    3    0    0 -0.14125892590E+03  0.39888458590E+01  0.77837673484E+02  0.16133412054E+03  0.00000000000E+00 0. -1.
         11    1    3    3    0    0 -0.44970685033E+02 -0.26616454685E+02 -0.19340853067E+02  0.55721331371E+02  0.00000000000E+00 0.  1.
</event>
<event>
 7    1  0.5831876E-006  0.1767838E+03  0.7561462E-02  0.1170953E+00
         -2   -1    0    0    0  501 -0.00000000000E+00  0.00000000000E+00  0.49783962590E+03  0.49783962590E+03  0.00000000000E+00 0.  1.
          2   -1    0    0  501    0  0.00000000000E+00 -0.00000000000E+00 -0.78847918095E+02  0.78847918095E+02  0.00000000000E+00 0. -1.
         23    2    1    2    0    0  0.58781433601E+02 -0.13829212745E+03  0.29974107330E+03  0.34766991448E+03  0.91922189701E+02 0.  0.
          5    1    1    2  502    0  0.37118103181E+02  0.56207420394E+02  0.56352272469E+02  0.87920866144E+02  0.41800000000E+01 0.  1.
         -5    1    1    2    0  502 -0.95899536782E+02  0.82084707055E+02  0.62898362033E+02  0.14109676337E+03  0.41800000000E+01 0.  1.
        -11    1    3    3    0    0  0.36801042839E+02 -0.25276062200E+02  0.16254684143E+03  0.16856652020E+03  0.00000000000E+00 0.  1.
         11    1    3    3    0    0  0.21980390762E+02 -0.11301606525E+03  0.13719423187E+03  0.17910339428E+03  0.00000000000E+00 0. -1.
</event>
<event>
 7    1  0.5831876E-006  0.1379188E+03  0.7561462E-02  0.1216157E+00
          4   -1    0    0  501    0  0.00000000000E+00  0.00000000000E+00  0.82986368274E+02  0.82986368274E+02  0.00000000000E+00 0. -1.
         -4   -1    0    0    0  501 -0.00000000000E+00 -0.00000000000E+00 -0.25904723616E+03  0.25904723616E+03  0.00000000000E+00 0.  1.
         23    2    1    2    0    0  0.67020730059E+02 -0.72016455514E+02 -0.91694029647E+02  0.16191390192E+03  0.90167446668E+02 0.  0.
          5    1    1    2  502    0  0.11149328495E+02  0.62437605592E+02 -0.78540983049E+02  0.10103920297E+03  0.41800000000E+01 0.  1.
         -5    1    1    2    0  502 -0.78170058554E+02  0.95788499220E+01 -0.58258551882E+01  0.79080499549E+02  0.41800000000E+01 0.  1.
        -11    1    3    3    0    0  0.85642663727E+02 -0.75843464937E+02 -0.77244716037E+02  0.13803493463E+03  0.00000000000E+00 0.  1.
         11    1    3    3    0    0 -0.18621933668E+02  0.38270094233E+01 -0.14449313610E+02  0.23878967282E+02  0.00000000000E+00 0. -1.
</event>
<event>
 7    1  0.5831876E-006  0.1114649E+03  0.7561462E-02  0.1257881E+00
          1   -1    0    0  501    0  0.00000000000E+00  0.00000000000E+00  0.35654523178E+03  0.35654523178E+03  0.00000000000E+00 0. -1.
         -1   -1    0    0    0  501 -0.00000000000E+00 -0.00000000000E+00 -0.52237875066E+02  0.52237875066E+02  0.00000000000E+00 0.  1.
         23    2    1    2    0    0  0.17006673366E+01 -0.32144169820E+02  0.19462161017E+02  0.96018252318E+02  0.88343585755E+02 0.  0.
          5    1    1    2  502    0  0.13255620559E+02 -0.46673130858E+02  0.11462204429E+03  0.12453825941E+03  0.41800000000E+01 0. -1.
         -5    1    1    2    0  502 -0.14956287895E+02  0.78817300677E+02  0.17022315141E+03  0.18822659512E+03  0.41800000000E+01 0. -1.
        -11    1    3    3    0    0  0.32992641040E+02 -0.48447078784E+02  0.14555975959E+02  0.60394620966E+02  0.00000000000E+00 0. -1.
         11    1    3    3    0    0 -0.31291973703E+02  0.16302908964E+02  0.49061850584E+01  0.35623631353E+02  0.00000000000E+00 0.  1.
</event>
<event>
 7    1  0.5831876E-006  0.1205198E+03  0.7561462E-02  0.1242242E+00
         -1   -1    0    0    0  501 -0.00000000000E+00  0.00000000000E+00  0.14631518235E+03  0.14631518235E+03  0.00000000000E+00 0.  1.
          1   -1    0    0  501    0  0.00000000000E+00 -0.00000000000E+00 -0.20708924818E+04  0.20708924818E+04  0.00000000000E+00 0. -1.
         23    2    1    2    0    0  0.11196520294E+03  0.11190598295E+01  0.10605978773E+03  0.17964223905E+03  0.92115126401E+02 0.  0.
          5    1    1    2  502    0 -0.70165076523E+02  0.43745247170E+01 -0.38532257589E+03  0.39170554543E+03  0.41800000000E+01 0.  1.
         -5    1    1    2    0  502 -0.41800126415E+02 -0.54935845465E+01 -0.16453145113E+04  0.16458598796E+04  0.41800000000E+01 0.  1.
        -11    1    3    3    0    0  0.10835268475E+03  0.18999777883E+02  0.50273708616E+02  0.12094933497E+03  0.00000000000E+00 0. -1.
         11    1    3    3    0    0  0.36125181897E+01 -0.17880718053E+02  0.55786079115E+02  0.58692904076E+02  0.00000000000E+00 0.  1.
</event>
<event>
 7    1  0.5831876E-006  0.1302210E+03  0.7561462E-02  0.1227128E+00
          1   -1    0    0  501    0  0.00000000000E+00  0.00000000000E+00  0.79222489003E+03  0.79222489003E+03  0.00000000000E+00 0. -1.
         -1   -1    0    0    0  501 -0.00000000000E+00 -0.00000000000E+00 -0.25611959485E+02  0.25611959485E+02  0.00000000000E+00 0.  1.
         23    2    1    2    0    0  0.70573896918E+02 -0.44259097705E+02  0.23441337386E+03  0.26482358752E+03  0.90787444092E+02 0.  0.
          5    1    1    2  502    0 -0.10099976378E+03  0.58040761164E+02  0.41958249557E+03  0.43547287542E+03  0.41800000000E+01 0. -1.
         -5    1    1    2    0  502  0.30425866865E+02 -0.13781663459E+02  0.11261706112E+03  0.11754038658E+03  0.41800000000E+01 0. -1.
        -11    1    3    3    0    0  0.63635305344E+02  0.17766895678E+01  0.73136913866E+02  0.96961935221E+02  0.00000000000E+00 0.  1.
         11    1    3    3    0    0  0.69385915739E+01 -0.46035787273E+02  0.16127646000E+03  0.16786165230E+03  0.00000000000E+00 0. -1.
</event>
<event>
 7    1  0.5831876E-006  0.8849805E+02  0.7561462E-02  0.1306530E+00
          1   -1    0    0  501    0  0.00000000000E+00  0.00000000000E+00  0.57712671419E+02  0.57712671419E+02  0.00000000000E+00 0. -1.
         -1   -1    0    0    0  501 -0.00000000000E+00 -0.00000000000E+00 -0.30124208556E+03  0.30124208556E+03  0.00000000000E+00 0.  1.
         23    2    1    2    0    0 -0.95190569288E+01 -0.42138528181E+02 -0.19095878886E+03  0.21655696394E+03  0.92549400780E+02 0.  0.
          5    1    1    2  502    0  0.22939258860E+02 -0.92261636374E+01  0.33099228213E+02  0.41525450037E+02  0.41800000000E+01 0. -1.
         -5    1    1    2    0  502 -0.13420201931E+02  0.51364691819E+02 -0.85669853493E+02  0.10087234300E+03  0.41800000000E+01 0. -1.
        -11    1    3    3    0    0  0.33777273787E+02  0.55785558761E+01 -0.41481021601E+02  0.53783823434E+02  0.00000000000E+00 0. -1.
         11    1    3    3    0    0 -0.43296330716E+02 -0.47717084058E+02 -0.14947776726E+03  0.16277314050E+03  0.00000000000E+00 0.  1.
</event>
<event>
 7    1  0.5831876E-006  0.1082153E+03  0.7561462E-02  0.1263911E+00
          2   -1    0    0  501    0  0.00000000000E+00  0.00000000000E+00  0.44590648704E+03  0.44590648704E+03  0.00000000000E+00 0. -1.
         -2   -1    0    0    0  501 -0.00000000000E+00 -0.00000000000E+00 -0.38600591399E+02  0.38600591399E+02  0.00000000000E+00 0.  1.
         23    2    1    2    0    0 -0.28008294594E+02  0.67358207334E+02  0.14892891572E+03  0.18831778809E+03  0.89231018775E+02 0.  0.
          5    1    1    2  502    0  0.63367457227E+02 -0.28123310132E+02  0.63048424485E+02  0.93802619570E+02  0.41800000000E+01 0.  1.
         -5    1    1    2    0  502 -0.35359162633E+02 -0.39234897202E+02  0.19532855543E+03  0.20238667078E+03  0.41800000000E+01 0.  1.
        -11    1    3    3    0    0  0.17722765128E+02  0.30431774672E+02  0.11538926368E+03  0.12064357209E+03  0.00000000000E+00 0. -1.
         11    1    3    3    0    0 -0.45731059722E+02  0.36926432662E+02  0.33539652042E+02  0.67674216003E+02  0.00000000000E+00 0.  1.
</event>
<event>
 7    1  0.5831876E-006  0.1285615E+03  0.7561462E-02  0.1229606E+00
          2   -1    0    0  501    0  0.00000000000E+00  0.00000000000E+00  0.24086622043E+03  0.24086622043E+03  0.00000000000E+00 0. -1.
         -2   -1    0    0    0  501 -0.00000000000E+00 -0.00000000000E+00 -0.93764065574E+02  0.93764065574E+02  0.00000000000E+00 0.  1.
         23    2    1    2    0    0  0.96215019592E+02 -0.15481989543E+02  0.29454160262E+02  0.13718329001E+03  0.91949363808E+02 0.  0.
          5    1    1    2  502    0  0.29766639779E+02 -0.36083307713E+01  0.30800796924E+02  0.43188359379E+02  0.41800000000E+01 0. -1.
         -5    1    1    2    0  502 -0.12598165937E+03  0.19090320314E+02  0.86847197665E+02  0.15425863661E+03  0.41800000000E+01 0. -1.
        -11    1    3    3    0    0  0.68001777158E+02 -0.18518009848E+01 -0.26538143150E+02  0.73020160951E+02  0.00000000000E+00 0.  1.
         11    1    3    3    0    0  0.28213242435E+02 -0.13630188558E+02  0.55992303412E+02  0.64163129055E+02  0.00000000000E+00 0. -1.
</event>
<event>
 7    1  0.5831876E-006  0.8707939E+02  0.7561462E-02  0.1310083E+00
         -2   -1    0    0    0  501 -0.00000000000E+00  0.00000000000E+00  0.10260443129E+04  0.10260443129E+04  0.00000000000E+00 0.  1.
          2   -1    0    0  501    0  0.00000000000E+00 -0.00000000000E+00 -0.13548070873E+02  0.13548070873E+02  0.00000000000E+00 0. -1.
         23    2    1    2    0    0 -0.29786485327E+02  0.28021509690E+02  0.43177372503E+03  0.44414251642E+03  0.95716171841E+02 0.  0.
          5    1    1    2  502    0  0.82947477239E+00 -0.38880810493E+02  0.48470588674E+02  0.62283832729E+02  0.41800000000E+01 0.  1.
         -5    1    1    2    0  502  0.28957010555E+02  0.10859300803E+02  0.53225192828E+03  0.53316603458E+03  0.41800000000E+01 0.  1.
        -11    1    3    3    0    0 -0.56593252486E+02 -0.98446925642E+01  0.25401153893E+03  0.26042575930E+03  0.00000000000E+00 0. -1.
         11    1    3    3    0    0  0.26806767159E+02  0.37866202254E+02  0.17776218610E+03  0.18371675712E+03  0.00000000000E+00 0.  1.
</event>
<event>
 7    1  0.5831876E-006  0.1321592E+03  0.7561462E-02  0.1224287E+00
          2   -1    0    0  501    0  0.00000000000E+00  0.00000000000E+00  0.27742796554E+03  0.27742796554E+03  0.00000000000E+00 0. -1.
         -2   -1    0    0    0  501 -0.00000000000E+00 -0.00000000000E+00 -0.65989648112E+02  0.65989648112E+02  0.00000000000E+00 0.  1.
         23    2    1    2    0    0  0.16287986603E+02  0.19001934857E+02  0.86282886372E+02  0.14063668987E+03  0.10820152503E+03 0.  0.
          5    1    1    2  502    0  0.66532073078E+02 -0.31242677342E+02  0.42248062904E+02  0.84882229323E+02  0.41800000000E+01 0. -1.
         -5    1    1    2    0  502 -0.82820059682E+02  0.12240742485E+02  0.82907368148E+02  0.11789869446E+03  0.41800000000E+01 0.  1.
        -11    1    3    3    0    0 -0.40873031882E+02 -0.10985520769E+02  0.16097627638E+02  0.45281563769E+02  0.00000000000E+00 0.  1.
         11    1    3    3    0    0  0.57161018485E+02  0.29987455626E+02  0.70185258734E+02  0.95355126096E+02  0.00000000000E+00 0. -1.
</event>
<event>
 7    1  0.5831876E-006  0.1173745E+03  0.7561462E-02  0.1247492E+00
          4   -1    0    0  501    0  0.00000000000E+00  0.00000000000E+00  0.62676049410E+02  0.62676049410E+02  0.00000000000E+00 0. -1.
         -4   -1    0    0    0  501 -0.00000000000E+00 -0.00000000000E+00 -0.36927862066E+03  0.36927862066E+03  0.00000000000E+00 0.  1.
         23    2    1    2    0    0 -0.83197936896E+02 -0.65365267056E+02 -0.14173859902E+03  0.19952783068E+03  0.92341810263E+02 0.  0.
          5    1    1    2  502    0  0.17349025378E+02  0.44749402062E+02 -0.15534921808E+03  0.16264793151E+03  0.41800000000E+01 0.  1.
         -5    1    1    2    0  502  0.65848911519E+02  0.20615864994E+02 -0.95147541411E+01  0.69778907873E+02  0.41800000000E+01 0.  1.
        -11    1    3    3    0    0 -0.32288771183E+02  0.27522051519E+01 -0.99365415569E+02  0.10451614798E+03  0.00000000000E+00 0.  1.
         11    1    3    3    0    0 -0.50909165713E+02 -0.68117472207E+02 -0.42373183455E+02  0.95011682701E+02  0.00000000000E+00 0. -1.
</event>
<event>
 7    1  0.5831876E-006  0.6174221E+02  0.7561462E-02  0.1390663E+00
          1   -1    0    0  501    0  0.00000000000E+00  0.00000000000E+00  0.10424990775E+03  0.10424990775E+03  0.00000000000E+00 0. -1.
         -1   -1    0    0    0  501 -0.00000000000E+00 -0.00000000000E+00 -0.15050410203E+03  0.15050410203E+03  0.00000000000E+00 0.  1.
         23    2    1    2    0    0  0.11059202075E+02  0.40671712649E+02 -0.63168465125E+02  0.12167347642E+03  0.95066743485E+02 0.  0.
          5    1    1    2  502    0  0.14457282286E+01 -0.18346041382E+01  0.67661888053E+02  0.67831109362E+02  0.41800000000E+01 0.  1.
         -5    1    1    2    0  502 -0.12504930304E+02 -0.38837108511E+02 -0.50747617211E+02  0.65249423998E+02  0.41800000000E+01 0.  1.
        -11    1    3    3    0    0 -0.26513239047E+02  0.26611099758E+02 -0.71438404431E+02  0.80712750559E+02  0.00000000000E+00 0.  1.
         11    1    3    3    0    0  0.37572441123E+02  0.14060612891E+02  0.82699393054E+01  0.40960725859E+02  0.00000000000E+00 0. -1.
</event>
<event>
 7    1  0.5831876E-006  0.1755249E+03  0.7561462E-02  0.1172206E+00
          2   -1    0    0  501    0  0.00000000000E+00  0.00000000000E+00  0.45916630583E+03  0.45916630583E+03  0.00000000000E+00 0.  1.
         -2   -1    0    0    0  501 -0.00000000000E+00 -0.00000000000E+00 -0.80758942961E+02  0.80758942961E+02  0.00000000000E+00 0. -1.
         23    2    1    2    0    0 -0.12977490700E+03 -0.79409853386E+02  0.11930475945E+03  0.21445787393E+03  0.92796027723E+02 0.  0.
          5    1    1    2  502    0  0.11918369422E+03  0.99399220059E+02  0.25957323652E+03  0.30245775810E+03  0.41800000000E+01 0. -1.
         -5    1    1    2    0  502  0.10591212782E+02 -0.19989366674E+02 -0.47063310059E+00  0.23009616766E+02  0.41800000000E+01 0. -1.
        -11    1    3    3    0    0 -0.19269297148E+02 -0.56827940936E+02  0.67573776019E+02  0.90371100962E+02  0.00000000000E+00 0. -1.
         11    1    3    3    0    0 -0.11050560985E+03 -0.22581912449E+02  0.51730983429E+02  0.12408677296E+03  0.00000000000E+00 0.  1.
</event>
<event>
 7    1  0.5831876E-006  0.1331004E+03  0.7561462E-02  0.1222926E+00
         -1   -1    0    0    0  501 -0.00000000000E+00  0.00000000000E+00  0.49852942022E+03  0.49852942022E+03  0.00000000000E+00 0.  1.
          1   -1    0    0  501    0  0.00000000000E+00 -0.00000000000E+00 -0.55301382734E+02  0.55301382734E+02  0.00000000000E+00 0. -1.
         23    2    1    2    0    0  0.75708875004E+02 -0.79548193151E+02  0.30685342439E+03  0.33864570283E+03  0.91989886376E+02 0.  0.
          5    1    1    2  502    0 -0.10754216686E+02 -0.28215037699E+02  0.12608059449E+01  0.30509073413E+02  0.41800000000E+01 0.  1.
         -5    1    1    2    0  502 -0.64954658318E+02  0.10776323085E+03  0.13511380716E+03  0.18467602672E+03  0.41800000000E+01 0.  1.
        -11    1    3    3    0    0  0.46614680073E+02 -0.49793816523E+02  0.68430479157E+02  0.96618233475E+02  0.00000000000E+00 0. -1.
         11    1    3    3    0    0  0.29094194931E+02 -0.29754376628E+02  0.23842294523E+03  0.24202746935E+03  0.00000000000E+00 0.  1.
</event>
<event>
 7    1  0.5831876E-006  0.1094842E+03  0.7561462E-02  0.1261528E+00
         -1   -1    0    0    0  501 -0.00000000000E+00  0.00000000000E+00  0.37777874626E+02  0.37777874626E+02  0.00000000000E+00 0.  1.
          1   -1    0    0  501    0  0.00000000000E+00 -0.00000000000E+00 -0.36899877954E+03  0.36899877954E+03  0.00000000000E+00 0. -1.
         23    2    1    2    0    0 -0.32160334805E+02 -0.28567120004E+02 -0.12002270373E+03  0.15757280665E+03  0.92592507817E+02 0.  0.
          5    1    1    2  502    0 -0.39222940423E+02  0.25691405562E+02 -0.14222382351E+03  0.14981180110E+03  0.41800000000E+01 0.  1.
         -5    1    1    2    0  502  0.71383275228E+02  0.28757144424E+01 -0.68974377673E+02  0.99392046418E+02  0.41800000000E+01 0.  1.
        -11    1    3    3    0    0 -0.63269640508E+02 -0.98681134002E+01 -0.90073452655E+02  0.11051540139E+03  0.00000000000E+00 0. -1.
         11    1    3    3    0    0  0.31109305703E+02 -0.18699006604E+02 -0.29949251079E+02  0.47057405257E+02  0.00000000000E+00 0.  1.
</event>
<event>
 7    1  0.5831876E-006  0.6228793E+02  0.7561462E-02  0.1388474E+00
         -2   -1    0    0    0  501 -0.00000000000E+00  0.00000000000E+00  0.15126836968E+02  0.15126836968E+02  0.00000000000E+00 0.  1.
          2   -1    0    0  501    0  0.00000000000E+00 -0.00000000000E+00 -0.85045449628E+03  0.85045449628E+03  0.00000000000E+00 0. -1.
         23    2    1    2    0    0  0.17670300437E+02 -0.12764248556E+01 -0.18508008107E+03  0.20554539095E+03  0.87637905926E+02 0.  0.
          5    1    1    2  502    0 -0.17556986660E+02  0.15759896228E+02 -0.64275530879E+03  0.64320174245E+03  0.41800000000E+01 0. -1.
         -5    1    1    2    0  502 -0.11331377784E+00 -0.14483471373E+02 -0.74922694539E+01  0.16834199850E+02  0.41800000000E+01 0.  1.
        -11    1    3    3    0    0  0.30156367577E+02  0.35571825827E+02 -0.12998993989E+03  0.13810193978E+03  0.00000000000E+00 0.  1.
         11    1    3    3    0    0 -0.12486067139E+02 -0.36848250682E+02 -0.55090141176E+02  0.67443451171E+02  0.00000000000E+00 0. -1.
</event>
<event>
 7    1  0.5831876E-006  0.1151514E+03  0.7561462E-02  0.1251317E+00
         -2   -1    0    0    0  501 -0.00000000000E+00  0.00000000000E+00  0.18660924445E+02  0.18660924445E+02  0.00000000000E+00 0.  1.
          2   -1    0    0  501    0  0.00000000000E+00 -0.00000000000E+00 -0.11993357922E+04  0.11993357922E+04  0.00000000000E+00 0. -1.
         23    2    1    2    0    0  0.31734383525E+02 -0.68698737432E+02 -0.25554124814E+03  0.28138266349E+03  0.90267858010E+02 0.  0.
          5    1    1    2  502    0 -0.65072737923E+02  0.83343890056E+02 -0.58331780075E+03  0.59283875911E+03  0.41800000000E+01 0.  1.
         -5    1    1    2    0  502  0.33338354398E+02 -0.14645152624E+02 -0.34181581892E+03  0.34377529410E+03  0.41800000000E+01 0.  1.
        -11    1    3    3    0    0  0.38236110521E+02 -0.30033688409E+02 -0.22883521768E+03  0.23394353900E+03  0.00000000000E+00 0. -1.
         11    1    3    3    0    0 -0.65017269960E+01 -0.38665049023E+02 -0.26706030459E+02  0.47439124494E+02  0.00000000000E+00 0.  1.
</event>
<event>
 7    1  0.5831876E-006  0.1063764E+03  0.7561462E-02  0.1267431E+00
          2   -1    0    0  501    0  0.00000000000E+00  0.00000000000E+00  0.85800727555E+02  0.85800727555E+02  0.00000000000E+00 0. -1.
         -2   -1    0    0    0  501 -0.00000000000E+00 -0.00000000000E+00 -0.28720004421E+03  0.28720004421E+03  0.00000000000E+00 0.  1.
         23    2    1    2    0    0  0.80591803811E+02 -0.57234275717E+02 -0.15934734805E+03  0.20811468981E+03  0.90273726110E+02 0.  0.
          5    1    1    2  502    0 -0.45513403543E+02  0.26415038335E+02 -0.85816120188E+02  0.10075268253E+03  0.41800000000E+01 0. -1.
         -5    1    1    2    0  502 -0.35078400267E+02  0.30819237382E+02  0.43764151584E+02  0.64133399426E+02  0.41800000000E+01 0. -1.
        -11    1    3    3    0    0  0.77242358652E+02 -0.25750494716E+02 -0.52993890429E+02  0.97148455320E+02  0.00000000000E+00 0. -1.
         11    1    3    3    0    0  0.33494451589E+01 -0.31483781001E+02 -0.10635345762E+03  0.11096623449E+03  0.00000000000E+00 0.  1.
</event>
<event>
 7    1  0.5831876E-006  0.1837255E+03  0.7561462E-02  0.1164245E+00
          1   -1    0    0  501    0  0.00000000000E+00  0.00000000000E+00  0.24841849938E+04  0.24841849938E+04  0.00000000000E+00 0. -1.
         -1   -1    0    0    0  501 -0.00000000000E+00 -0.00000000000E+00 -0.19433279724E+02  0.19433279724E+02  0.00000000000E+00 0.  1.
         23    2    1    2    0    0 -0.79544470843E+02 -0.12622733733E+03  0.51066512968E+03  0.53985620892E+03  0.91679813018E+02 0.  0.
          5    1    1    2  502    0  0.57227978306E+02 -0.73641731712E+01  0.69544816601E+03  0.69785019635E+03  0.41800000000E+01 0. -1.
         -5    1    1    2    0  502  0.22316492537E+02  0.13359151050E+03  0.12586384184E+04  0.12659118683E+04  0.41800000000E+01 0. -1.
        -11    1    3    3    0    0 -0.83992670692E+02 -0.50025993291E+02  0.25747071641E+03  0.27540613382E+03  0.00000000000E+00 0.  1.
         11    1    3    3    0    0  0.44481998488E+01 -0.76201344041E+02  0.25319441326E+03  0.26445007511E+03  0.00000000000E+00 0. -1.
</event>
<event>
 7    1  0.5831876E-006  0.8766262E+02  0.7561462E-02  0.1308613E+00
         -1   -1    0    0    0  501 -0.00000000000E+00  0.00000000000E+00  0.82925863042E+02  0.82925863042E+02  0.00000000000E+00 0.  1.
          1   -1    0    0  501    0  0.00000000000E+00 -0.00000000000E+00 -0.31776780191E+03  0.31776780191E+03  0.00000000000E+00 0. -1.
         23    2    1    2    0    0 -0.19252987921E+02  0.20093521505E+02  0.34819849318E+02  0.10213557607E+03  0.91895738973E+02 0.  0.
          5    1    1    2  502    0  0.12060075407E+01  0.27743164686E+02 -0.23494289452E+03  0.23661524407E+03  0.41800000000E+01 0. -1.
         -5    1    1    2    0  502  0.18046980381E+02 -0.47836686191E+02 -0.34718893666E+02  0.61942844817E+02  0.41800000000E+01 0.  1.
        -11    1    3    3    0    0 -0.45065499002E+02  0.42364979715E+02  0.24335095061E+02  0.66467191592E+02  0.00000000000E+00 0.  1.
         11    1    3    3    0    0  0.25812511081E+02 -0.22271458210E+02  0.10484754257E+02  0.35668384473E+02  0.00000000000E+00 0. -1.
</event>
<event>
 7    1  0.5831876E-006  0.1536228E+03  0.7561462E-02  0.1196091E+00
          1   -1    0    0  501    0  0.00000000000E+00  0.00000000000E+00  0.11751031897E+03  0.11751031897E+03  0.00000000000E+00 0. -1.
         -1   -1    0    0    0  501 -0.00000000000E+00 -0.00000000000E+00 -0.25553635713E+03  0.25553635713E+03  0.00000000000E+00 0.  1.
         23    2    1    2    0    0 -0.12796905484E+03 -0.28315339973E+02 -0.28718262800E+02  0.16144767995E+03  0.89792968934E+02 0.  0.
          5    1    1    2  502    0  0.28168013612E+02 -0.38657653494E+02 -0.70370718570E+02  0.85190149646E+02  0.41800000000E+01 0. -1.
         -5    1    1    2    0  502  0.99801041224E+02  0.66972993468E+02 -0.38937056786E+02  0.12640884650E+03  0.41800000000E+01 0. -1.
        -11    1    3    3    0    0 -0.32034132439E+02  0.12927963283E+02  0.26299165813E+02  0.43416172082E+02  0.00000000000E+00 0. -1.
         11    1    3    3    0    0 -0.95934922397E+02 -0.41243303256E+02 -0.55017428614E+02  0.11803150787E+03  0.00000000000E+00 0.  1.
</event>
<event>
 7    1  0.5831876E-006  0.1598115E+03  0.7561462E-02  0.1188910E+00
         -2   -1    0    0    0  501 -0.00000000000E+00  0.00000000000E+00  0.93527352849E+02  0.93527352849E+02  0.00000000000E+00 0.  1.
          2   -1    0    0  501    0  0.00000000000E+00 -0.00000000000E+00 -0.32188326607E+03  0.32188326607E+03  0.00000000000E+00 0. -1.
         23    2    1    2    0    0 -0.14040538058E+03  0.12633219610E+02 -0.11137289051E+03  0.20071257086E+03  0.89489363768E+02 0.  0.
          5    1    1    2  502    0  0.49715264389E+02  0.23857195965E+02 -0.10156592063E+03  0.11564550119E+03  0.41800000000E+01 0. -1.
         -5    1    1    2    0  502  0.90690116194E+02 -0.36490415575E+02 -0.15417102083E+02  0.99052546866E+02  0.41800000000E+01 0.  1.
        -11    1    3    3    0    0 -0.97583268851E+02  0.49996337279E+02 -0.80621275260E+02  0.13609525387E+03  0.00000000000E+00 0.  1.
         11    1    3    3    0    0 -0.42822111731E+02 -0.37363117669E+02 -0.30751615248E+02  0.64617316994E+02  0.00000000000E+00 0. -1.
</event>
<event>
 7    1  0.5831876E-006  0.1341077E+03  0.7561462E-02  0.1221485E+00
          1   -1    0    0  501    0  0.00000000000E+00  0.00000000000E+00  0.68644094605E+03  0.68644094605E+03  0.00000000000E+00 0. -1.
         -1   -1    0    0    0  501 -0.00000000000E+00 -0.00000000000E+00 -0.29915815516E+02  0.29915815516E+02  0.00000000000E+00 0.  1.
         23    2    1    2    0    0  0.38569338097E+02  0.82454847653E+02  0.35122619819E+03  0.37409708482E+03  0.91117456251E+02 0.  0.
          5    1    1    2  502    0 -0.47283462149E+02 -0.11177864097E+03  0.26492940953E+03  0.29143653649E+03  0.41800000000E+01 0. -1.
         -5    1    1    2    0  502  0.87141240519E+01  0.29323793319E+02  0.40369522812E+02  0.50823140248E+02  0.41800000000E+01 0. -1.
        -11    1    3    3    0    0  0.46086404876E+02  0.15646528507E+02  0.23357558689E+03  0.23859238328E+03  0.00000000000E+00 0. -1.
         11    1    3    3    0    0 -0.75170667786E+01  0.66808319146E+02  0.11765061130E+03  0.13550470154E+03  0.00000000000E+00 0.  1.
</event>
<event>
 7    1  0.5831876E-006  0.1201557E+03  0.7561462E-02  0.1242840E+00
         -2   -1    0    0    0  501 -0.00000000000E+00  0.00000000000E+00  0.28942513897E+02  0.28942513897E+02  0.00000000000E+00 0.  1.
          2   -1    0    0  501    0  0.00000000000E+00 -0.00000000000E+00 -0.59026183862E+03  0.59026183862E+03  0.00000000000E+00 0. -1.
         23    2    1    2    0    0 -0.80279439458E+02 -0.82050327486E+01 -0.17717683979E+03  0.20723079167E+03  0.70998996456E+02 0.  0.
          5    1    1    2  502    0  0.81208986722E+02 -0.46637538136E+02 -0.24932977460E+03  0.26636960861E+03  0.41800000000E+01 0. -1.
         -5    1    1    2    0  502 -0.92954726366E+00  0.54842570885E+02 -0.13481271033E+03  0.14560395223E+03  0.41800000000E+01 0. -1.
        -11    1    3    3    0    0 -0.50498579558E+02  0.16225464320E+02 -0.15255894712E+03  0.16151657678E+03  0.00000000000E+00 0. -1.
         11    1    3    3    0    0 -0.29780859900E+02 -0.24430497069E+02 -0.24617892669E+02  0.45714214889E+02  0.00000000000E+00 0.  1.
</event>
<event>
 7    1  0.5831876E-006  0.1169560E+03  0.7561462E-02  0.1248205E+00
          3   -1    0    0  501    0  0.00000000000E+00  0.00000000000E+00  0.12727948979E+03  0.12727948979E+03  0.00000000000E+00 0. -1.
         -3   -1    0    0    0  501 -0.00000000000E+00 -0.00000000000E+00 -0.14192211941E+03  0.14192211941E+03  0.00000000000E+00 0.  1.
         23    2    1    2    0    0  0.30925732315E+02 -0.61873396120E+02 -0.42911029487E+02  0.12350125630E+03  0.92878876976E+02 0.  0.
          5    1    1    2  502    0 -0.53103222365E+02  0.90220405075E+02  0.31280861793E+02  0.10934184209E+03  0.41800000000E+01 0.  1.
         -5    1    1    2    0  502  0.22177490050E+02 -0.28347008955E+02 -0.30124619331E+01  0.36358510813E+02  0.41800000000E+01 0.  1.
        -11    1    3    3    0    0  0.47245584284E+02 -0.27031457574E+02 -0.60339576384E+02  0.81263210686E+02  0.00000000000E+00 0.  1.
         11    1    3    3    0    0 -0.16319851969E+02 -0.34841938547E+02  0.17428546897E+02  0.42238045609E+02  0.00000000000E+00 0. -1.
</event>
<event>
 7    1  0.5831876E-006  0.1397983E+03  0.7561462E-02  0.1213601E+00
          1   -1    0    0  501    0  0.00000000000E+00  0.00000000000E+00  0.65542615237E+03  0.65542615237E+03  0.00000000000E+00 0. -1.
         -1   -1    0    0    0  501 -0.00000000000E+00 -0.00000000000E+00 -0.34358426787E+02  0.34358426787E+02  0.00000000000E+00 0.  1.
         23    2    1    2    0    0 -0.10295282089E+03  0.48641555038E+00  0.25780842458E+03  0.29203623026E+03  0.90666730767E+02 0.  0.
          5    1    1    2  502    0  0.11675017138E+03 -0.23317215170E+02  0.34542049683E+03  0.36538621631E+03  0.41800000000E+01 0.  1.
         -5    1    1    2    0  502 -0.13797350482E+02  0.22830799619E+02  0.17838804179E+02  0.32362132595E+02  0.41800000000E+01 0.  1.
        -11    1    3    3    0    0 -0.62027725880E+02  0.42205430856E+02  0.11053838910E+03  0.13359443341E+03  0.00000000000E+00 0.  1.
         11    1    3    3    0    0 -0.40925095014E+02 -0.41719015305E+02  0.14727003547E+03  0.15844179685E+03  0.00000000000E+00 0. -1.
</event>
<event>
 7    1  0.5831876E-006  0.1136235E+03  0.7561462E-02  0.1254003E+00
         -1   -1    0    0    0  501 -0.00000000000E+00  0.00000000000E+00  0.20395409518E+02  0.20395409518E+02  0.00000000000E+00 0.  1.
          1   -1    0    0  501    0  0.00000000000E+00 -0.00000000000E+00 -0.83036685034E+03  0.83036685034E+03  0.00000000000E+00 0. -1.
         23    2    1    2    0    0 -0.22367475219E+02 -0.50643928120E+02 -0.20262094734E+03  0.22819716431E+03  0.89182880054E+02 0.  0.
          5    1    1    2  502    0  0.24441412212E+02 -0.39034046808E+02 -0.17663919496E+03  0.18259221516E+03  0.41800000000E+01 0. -1.
         -5    1    1    2    0  502 -0.20739369936E+01  0.89677974928E+02 -0.43071129852E+03  0.43997288038E+03  0.41800000000E+01 0. -1.
        -11    1    3    3    0    0 -0.10009972811E+02  0.18462288501E+02 -0.10155018141E+02  0.23327666960E+02  0.00000000000E+00 0.  1.
         11    1    3    3    0    0 -0.12357502408E+02 -0.69106216621E+02 -0.19246592920E+03  0.20486949735E+03  0.00000000000E+00 0. -1.
</event>
<event>
 7    1  0.5831876E-006  0.1209658E+03  0.7561462E-02  0.1241512E+00
         -1   -1    0    0    0  501 -0.00000000000E+00  0.00000000000E+00  0.11200615689E+03  0.11200615689E+03  0.00000000000E+00 0.  1.
          1   -1    0    0  501    0  0.00000000000E+00 -0.00000000000E+00 -0.14255823477E+03  0.14255823477E+03  0.00000000000E+00 0. -1.
         23    2    1    2    0    0 -0.63714023561E+02  0.10960305904E+02 -0.60534106738E+01  0.11163423740E+03  0.90807235811E+02 0.  0.
          5    1    1    2  502    0  0.78823174519E+02  0.39019777358E+02 -0.10253630295E+02  0.88646743880E+02  0.41800000000E+01 0. -1.
         -5    1    1    2    0  502 -0.15109150958E+02 -0.49980083262E+02 -0.14245036914E+02  0.54283410377E+02  0.41800000000E+01 0. -1.
        -11    1    3    3    0    0 -0.78698134118E+02 -0.59285867807E+01 -0.24329849972E+02  0.82586234050E+02  0.00000000000E+00 0. -1.
         11    1    3    3    0    0  0.14984110557E+02  0.16888892684E+02  0.18276439299E+02  0.29048003352E+02  0.00000000000E+00 0.  1.
</event>
<event>
 7    1  0.5831876E-006  0.1196563E+03  0.7561462E-02  0.1243665E+00
          1   -1    0    0  501    0  0.00000000000E+00  0.00000000000E+00  0.12612702861E+03  0.12612702861E+03  0.00000000000E+00 0. -1.
         -1   -1    0    0    0  501 -0.00000000000E+00 -0.00000000000E+00 -0.17172585891E+03  0.17172585891E+03  0.00000000000E+00 0.  1.
         23    2    1    2    0    0  0.87615709427E+02  0.28666577784E+01 -0.67332539259E+02  0.14357087783E+03  0.91619844209E+02 0.  0.
          5    1    1    2  502    0 -0.93794691974E+02 -0.18040128212E+02 -0.29722625012E+02  0.10011891583E+03  0.41800000000E+01 0. -1.
         -5    1    1    2    0  502  0.61789825468E+01  0.15173470433E+02  0.51456333980E+02  0.54163093865E+02  0.41800000000E+01 0. -1.
        -11    1    3    3    0    0  0.35820525985E+00 -0.32605273039E+02 -0.16850964102E+02  0.36704047898E+02  0.00000000000E+00 0.  1.
         11    1    3    3    0    0  0.87257504168E+02  0.35471930818E+02 -0.50481575158E+02  0.10686682993E+03  0.00000000000E+00 0. -1.
</event>
<event>
 7    1  0.5831876E-006  0.9934863E+02  0.7561462E-02  0.1281672E+00
          1   -1    0    0  501    0  0.00000000000E+00  0.00000000000E+00  0.15524055440E+03  0.15524055440E+03  0.00000000000E+00 0. -1.
         -1   -1    0    0    0  501 -0.00000000000E+00 -0.00000000000E+00 -0.96294560247E+02  0.96294560247E+02  0.00000000000E+00 0.  1.
         23    2    1    2    0    0  0.14938963483E+02 -0.42162736084E+02 -0.96079721130E+01  0.10204332949E+03  0.91212164871E+02 0.  0.
          5    1    1    2  502    0  0.38289669814E+02  0.63719175072E+02  0.30427973928E+02  0.80433612897E+02  0.41800000000E+01 0.  1.
         -5    1    1    2    0  502 -0.53228633297E+02 -0.21556438987E+02  0.38125992335E+02  0.69058172261E+02  0.41800000000E+01 0.  1.
        -11    1    3    3    0    0 -0.12165010351E+02  0.42734857461E+01  0.31711745639E+02  0.34232805446E+02  0.00000000000E+00 0. -1.
         11    1    3    3    0    0  0.27103973834E+02 -0.46436221831E+02 -0.41319717752E+02  0.67810524040E+02  0.00000000000E+00 0.  1.
</event>
<event>
 7    1  0.5831876E-006  0.1478711E+03  0.7561462E-02  0.1203114E+00
         -1   -1    0    0    0  501 -0.00000000000E+00  0.00000000000E+00  0.20654095534E+02  0.20654095534E+02  0.00000000000E+00 0.  1.
          1   -1    0    0  501    0  0.00000000000E+00 -0.00000000000E+00 -0.14984747712E+04  0.14984747712E+04  0.00000000000E+00 0. -1.
         23    2    1    2    0    0 -0.11438845792E+03  0.32378041525E+02 -0.38998685767E+03  0.41769204248E+03  0.90795574359E+02 0.  0.
          5    1    1    2  502    0  0.85893273202E+02 -0.75455539214E+02 -0.59602077827E+03  0.60690150215E+03  0.41800000000E+01 0.  1.
         -5    1    1    2    0  502  0.28495184719E+02  0.43077497689E+02 -0.49181303969E+03  0.49453532206E+03  0.41800000000E+01 0.  1.
        -11    1    3    3    0    0 -0.34463362877E+02  0.35573101620E+02 -0.58310738189E+02  0.76506935161E+02  0.00000000000E+00 0.  1.
         11    1    3    3    0    0 -0.79925095043E+02 -0.31950600947E+01 -0.33167611948E+03  0.34118510732E+03  0.00000000000E+00 0. -1.
</event>
<event>
 7    1  0.5831876E-006  0.9821142E+02  0.7561462E-02  0.1284103E+00
          1   -1    0    0  501    0  0.00000000000E+00  0.00000000000E+00  0.24184255065E+03  0.24184255065E+03  0.00000000000E+00 0. -1.
         -1   -1    0    0    0  501 -0.00000000000E+00 -0.00000000000E+00 -0.66409451869E+02  0.66409451869E+02  0.00000000000E+00 0.  1.
         23    2    1    2    0    0  0.16503509112E+02  0.11301475170E+02  0.59081193452E+02  0.10656026443E+03  0.86396836641E+02 0.  0.
          5    1    1    2  502    0  0.54292280916E+02 -0.13738054817E+02 -0.97458776962E+01  0.56998600415E+02  0.41800000000E+01 0. -1.
         -5    1    1    2    0  502 -0.70795790028E+02  0.24365796470E+01  0.12609778303E+03  0.14469313768E+03  0.41800000000E+01 0.  1.
        -11    1    3    3    0    0  0.40213695630E+02 -0.50085672288E+01  0.65548872944E+02  0.77064140858E+02  0.00000000000E+00 0. -1.
         11    1    3    3    0    0 -0.23710186518E+02  0.16310042399E+02 -0.64676794914E+01  0.29496123573E+02  0.00000000000E+00 0.  1.
</event>
<event>
 7    1  0.5831876E-006  0.6535935E+02  0.7561462E-02  0.1376625E+00
          2   -1    0    0  501    0  0.00000000000E+00  0.00000000000E+00  0.12458592567E+04  0.12458592567E+04  0.00000000000E+00 0. -1.
         -2   -1    0    0    0  501 -0.00000000000E+00 -0.00000000000E+00 -0.90932305115E+01  0.90932305115E+01  0.00000000000E+00 0.  1.
         23    2    1    2    0    0  0.37050429168E+00 -0.24692590005E+02  0.39008646392E+03  0.39872596523E+03  0.78772360294E+02 0.  0.
          5    1    1    2  502    0 -0.18085318264E+02  0.36191277810E+00  0.14669247356E+02  0.23661549729E+02  0.41800000000E+01 0.  1.
         -5    1    1    2    0  502  0.17714813973E+02  0.24330677227E+02  0.83201031488E+03  0.83256497222E+03  0.41800000000E+01 0.  1.
        -11    1    3    3    0    0  0.35345772870E+01 -0.53083511033E+02  0.27886958037E+03  0.28389891728E+03  0.00000000000E+00 0. -1.
         11    1    3    3    0    0 -0.31640729954E+01  0.28390921028E+02  0.11121688355E+03  0.11482704795E+03  0.00000000000E+00 0.  1.
</event>
<event>
 7    1  0.5831876E-006  0.1068675E+03  0.7561462E-02  0.1266483E+00
         -2   -1    0    0    0  501 -0.00000000000E+00  0.00000000000E+00  0.23300179346E+02  0.23300179346E+02  0.00000000000E+00 0.  1.
          2   -1    0    0  501    0  0.00000000000E+00 -0.00000000000E+00 -0.67531130282E+03  0.67531130282E+03  0.00000000000E+00 0. -1.
         23    2    1    2    0    0 -0.28392810379E+02  0.14660105995E+02 -0.13579626929E+03  0.16649519262E+03  0.90878776519E+02 0.  0.
          5    1    1    2  502    0 -0.83347554315E+00 -0.66914969800E+02 -0.22486781749E+03  0.23465147689E+03  0.41800000000E+01 0. -1.
         -5    1    1    2    0  502  0.29226285923E+02  0.52254863805E+02 -0.29134703669E+03  0.29746481266E+03  0.41800000000E+01 0. -1.
        -11    1    3    3    0    0 -0.76762609673E+01  0.47347992618E+02 -0.37595859825E+02  0.60944286552E+02  0.00000000000E+00 0.  1.
         11    1    3    3    0    0 -0.20716549412E+02 -0.32687886623E+02 -0.98200409468E+02  0.10555090606E+03  0.00000000000E+00 0. -1.
</event>
<event>
 7    1  0.5831876E-006  0.9340822E+02  0.7561462E-02  0.1294802E+00
          3   -1    0    0  501    0  0.00000000000E+00  0.00000000000E+00  0.29033459741E+02  0.29033459741E+02  0.00000000000E+00 0. -1.
         -3   -1    0    0    0  501 -0.00000000000E+00 -0.00000000000E+00 -0.43647517197E+03  0.43647517197E+03  0.00000000000E+00 0.  1.
         23    2    1    2    0    0  0.21634199621E+02 -0.56541357060E+01 -0.22551528749E+03  0.24359681814E+03  0.89343478055E+02 0.  0.
          5    1    1    2  502    0  0.31299372648E+02 -0.22358770890E+02 -0.10228398950E+02  0.40020718496E+02  0.41800000000E+01 0.  1.
         -5    1    1    2    0  502 -0.52933572269E+02  0.28012906596E+02 -0.17169802578E+03  0.18189109507E+03  0.41800000000E+01 0.  1.
        -11    1    3    3    0    0 -0.21108342915E+02  0.27021289599E+02 -0.55170570305E+02  0.64957709781E+02  0.00000000000E+00 0. -1.
         11    1    3    3    0    0  0.42742542536E+02 -0.32675425305E+02 -0.17034471719E+03  0.17863910836E+03  0.00000000000E+00 0.  1.
</event>
<event>
 7    1  0.5831876E-006  0.1129175E+03  0.7561462E-02  0.1255261E+00
          2   -1    0    0  501    0  0.00000000000E+00  0.00000000000E+00  0.12998402215E+04  0.12998402215E+04  0.00000000000E+00 0. -1.
         -2   -1    0    0    0  501 -0.00000000000E+00 -0.00000000000E+00 -0.17034565241E+02  0.17034565241E+02  0.00000000000E+00 0.  1.
         23    2    1    2    0    0 -0.77776692656E+02  0.46771210360E+02  0.38721760054E+03  0.40805034089E+03  0.91273492826E+02 0.  0.
          5    1    1    2  502    0  0.42648862347E+02 -0.55735011739E+02  0.83598877965E+03  0.83893982448E+03  0.41800000000E+01 0.  1.
         -5    1    1    2    0  502  0.35127830309E+02  0.89638013790E+01  0.59599276102E+02  0.69884621408E+02  0.41800000000E+01 0.  1.
        -11    1    3    3    0    0 -0.20379948355E+02  0.57180081816E+02  0.27451330868E+03  0.28114491049E+03  0.00000000000E+00 0. -1.
         11    1    3    3    0    0 -0.57396744300E+02 -0.10408871456E+02  0.11270429186E+03  0.12690543040E+03  0.00000000000E+00 0.  1.
</event>
<event>
 7    1  0.5831876E-006  0.1068027E+03  0.7561462E-02  0.1266608E+00
         -4   -1    0    0    0  501 -0.00000000000E+00  0.00000000000E+00  0.31541202719E+02  0.31541202719E+02  0.00000000000E+00 0.  1.
          4   -1    0    0  501    0  0.00000000000E+00 -0.00000000000E+00 -0.44878458074E+03  0.44878458074E+03  0.00000000000E+00 0. -1.
         23    2    1    2    0    0  0.11405705861E+02 -0.40618657029E+02 -0.12870422986E+03  0.16302044133E+03  0.90724418338E+02 0.  0.
          5    1    1    2  502    0  0.24314200693E+02 -0.36175726700E+02 -0.66469080139E+02  0.79595694432E+02  0.41800000000E+01 0.  1.
         -5    1    1    2    0  502 -0.35719906554E+02  0.76794383729E+02 -0.22207006803E+03  0.23770964770E+03  0.41800000000E+01 0.  1.
        -11    1    3    3    0    0  0.54218938093E+01  0.21724094417E+02 -0.81705207162E+02  0.84717613801E+02  0.00000000000E+00 0. -1.
         11    1    3    3    0    0  0.59838120519E+01 -0.62342751446E+02 -0.46999022697E+02  0.78302827529E+02  0.00000000000E+00 0.  1.
</event>
<event>
 7    1  0.5831876E-006  0.1060254E+03  0.7561462E-02  0.1268112E+00
          2   -1    0    0  501    0  0.00000000000E+00  0.00000000000E+00  0.43432425432E+03  0.43432425432E+03  0.00000000000E+00 0. -1.
         -2   -1    0    0    0  501 -0.00000000000E+00 -0.00000000000E+00 -0.38659211730E+02  0.38659211730E+02  0.00000000000E+00 0.  1.
         23    2    1    2    0    0  0.61329614582E+02 -0.69954868230E+01  0.11949168665E+03  0.16358308600E+03  0.93117691057E+02 0.  0.
          5    1    1    2  502    0 -0.51802724473E+02  0.62724978693E+02  0.14133576632E+03  0.16312944693E+03  0.41800000000E+01 0.  1.
         -5    1    1    2    0  502 -0.95268901093E+01 -0.55729491870E+02  0.13483758962E+03  0.14627093312E+03  0.41800000000E+01 0.  1.
        -11    1    3    3    0    0  0.17536610132E+02 -0.21521040155E+02  0.11374933178E+03  0.11708799403E+03  0.00000000000E+00 0. -1.
         11    1    3    3    0    0  0.43793004450E+02  0.14525553332E+02  0.57423548633E+01  0.46495091975E+02  0.00000000000E+00 0.  1.
</event>
<event>
 7    1  0.5831876E-006  0.1865046E+03  0.7561462E-02  0.1161652E+00
          2   -1    0    0  501    0  0.00000000000E+00  0.00000000000E+00  0.14441575668E+03  0.14441575668E+03  0.00000000000E+00 0. -1.
         -2   -1    0    0    0  501 -0.00000000000E+00 -0.00000000000E+00 -0.32728032004E+03  0.32728032004E+03  0.00000000000E+00 0.  1.
         23    2    1    2    0    0 -0.11366288996E+03 -0.12348107736E+03 -0.17966043327E+03  0.26235356170E+03  0.91567958570E+02 0.  0.
          5    1    1    2  502    0 -0.82887234348E+01  0.30279016624E+02  0.38868149206E+02  0.50137084145E+02  0.41800000000E+01 0.  1.
         -5    1    1    2    0  502  0.12195161339E+03  0.93202060737E+02 -0.42072279296E+02  0.15920543087E+03  0.41800000000E+01 0.  1.
        -11    1    3    3    0    0 -0.47918261188E+02 -0.19845858113E-01 -0.68954843095E+02  0.83969819194E+02  0.00000000000E+00 0. -1.
         11    1    3    3    0    0 -0.65744628767E+02 -0.12346123150E+03 -0.11070559017E+03  0.17838374251E+03  0.00000000000E+00 0.  1.
</event>
<event>
 7    1  0.5831876E-006  0.1378657E+03  0.7561462E-02  0.1216230E+00
         -2   -1    0    0    0  501 -0.00000000000E+00  0.00000000000E+00  0.46256866799E+03  0.46256866799E+03  0.00000000000E+00 0. -1.
          2   -1    0    0  501    0  0.00000000000E+00 -0.00000000000E+00 -0.58713136386E+02  0.58713136386E+02  0.00000000000E+00 0.  1.
         23    2    1    2    0    0 -0.53125624161E+02 -0.85380388142E+02  0.30708708837E+03  0.33387052528E+03  0.83993483000E+02 0.  0.
          5    1    1    2  502    0  0.30115716802E+02 -0.22768951611E+02  0.59620898584E+02  0.70693037167E+02  0.41800000000E+01 0.  1.
         -5    1    1    2    0  502  0.23009907359E+02  0.10814933975E+03  0.37147544655E+02  0.11671824193E+03  0.41800000000E+01 0.  1.
        -11    1    3    3    0    0 -0.28779046782E+02  0.85825297047E+01  0.42493744493E+02  0.52034716016E+02  0.00000000000E+00 0.  1.
         11    1    3    3    0    0 -0.24346577379E+02 -0.93962917847E+02  0.26459334387E+03  0.28183580926E+03  0.00000000000E+00 0. -1.
</event>
<event>
 7    1  0.5831876E-006  0.2210098E+03  0.7561462E-02  0.1133132E+00
         -1   -1    0    0    0  501 -0.00000000000E+00  0.00000000000E+00  0.43456394739E+02  0.43456394739E+02  0.00000000000E+00 0.  1.
          1   -1    0    0  501    0  0.00000000000E+00 -0.00000000000E+00 -0.14536106831E+04  0.14536106831E+04  0.00000000000E+00 0. -1.
         23    2    1    2    0    0  0.19859846077E+03 -0.53728727433E+02 -0.40167037767E+03  0.46023717996E+03  0.90283136553E+02 0.  0.
          5    1    1    2  502    0 -0.15415135574E+03 -0.21570521944E+01 -0.83594411581E+03  0.85005136934E+03  0.41800000000E+01 0.  1.
         -5    1    1    2    0  502 -0.44447105024E+02  0.55885779628E+02 -0.17253979491E+03  0.18677852857E+03  0.41800000000E+01 0.  1.
        -11    1    3    3    0    0  0.10496780537E+03  0.61174526870E+01 -0.13335413363E+03  0.16982045916E+03  0.00000000000E+00 0.  1.
         11    1    3    3    0    0  0.93630655397E+02 -0.59846180120E+02 -0.26831624404E+03  0.29041672080E+03  0.00000000000E+00 0. -1.
</event>
<event>
 7    1  0.5831876E-006  0.1062587E+03  0.7561462E-02  0.1267659E+00
          3   -1    0    0  501    0  0.00000000000E+00  0.00000000000E+00  0.14302084499E+03  0.14302084499E+03  0.00000000000E+00 0. -1.
         -3   -1    0    0    0  501 -0.00000000000E+00 -0.00000000000E+00 -0.98319198244E+02  0.98319198244E+02  0.00000000000E+00 0.  1.
         23    2    1    2    0    0 -0.33836890546E+02  0.20658152349E+02 -0.87861648312E+01  0.99639932823E+02  0.90990247280E+02 0.  0.
          5    1    1    2  502    0  0.12276821893E+02  0.48191172882E+02 -0.29698593407E+01  0.49994019283E+02  0.41800000000E+01 0. -1.
         -5    1    1    2    0  502  0.21560068653E+02 -0.68849325231E+02  0.56457670922E+02  0.91706091133E+02  0.41800000000E+01 0. -1.
        -11    1    3    3    0    0 -0.97586119268E+01 -0.31457000381E+02 -0.23397941550E+02  0.40400953559E+02  0.00000000000E+00 0.  1.
         11    1    3    3    0    0 -0.24078278619E+02  0.52115152729E+02  0.14611776719E+02  0.59238979263E+02  0.00000000000E+00 0. -1.
</event>
<event>
 7    1  0.5831876E-006  0.1527987E+03  0.7561462E-02  0.1197076E+00
          1   -1    0    0  501    0  0.00000000000E+00  0.00000000000E+00  0.66785254765E+03  0.66785254765E+03  0.00000000000E+00 0. -1.
         -1   -1    0    0    0  501 -0.00000000000E+00 -0.00000000000E+00 -0.38654556430E+02  0.38654556430E+02  0.00000000000E+00 0.  1.
         23    2    1    2    0    0  0.11551531572E+03 -0.12499612236E+02  0.24364987027E+03  0.28485068455E+03  0.90964964350E+02 0.  0.
          5    1    1    2  502    0 -0.30938975370E+02 -0.48633127345E+02  0.79554215786E+02  0.98329786543E+02  0.41800000000E+01 0. -1.
         -5    1    1    2    0  502 -0.84576340350E+02  0.61132739580E+02  0.30599390517E+03  0.32332663299E+03  0.41800000000E+01 0. -1.
        -11    1    3    3    0    0 -0.94487888343E+01  0.12756141155E+02  0.10236099708E+02  0.18888527863E+02  0.00000000000E+00 0. -1.
         11    1    3    3    0    0  0.12496410455E+03 -0.25255753391E+02  0.23341377056E+03  0.26596215669E+03  0.00000000000E+00 0.  1.
</event>
<event>
 7    1  0.5831876E-006  0.1526308E+03  0.7561462E-02  0.1197277E+00
         -2   -1    0    0    0  501 -0.00000000000E+00  0.00000000000E+00  0.22441772415E+02  0.22441772415E+02  0.00000000000E+00 0.  1.
          2   -1    0    0  501    0  0.00000000000E+00 -0.00000000000E+00 -0.20411263925E+04  0.20411263925E+04  0.00000000000E+00 0. -1.
         23    2    1    2    0    0 -0.50078629722E+02  0.13179226963E+03 -0.39833686251E+03  0.43229530346E+03  0.91268296064E+02 0.  0.
          5    1    1    2  502    0 -0.72150659765E+00 -0.10125607709E+01 -0.72305703950E+03  0.72307019066E+03  0.41800000000E+01 0. -1.
         -5    1    1    2    0  502  0.50800136320E+02 -0.13077970886E+03 -0.89729071804E+03  0.90820267076E+03  0.41800000000E+01 0. -1.
        -11    1    3    3    0    0 -0.37300126270E+02  0.14030886836E+03 -0.30605051316E+03  0.33874001028E+03  0.00000000000E+00 0.  1.
         11    1    3    3    0    0 -0.12778503452E+02 -0.85165987303E+01 -0.92286349348E+02  0.93555293172E+02  0.00000000000E+00 0. -1.
</event>
<event>
 7    1  0.5831876E-006  0.9250513E+02  0.7561462E-02  0.1296896E+00
          1   -1    0    0  501    0  0.00000000000E+00  0.00000000000E+00  0.25694092765E+03  0.25694092765E+03  0.00000000000E+00 0. -1.
         -1   -1    0    0    0  501 -0.00000000000E+00 -0.00000000000E+00 -0.61097117472E+02  0.61097117472E+02  0.00000000000E+00 0.  1.
         23    2    1    2    0    0  0.55735050546E+02  0.27916858447E+02  0.93462505799E+02  0.14479060961E+03  0.91341851290E+02 0.  0.
          5    1    1    2  502    0 -0.34863803425E+02  0.18386254873E+02 -0.17240097419E+02  0.43223055381E+02  0.41800000000E+01 0. -1.
         -5    1    1    2    0  502 -0.20871247122E+02 -0.46303113320E+02  0.11962140180E+03  0.13002438013E+03  0.41800000000E+01 0. -1.
        -11    1    3    3    0    0 -0.34313838887E+01  0.34690685919E+02  0.10800699169E+01  0.34876706208E+02  0.00000000000E+00 0.  1.
         11    1    3    3    0    0  0.59166434435E+02 -0.67738274715E+01  0.92382435882E+02  0.10991390341E+03  0.00000000000E+00 0. -1.
</event>
<event>
 7    1  0.5831876E-006  0.8922632E+02  0.7561462E-02  0.1304736E+00
          4   -1    0    0  501    0  0.00000000000E+00  0.00000000000E+00  0.11578757668E+04  0.11578757668E+04  0.00000000000E+00 0. -1.
         -4   -1    0    0    0  501 -0.00000000000E+00 -0.00000000000E+00 -0.13228831484E+02  0.13228831484E+02  0.00000000000E+00 0.  1.
         23    2    1    2    0    0  0.10259808553E+02  0.16866285268E+02  0.23789651043E+03  0.25555360598E+03  0.91231357579E+02 0.  0.
          5    1    1    2  502    0  0.44738347164E+02  0.51119665043E+01  0.15508071600E+03  0.16153994176E+03  0.41800000000E+01 0.  1.
         -5    1    1    2    0  502 -0.54998155717E+02 -0.21978251772E+02  0.75166970887E+03  0.75401105052E+03  0.41800000000E+01 0.  1.
        -11    1    3    3    0    0  0.20623434764E+02 -0.24029860119E+02  0.30698139267E+02  0.44103695913E+02  0.00000000000E+00 0.  1.
         11    1    3    3    0    0 -0.10363626211E+02  0.40896145386E+02  0.20719837116E+03  0.21144991007E+03  0.00000000000E+00 0. -1.
</event>
<event>
 7    1  0.5831876E-006  0.1406405E+03  0.7561462E-02  0.1212470E+00
         -2   -1    0    0    0  501 -0.00000000000E+00  0.00000000000E+00  0.14540208729E+02  0.14540208729E+02  0.00000000000E+00 0. -1.
          2   -1    0    0  501    0  0.00000000000E+00 -0.00000000000E+00 -0.14468446399E+04  0.14468446399E+04  0.00000000000E+00 0.  1.
         23    2    1    2    0    0 -0.66801007465E+02  0.64290310587E+02 -0.48625976530E+03  0.50261280307E+03  0.87037071537E+02 0.  0.
          5    1    1    2  502    0  0.54688105578E+02 -0.10136196242E+03 -0.75462860816E+03  0.76337857251E+03  0.41800000000E+01 0. -1.
         -5    1    1    2    0  502  0.12112901887E+02  0.37071651831E+02 -0.19141605774E+03  0.19539347308E+03  0.41800000000E+01 0. -1.
        -11    1    3    3    0    0 -0.42230170508E+02 -0.14205879852E+02 -0.18925950376E+03  0.19443341813E+03  0.00000000000E+00 0.  1.
         11    1    3    3    0    0 -0.24570836957E+02  0.78496190439E+02 -0.29700026154E+03  0.30817938494E+03  0.00000000000E+00 0. -1.
</event>
<event>
 7    1  0.5831876E-006  0.1084985E+03  0.7561462E-02  0.1263376E+00
          2   -1    0    0  501    0  0.00000000000E+00  0.00000000000E+00  0.14979295384E+04  0.14979295384E+04  0.00000000000E+00 0. -1.
         -2   -1    0    0    0  501 -0.00000000000E+00 -0.00000000000E+00 -0.91826253931E+01  0.91826253931E+01  0.00000000000E+00 0.  1.
         23    2    1    2    0    0 -0.92508864351E+00 -0.24246482648E+02  0.39930459077E+03  0.41024388226E+03  0.90923808818E+02 0.  0.
          5    1    1    2  502    0  0.55128625366E+02  0.42465542360E+02  0.63898658177E+03  0.64277819791E+03  0.41800000000E+01 0. -1.
         -5    1    1    2    0  502 -0.54203536722E+02 -0.18219059712E+02  0.45045574047E+03  0.45409008363E+03  0.41800000000E+01 0. -1.
        -11    1    3    3    0    0  0.42335275559E+02 -0.18883781888E+02  0.14498299909E+03  0.15221347772E+03  0.00000000000E+00 0.  1.
         11    1    3    3    0    0 -0.43260364202E+02 -0.53627007605E+01  0.25432159168E+03  0.25803040454E+03  0.00000000000E+00 0. -1.
</event>
<event>
 7    1  0.5831876E-006  0.9135479E+02  0.7561462E-02  0.1299604E+00
          2   -1    0    0  501    0  0.00000000000E+00  0.00000000000E+00  0.38863188499E+03  0.38863188499E+03  0.00000000000E+00 0. -1.
         -2   -1    0    0    0  501 -0.00000000000E+00 -0.00000000000E+00 -0.38258754941E+02  0.38258754941E+02  0.00000000000E+00 0.  1.
         23    2    1    2    0    0 -0.55358740026E+02  0.90543711698E+01  0.14367859069E+03  0.17885900324E+03  0.90556247057E+02 0.  0.
          5    1    1    2  502    0  0.46415265892E+02  0.25060736817E+02  0.20581272447E+03  0.21250592319E+03  0.41800000000E+01 0. -1.
         -5    1    1    2    0  502  0.89434741343E+01 -0.34115107987E+02  0.88181488919E+00  0.35525713505E+02  0.41800000000E+01 0. -1.
        -11    1    3    3    0    0 -0.22722597509E+02 -0.33606872051E+02  0.10529849038E+03  0.11284285694E+03  0.00000000000E+00 0. -1.
         11    1    3    3    0    0 -0.32636142517E+02  0.42661243221E+02  0.38380100312E+02  0.66016146294E+02  0.00000000000E+00 0.  1.
</event>
<event>
 7    1  0.5831876E-006  0.9846893E+02  0.7561462E-02  0.1283549E+00
         -2   -1    0    0    0  501 -0.00000000000E+00  0.00000000000E+00  0.45465452525E+02  0.45465452525E+02  0.00000000000E+00 0.  1.
          2   -1    0    0  501    0  0.00000000000E+00 -0.00000000000E+00 -0.12983635011E+04  0.12983635011E+04  0.00000000000E+00 0. -1.
         23    2    1    2    0    0  0.13274361029E+02  0.60178795790E+01 -0.85015930299E+01  0.93075311777E+02  0.91533125387E+02 0.  0.
          5    1    1    2  502    0 -0.47187701519E+02 -0.46552662151E+02 -0.48762662598E+03  0.49212907686E+03  0.41800000000E+01 0.  1.
         -5    1    1    2    0  502  0.33913340490E+02  0.40534782572E+02 -0.75676982960E+03  0.75862456502E+03  0.41800000000E+01 0.  1.
        -11    1    3    3    0    0 -0.20749707808E+02 -0.24285160315E+02  0.21516572876E+02  0.38513404082E+02  0.00000000000E+00 0.  1.
         11    1    3    3    0    0  0.34024068837E+02  0.30303039894E+02 -0.30018165906E+02  0.54561907696E+02  0.00000000000E+00 0. -1.
</event>
<event>
 7    1  0.5831876E-006  0.1139704E+03  0.7561462E-02  0.1253389E+00
          2   -1    0    0  501    0  0.00000000000E+00  0.00000000000E+00  0.80651571991E+03  0.80651571991E+03  0.00000000000E+00 0. -1.
         -2   -1    0    0    0  501 -0.00000000000E+00 -0.00000000000E+00 -0.19180173205E+02  0.19180173205E+02  0.00000000000E+00 0.  1.
         23    2    1    2    0    0  0.44429676358E+02 -0.24668589528E+02  0.23215622095E+03  0.25433409167E+03  0.90591300955E+02 0.  0.
          5    1    1    2  502    0 -0.70459438534E+02 -0.27505556470E+02  0.28195760208E+03  0.29195658905E+03  0.41800000000E+01 0.  1.
         -5    1    1    2    0  502  0.26029762176E+02  0.52174145997E+02  0.27322172367E+03  0.27940521240E+03  0.41800000000E+01 0.  1.
        -11    1    3    3    0    0 -0.19786003062E+02 -0.21815982600E+02  0.29327120380E+02  0.41563241016E+02  0.00000000000E+00 0.  1.
         11    1    3    3    0    0  0.64215679420E+02 -0.28526069278E+01  0.20282910057E+03  0.21277085065E+03  0.00000000000E+00 0. -1.
</event>
<event>
 7    1  0.5831876E-006  0.1442650E+03  0.7561462E-02  0.1207703E+00
          1   -1    0    0  501    0  0.00000000000E+00  0.00000000000E+00  0.18783433178E+03  0.18783433178E+03  0.00000000000E+00 0. -1.
         -1   -1    0    0    0  501 -0.00000000000E+00 -0.00000000000E+00 -0.16167553247E+03  0.16167553247E+03  0.00000000000E+00 0.  1.
         23    2    1    2    0    0  0.18409547527E+01 -0.13680579510E+03  0.10670113729E+02  0.16348160103E+03  0.88843502061E+02 0.  0.
          5    1    1    2  502    0  0.45024970983E+01  0.43114188490E+02  0.66186464495E+02  0.79228948066E+02  0.41800000000E+01 0. -1.
         -5    1    1    2    0  502 -0.63434518509E+01  0.93691606614E+02 -0.50697778911E+02  0.10679931516E+03  0.41800000000E+01 0. -1.
        -11    1    3    3    0    0  0.31679306295E+02 -0.90597040113E+02  0.36539996675E+02  0.10269651154E+03  0.00000000000E+00 0. -1.
         11    1    3    3    0    0 -0.29838351543E+02 -0.46208754991E+02 -0.25869882946E+02  0.60785089489E+02  0.00000000000E+00 0.  1.
</event>
<event>
 7    1  0.5831876E-006  0.1841556E+03  0.7561462E-02  0.1163841E+00
          1   -1    0    0  501    0  0.00000000000E+00  0.00000000000E+00  0.29286365574E+03  0.29286365574E+03  0.00000000000E+00 0. -1.
         -1   -1    0    0    0  501 -0.00000000000E+00 -0.00000000000E+00 -0.13886834270E+03  0.13886834270E+03  0.00000000000E+00 0.  1.
         23    2    1    2    0    0  0.11988813972E+03  0.89285631551E+02 -0.13326473706E+02  0.17447334661E+03  0.88984626354E+02 0.  0.
          5    1    1    2  502    0 -0.12367340261E+03 -0.11462205769E+03  0.15236508489E+03  0.22730138168E+03  0.41800000000E+01 0. -1.
         -5    1    1    2    0  502  0.37852628815E+01  0.25336426140E+02  0.14956701852E+02  0.29957270151E+02  0.41800000000E+01 0. -1.
        -11    1    3    3    0    0  0.27207499164E+02  0.75156617312E+02 -0.11810415095E+01  0.79938476315E+02  0.00000000000E+00 0.  1.
         11    1    3    3    0    0  0.92680640561E+02  0.14129014239E+02 -0.12145432196E+02  0.94534870293E+02  0.00000000000E+00 0. -1.
</event>
<event>
 7    1  0.5831876E-006  0.1151094E+03  0.7561462E-02  0.1251390E+00
          2   -1    0    0  501    0  0.00000000000E+00  0.00000000000E+00  0.75530058158E+03  0.75530058158E+03  0.00000000000E+00 0. -1.
         -2   -1    0    0    0  501 -0.00000000000E+00 -0.00000000000E+00 -0.53818616738E+02  0.53818616738E+02  0.00000000000E+00 0.  1.
         23    2    1    2    0    0  0.31980819723E+02  0.73060199024E+02  0.39639535251E+02  0.13085438968E+03  0.95869771206E+02 0.  0.
          5    1    1    2  502    0 -0.15551213367E+01  0.14009124758E+02  0.40611529647E+03  0.40638132389E+03  0.41800000000E+01 0. -1.
         -5    1    1    2    0  502 -0.30425698387E+02 -0.87069323783E+02  0.25572713312E+03  0.27188348475E+03  0.41800000000E+01 0. -1.
        -11    1    3    3    0    0  0.33184461709E+02 -0.14075300444E+02  0.21075362223E+02  0.41755161050E+02  0.00000000000E+00 0.  1.
         11    1    3    3    0    0 -0.12036419860E+01  0.87135499468E+02  0.18564173029E+02  0.89099228626E+02  0.00000000000E+00 0. -1.
</event>
<event>
 7    1  0.5831876E-006  0.9698177E+02  0.7561462E-02  0.1286774E+00
         -1   -1    0    0    0  501 -0.00000000000E+00  0.00000000000E+00  0.34356745409E+02  0.34356745409E+02  0.00000000000E+00 0.  1.
          1   -1    0    0  501    0  0.00000000000E+00 -0.00000000000E+00 -0.46792162100E+03  0.46792162100E+03  0.00000000000E+00 0. -1.
         23    2    1    2    0    0  0.34589546200E+02  0.31922131789E+01 -0.83765520956E+02  0.12916463947E+03  0.91979425190E+02 0.  0.
          5    1    1    2  502    0  0.27428005006E+02  0.20817289243E+02 -0.25436236047E+03  0.25671645412E+03  0.41800000000E+01 0. -1.
         -5    1    1    2    0  502 -0.62017551207E+02 -0.24009502422E+02 -0.95436994169E+02  0.11639727282E+03  0.41800000000E+01 0. -1.
        -11    1    3    3    0    0 -0.28969923591E+02  0.25325228344E+01 -0.48295265896E+02  0.56374664990E+02  0.00000000000E+00 0. -1.
         11    1    3    3    0    0  0.63559469791E+02  0.65969034450E+00 -0.35470255060E+02  0.72789974485E+02  0.00000000000E+00 0.  1.
</event>
<event>
 7    1  0.5831876E-006  0.5809731E+02  0.7561462E-02  0.1405994E+00
         -2   -1    0    0    0  501 -0.00000000000E+00  0.00000000000E+00  0.50362283191E+03  0.50362283191E+03  0.00000000000E+00 0.  1.
          2   -1    0    0  501    0  0.00000000000E+00 -0.00000000000E+00 -0.22802055919E+02  0.22802055919E+02  0.00000000000E+00 0. -1.
         23    2    1    2    0    0 -0.79586529959E+01 -0.81372880768E+00  0.20661792099E+03  0.22493068254E+03  0.88537248445E+02 0.  0.
          5    1    1    2  502    0  0.18465619639E+02 -0.22753603510E+02  0.27375494600E+03  0.27535059186E+03  0.41800000000E+01 0. -1.
         -5    1    1    2    0  502 -0.10506966643E+02  0.23567332317E+02  0.44790900822E+00  0.26143613428E+02  0.41800000000E+01 0. -1.
        -11    1    3    3    0    0 -0.11966514993E+02 -0.29319965629E+02  0.18799905343E+03  0.19064758576E+03  0.00000000000E+00 0.  1.
         11    1    3    3    0    0  0.40078619967E+01  0.28506236821E+02  0.18618867553E+02  0.34283096774E+02  0.00000000000E+00 0. -1.
</event>
<event>
 7    1  0.5831876E-006  0.1567331E+03  0.7561462E-02  0.1192435E+00
          2   -1    0    0  501    0  0.00000000000E+00  0.00000000000E+00  0.13138831992E+04  0.13138831992E+04  0.00000000000E+00 0. -1.
         -2   -1    0    0    0  501 -0.00000000000E+00 -0.00000000000E+00 -0.22240510789E+02  0.22240510789E+02  0.00000000000E+00 0.  1.
         23    2    1    2    0    0 -0.12591582612E+03  0.34652206415E+02  0.51610271936E+03  0.53977911116E+03  0.89128565767E+02 0.  0.
          5    1    1    2  502    0  0.12609194517E+03  0.10208042132E+02  0.66564699308E+03  0.67757418381E+03  0.41800000000E+01 0. -1.
         -5    1    1    2    0  502 -0.17611904770E+00 -0.44860248547E+02  0.10989297596E+03  0.11877041502E+03  0.41800000000E+01 0. -1.
        -11    1    3    3    0    0  0.30378784625E+01  0.10126665472E+02  0.43037870018E+01  0.11414930648E+02  0.00000000000E+00 0.  1.
         11    1    3    3    0    0 -0.12895370459E+03  0.24525540943E+02  0.51179893236E+03  0.52836418051E+03  0.00000000000E+00 0. -1.
</event>
<event>
 7    1  0.5831876E-006  0.1103173E+03  0.7561462E-02  0.1259983E+00
         -1   -1    0    0    0  501 -0.00000000000E+00  0.00000000000E+00  0.41309580869E+02  0.41309580869E+02  0.00000000000E+00 0.  1.
          1   -1    0    0  501    0  0.00000000000E+00 -0.00000000000E+00 -0.55966489663E+03  0.55966489663E+03  0.00000000000E+00 0. -1.
         23    2    1    2    0    0  0.28192423500E+02  0.10355566719E+03 -0.21753587830E+03  0.25796152846E+03  0.87770740381E+02 0.  0.
          5    1    1    2  502    0 -0.14489875439E+02 -0.26266603607E+02 -0.24436575004E+03  0.24623562526E+03  0.41800000000E+01 0. -1.
         -5    1    1    2    0  502 -0.13702548061E+02 -0.77289063588E+02 -0.56453687416E+02  0.96777323772E+02  0.41800000000E+01 0. -1.
        -11    1    3    3    0    0  0.54618755681E+01  0.75205520795E+02 -0.60208536289E+02  0.96492332777E+02  0.00000000000E+00 0.  1.
         11    1    3    3    0    0  0.22730547932E+02  0.28350146399E+02 -0.15732734201E+03  0.16146919568E+03  0.00000000000E+00 0. -1.
</event>
<event>
 7    1  0.5831876E-006  0.1263355E+03  0.7561462E-02  0.1232997E+00
         -2   -1    0    0    0  501 -0.00000000000E+00  0.00000000000E+00  0.15520109180E+02  0.15520109180E+02  0.00000000000E+00 0.  1.
          2   -1    0    0  501    0  0.00000000000E+00 -0.00000000000E+00 -0.17761414494E+04  0.17761414494E+04  0.00000000000E+00 0. -1.
         23    2    1    2    0    0 -0.91746175529E+02 -0.58196403193E+01 -0.36563161316E+03  0.38806054654E+03  0.91941733182E+02 0.  0.
          5    1    1    2  502    0  0.90230515219E+02 -0.33608898324E+02 -0.60616040594E+03  0.61377439997E+03  0.41800000000E+01 0.  1.
         -5    1    1    2    0  502  0.15156603106E+01  0.39428538643E+02 -0.78882932116E+03  0.78982661211E+03  0.41800000000E+01 0.  1.
        -11    1    3    3    0    0 -0.53581840593E+02  0.32389795732E+02 -0.27928017157E+03  0.28621238048E+03  0.00000000000E+00 0. -1.
         11    1    3    3    0    0 -0.38164334936E+02 -0.38209436051E+02 -0.86351441586E+02  0.10184816605E+03  0.00000000000E+00 0.  1.
</event>
<event>
 7    1  0.5831876E-006  0.1227449E+03  0.7561462E-02  0.1238636E+00
         -2   -1    0    0    0  501 -0.00000000000E+00  0.00000000000E+00  0.48924932753E+02  0.48924932753E+02  0.00000000000E+00 0. -1.
          2   -1    0    0  501    0  0.00000000000E+00 -0.00000000000E+00 -0.49423623103E+03  0.49423623103E+03  0.00000000000E+00 0.  1.
         23    2    1    2    0    0 -0.91056385483E+02 -0.18640984676E+02 -0.96725018584E+02  0.16132509311E+03  0.89617547382E+02 0.  0.
          5    1    1    2  502    0  0.81801187476E+02 -0.19450650626E+02 -0.32537227463E+03  0.33608682149E+03  0.41800000000E+01 0. -1.
         -5    1    1    2    0  502  0.92551980064E+01  0.38091635301E+02 -0.23214005065E+02  0.45749249187E+02  0.41800000000E+01 0. -1.
        -11    1    3    3    0    0 -0.34246348824E+02  0.31184904124E+02 -0.63943600073E+02  0.78956283114E+02  0.00000000000E+00 0.  1.
         11    1    3    3    0    0 -0.56810036659E+02 -0.49825888800E+02 -0.32781418512E+02  0.82368809992E+02  0.00000000000E+00 0. -1.
</event>
<event>
 7    1  0.5831876E-006  0.1505000E+03  0.7561462E-02  0.1199860E+00
         -2   -1    0    0    0  501 -0.00000000000E+00  0.00000000000E+00  0.94337067496E+02  0.94337067496E+02  0.00000000000E+00 0.  1.
          2   -1    0    0  501    0  0.00000000000E+00 -0.00000000000E+00 -0.32416797933E+03  0.32416797933E+03  0.00000000000E+00 0. -1.
         23    2    1    2    0    0 -0.88799457124E+02  0.97573412503E+02 -0.11274796974E+03  0.20223834922E+03  0.10383800269E+03 0.  0.
          5    1    1    2  502    0  0.13976273646E+02 -0.24076757940E+02 -0.10720264074E+03  0.11083729102E+03  0.41800000000E+01 0. -1.
         -5    1    1    2    0  502  0.74823183478E+02 -0.73496654563E+02 -0.98803013464E+01  0.10542940658E+03  0.41800000000E+01 0. -1.
        -11    1    3    3    0    0  0.65186799703E+01  0.67671818768E+02 -0.44560343128E+02  0.81287098753E+02  0.00000000000E+00 0. -1.
         11    1    3    3    0    0 -0.95318137094E+02  0.29901593735E+02 -0.68187626614E+02  0.12095125047E+03  0.00000000000E+00 0.  1.
</event>
<event>
 7    1  0.5831876E-006  0.1231677E+03  0.7561462E-02  0.1237961E+00
         -2   -1    0    0    0  501 -0.00000000000E+00  0.00000000000E+00  0.28134721374E+02  0.28134721374E+02  0.00000000000E+00 0.  1.
          2   -1    0    0  501    0  0.00000000000E+00 -0.00000000000E+00 -0.57967362352E+03  0.57967362352E+03  0.00000000000E+00 0. -1.
         23    2    1    2    0    0  0.34528212732E+02 -0.56579316797E+02 -0.23315296370E+03  0.25936794027E+03  0.92293051704E+02 0.  0.
          5    1    1    2  502    0 -0.68153842543E+02 -0.78887100687E+01 -0.15470817459E+03  0.16929048906E+03  0.41800000000E+01 0.  1.
         -5    1    1    2    0  502  0.33625629811E+02  0.64468026865E+02 -0.16367776385E+03  0.17914991557E+03  0.41800000000E+01 0.  1.
        -11    1    3    3    0    0  0.61248218522E+02 -0.42659886573E+02 -0.20487387916E+03  0.21804705125E+03  0.00000000000E+00 0. -1.
         11    1    3    3    0    0 -0.26720005791E+02 -0.13919430223E+02 -0.28279084542E+02  0.41320889024E+02  0.00000000000E+00 0.  1.
</event>
<event>
 7    1  0.5831876E-006  0.1917386E+03  0.7561462E-02  0.1156902E+00
          2   -1    0    0  501    0  0.00000000000E+00  0.00000000000E+00  0.15748688366E+03  0.15748688366E+03  0.00000000000E+00 0. -1.
         -2   -1    0    0    0  501 -0.00000000000E+00 -0.00000000000E+00 -0.27518732145E+03  0.27518732145E+03  0.00000000000E+00 0.  1.
         23    2    1    2    0    0 -0.17469291562E+03 -0.77895220097E+01 -0.87811296720E+02  0.21560399201E+03  0.90531575244E+02 0.  0.
          5    1    1    2  502    0  0.15407991931E+03  0.45937756163E+02 -0.50909987982E+02  0.16870150637E+03  0.41800000000E+01 0.  1.
         -5    1    1    2    0  502  0.20612996315E+02 -0.38148234153E+02  0.21020846914E+02  0.48368706733E+02  0.41800000000E+01 0.  1.
        -11    1    3    3    0    0 -0.58406406133E+02 -0.20949601468E+02  0.10288823431E+02  0.62897169782E+02  0.00000000000E+00 0. -1.
         11    1    3    3    0    0 -0.11628650949E+03  0.13160079458E+02 -0.98100120150E+02  0.15270682222E+03  0.00000000000E+00 0.  1.
</event>
<event>
 7    1  0.5831876E-006  0.8233196E+02  0.7561462E-02  0.1322561E+00
         -2   -1    0    0    0  501 -0.00000000000E+00  0.00000000000E+00  0.21414851075E+02  0.21414851075E+02  0.00000000000E+00 0.  1.
          2   -1    0    0  501    0  0.00000000000E+00 -0.00000000000E+00 -0.59665723508E+03  0.59665723508E+03  0.00000000000E+00 0. -1.
         23    2    1    2    0    0  0.37110259546E+01 -0.85605977066E+01 -0.17873207011E+03  0.20219334431E+03  0.94074119995E+02 0.  0.
          5    1    1    2  502    0 -0.37808102773E+02  0.37766259118E+02 -0.33689306845E+03  0.34113070066E+03  0.41800000000E+01 0. -1.
         -5    1    1    2    0  502  0.34097076818E+02 -0.29205661412E+02 -0.59617245454E+02  0.74748041189E+02  0.41800000000E+01 0. -1.
        -11    1    3    3    0    0 -0.23997871381E+02  0.16083964314E+02 -0.11823854411E+02  0.31215305092E+02  0.00000000000E+00 0.  1.
         11    1    3    3    0    0  0.27708897336E+02 -0.24644562021E+02 -0.16690821570E+03  0.17097803922E+03  0.00000000000E+00 0. -1.
</event>
<event>
 6    1  0.5831876E-006  0.8559936E+02  0.7561462E-02  0.1313873E+00
          3   -1    0    0  501    0  0.00000000000E+00  0.00000000000E+00  0.87360233720E+02  0.87360233720E+02  0.00000000000E+00 0. -1.
         -3   -1    0    0    0  501 -0.00000000000E+00 -0.00000000000E+00 -0.87966251478E+02  0.87966251478E+02  0.00000000000E+00 0.  1.
          5    1    1    2  502    0  0.38302330673E+02 -0.46501158156E+02 -0.16889675879E+02  0.62706935790E+02  0.41800000000E+01 0. -1.
         -5    1    1    2    0  502 -0.76041979828E+01  0.68679959900E+02  0.52821109142E+01  0.69427183542E+02  0.41800000000E+01 0.  1.
        -11    1    1    2    0    0 -0.12656684403E+02  0.42298845935E+00  0.15012832897E+01  0.12752428428E+02  0.00000000000E+00 0.  1.
         11    1    1    2    0    0 -0.18041448288E+02 -0.22601790203E+02  0.95002639172E+01  0.30439937438E+02  0.00000000000E+00 0. -1.
</event>
<event>
 7    1  0.5831876E-006  0.2499824E+03  0.7561462E-02  0.1113316E+00
          1   -1    0    0  501    0  0.00000000000E+00  0.00000000000E+00  0.11899462446E+04  0.11899462446E+04  0.00000000000E+00 0. -1.
         -1   -1    0    0    0  501 -0.00000000000E+00 -0.00000000000E+00 -0.81458515547E+02  0.81458515547E+02  0.00000000000E+00 0.  1.
         23    2    1    2    0    0  0.22245852436E+03 -0.73415937136E+02  0.18839625461E+03  0.31375399526E+03  0.89837218928E+02 0.  0.
          5    1    1    2  502    0 -0.59458897566E+02 -0.33189957621E+02  0.30086911952E+03  0.30850710408E+03  0.41800000000E+01 0. -1.
         -5    1    1    2    0  502 -0.16299962679E+03  0.10660589476E+03  0.61922235489E+03  0.64914366078E+03  0.41800000000E+01 0. -1.
        -11    1    3    3    0    0  0.14147255436E+03 -0.28469605876E+02  0.62023718654E+02  0.15707305234E+03  0.00000000000E+00 0. -1.
         11    1    3    3    0    0  0.80985970001E+02 -0.44946331259E+02  0.12637253596E+03  0.15668094292E+03  0.00000000000E+00 0.  1.
</event>
<event>
 7    1  0.5831876E-006  0.1357260E+03  0.7561462E-02  0.1219198E+00
          2   -1    0    0  501    0  0.00000000000E+00  0.00000000000E+00  0.29521054542E+03  0.29521054542E+03  0.00000000000E+00 0. -1.
         -2   -1    0    0    0  501 -0.00000000000E+00 -0.00000000000E+00 -0.93135754815E+02  0.93135754815E+02  0.00000000000E+00 0.  1.
         23    2    1    2    0    0  0.13892484344E+02 -0.41806260671E+02  0.30779589043E+02  0.10513340851E+03  0.90359758357E+02 0.  0.
          5    1    1    2  502    0  0.67026938067E+02  0.84447526820E+02  0.15706051012E+03  0.19055044333E+03  0.41800000000E+01 0. -1.
         -5    1    1    2    0  502 -0.80919422411E+02 -0.42641266149E+02  0.14234691434E+02  0.92662448394E+02  0.41800000000E+01 0.  1.
        -11    1    3    3    0    0 -0.21364867900E+02 -0.70824513187E+01  0.47774219928E+02  0.52810934349E+02  0.00000000000E+00 0.  1.
         11    1    3    3    0    0  0.35257352244E+02 -0.34723809352E+02 -0.16994630885E+02  0.52322474159E+02  0.00000000000E+00 0. -1.
</event>
<event>
 7    1  0.2960230E-005  0.2417052E+03  0.7561462E-02  0.1118662E+00
         -1   -1    0    0    0  501 -0.00000000000E+00  0.00000000000E+00  0.78792645127E+03  0.78792645127E+03  0.00000000000E+00 0.  1.
          1   -1    0    0  501    0  0.00000000000E+00 -0.00000000000E+00 -0.86496357786E+02  0.86496357786E+02  0.00000000000E+00 0. -1.
         23    2    1    2    0    0  0.22414254416E+03  0.80197307550E+02  0.38751081671E+03  0.46106524323E+03  0.75796023689E+02 0.  0.
          5    1    1    2  502    0 -0.49192039644E+02  0.53798593869E+01  0.15244714322E+03  0.16033216623E+03  0.41800000000E+01 0.  1.
         -5    1    1    2    0  502 -0.17495050451E+03 -0.85577166936E+02  0.16147213356E+03  0.25302539961E+03  0.41800000000E+01 0.  1.
        -11    1    3    3    0    0  0.18471866125E+03  0.74213421367E+02  0.36371598334E+03  0.41462987382E+03  0.00000000000E+00 0.  1.
         11    1    3    3    0    0  0.39423882902E+02  0.59838861827E+01  0.23794833366E+02  0.46435369406E+02  0.00000000000E+00 0. -1.
</event>
<event>
 7    1  0.5831876E-006  0.1299164E+03  0.7561462E-02  0.1227580E+00
          2   -1    0    0  501    0  0.00000000000E+00  0.00000000000E+00  0.50873668235E+03  0.50873668235E+03  0.00000000000E+00 0. -1.
         -2   -1    0    0    0  501 -0.00000000000E+00 -0.00000000000E+00 -0.42538904721E+02  0.42538904721E+02  0.00000000000E+00 0.  1.
         23    2    1    2    0    0 -0.26045736129E+02  0.93295518178E+02  0.23411832528E+03  0.27040062668E+03  0.94459909978E+02 0.  0.
          5    1    1    2  502    0  0.73240053945E+02 -0.34752553574E+02  0.99650372359E+02  0.12852826379E+03  0.41800000000E+01 0. -1.
         -5    1    1    2    0  502 -0.47194317816E+02 -0.58542964604E+02  0.13242907999E+03  0.15234669660E+03  0.41800000000E+01 0. -1.
        -11    1    3    3    0    0  0.80831190175E+01  0.33826841454E+02  0.17922394841E+03  0.18256729088E+03  0.00000000000E+00 0. -1.
         11    1    3    3    0    0 -0.34128855146E+02  0.59468676724E+02  0.54894376863E+02  0.87833335790E+02  0.00000000000E+00 0.  1.
</event>
<event>
 7    1  0.5831876E-006  0.1034463E+03  0.7561462E-02  0.1273211E+00
         -1   -1    0    0    0  501 -0.00000000000E+00  0.00000000000E+00  0.13717609041E+03  0.13717609041E+03  0.00000000000E+00 0.  1.
          1   -1    0    0  501    0  0.00000000000E+00 -0.00000000000E+00 -0.14483995674E+03  0.14483995674E+03  0.00000000000E+00 0. -1.
         23    2    1    2    0    0  0.29891797688E+02 -0.85452006639E+02 -0.79086536910E+01  0.12760970872E+03  0.89588648556E+02 0.  0.
          5    1    1    2  502    0  0.10779056460E+02  0.59718801225E+02  0.54562871671E+02  0.81713540144E+02  0.41800000000E+01 0.  1.
         -5    1    1    2    0  502 -0.40670854148E+02  0.25733205413E+02 -0.54318084308E+02  0.72692798274E+02  0.41800000000E+01 0.  1.
        -11    1    3    3    0    0  0.37984120466E+02 -0.59673608572E+02 -0.43411019463E+02  0.82995479265E+02  0.00000000000E+00 0. -1.
         11    1    3    3    0    0 -0.80923227783E+01 -0.25778398067E+02  0.35502365772E+02  0.44614229460E+02  0.00000000000E+00 0.  1.
</event>
<event>
 7    1  0.5831876E-006  0.1305751E+03  0.7561462E-02  0.1226605E+00
          1   -1    0    0  501    0  0.00000000000E+00  0.00000000000E+00  0.34051506811E+03  0.34051506811E+03  0.00000000000E+00 0. -1.
         -1   -1    0    0    0  501 -0.00000000000E+00 -0.00000000000E+00 -0.76807396280E+02  0.76807396280E+02  0.00000000000E+00 0.  1.
         23    2    1    2    0    0  0.33721658795E+01 -0.99786570048E+02  0.39115631546E+02  0.14153718974E+03  0.92379718461E+02 0.  0.
          5    1    1    2  502    0 -0.58250647588E+02  0.20438184732E+02  0.69159918150E+02  0.92797758691E+02  0.41800000000E+01 0.  1.
         -5    1    1    2    0  502  0.54878481709E+02  0.79348385316E+02  0.15543212214E+03  0.18298751596E+03  0.41800000000E+01 0.  1.
        -11    1    3    3    0    0 -0.10476899172E+02 -0.43438026309E+02  0.64284119658E+02  0.78288412848E+02  0.00000000000E+00 0. -1.
         11    1    3    3    0    0  0.13849065052E+02 -0.56348543738E+02 -0.25168488112E+02  0.63248776890E+02  0.00000000000E+00 0.  1.
</event>
<event>
 7    1  0.5831876E-006  0.8731636E+02  0.7561462E-02  0.1309484E+00
         -1   -1    0    0    0  501 -0.00000000000E+00  0.00000000000E+00  0.19749489093E+03  0.19749489093E+03  0.00000000000E+00 0.  1.
          1   -1    0    0  501    0  0.00000000000E+00 -0.00000000000E+00 -0.72742974749E+02  0.72742974749E+02  0.00000000000E+00 0. -1.
         23    2    1    2    0    0 -0.19704173547E+02  0.26884411244E+02  0.10045426747E+03  0.13852054726E+03  0.89363617516E+02 0.  0.
          5    1    1    2  502    0  0.62031899285E+02  0.20437266073E+02  0.72509799606E+01  0.65845937489E+02  0.41800000000E+01 0. -1.
         -5    1    1    2    0  502 -0.42327725738E+02 -0.47321677317E+02  0.17046668742E+02  0.65871380929E+02  0.41800000000E+01 0. -1.
        -11    1    3    3    0    0  0.84940215663E+01  0.76030024822E+01 -0.14587918147E+02  0.18513816596E+02  0.00000000000E+00 0. -1.
         11    1    3    3    0    0 -0.28198195113E+02  0.19281408762E+02  0.11504218562E+03  0.12000673066E+03  0.00000000000E+00 0.  1.
</event>
<event>
 7    1  0.6583433E-006  0.2024292E+03  0.7561462E-02  0.1147706E+00
         -4   -1    0    0    0  501 -0.00000000000E+00  0.00000000000E+00  0.14619963401E+03  0.14619963401E+03  0.00000000000E+00 0.  1.
          4   -1    0    0  501    0  0.00000000000E+00 -0.00000000000E+00 -0.37093625791E+03  0.37093625791E+03  0.00000000000E+00 0. -1.
         23    2    1    2    0    0 -0.90749482661E+02  0.16000012201E+03 -0.60086725420E+01  0.20516609647E+03  0.90672572183E+02 0.  0.
          5    1    1    2  502    0  0.93623749919E+02 -0.41868527054E+02 -0.12016637110E+03  0.15803736663E+03  0.41800000000E+01 0. -1.
         -5    1    1    2    0  502 -0.28742672584E+01 -0.11813159496E+03 -0.98561580254E+02  0.15393242882E+03  0.41800000000E+01 0. -1.
        -11    1    3    3    0    0 -0.30602024124E+02  0.57137714699E+02  0.41415578950E+02  0.76918479583E+02  0.00000000000E+00 0.  1.
         11    1    3    3    0    0 -0.60147458537E+02  0.10286240731E+03 -0.47424251492E+02  0.12824761688E+03  0.00000000000E+00 0. -1.
</event>
<event>
 7    1  0.5831876E-006  0.9743525E+02  0.7561462E-02  0.1285784E+00
         -2   -1    0    0    0  501 -0.00000000000E+00  0.00000000000E+00  0.56586746207E+02  0.56586746207E+02  0.00000000000E+00 0.  1.
          2   -1    0    0  501    0  0.00000000000E+00 -0.00000000000E+00 -0.30305257411E+03  0.30305257411E+03  0.00000000000E+00 0. -1.
         23    2    1    2    0    0  0.20164708411E+02  0.64378000129E+02 -0.63501949399E+02  0.12796209772E+03  0.88264707039E+02 0.  0.
          5    1    1    2  502    0 -0.34979519887E+02 -0.79413181548E+02 -0.19009704619E+03  0.20900808497E+03  0.41800000000E+01 0. -1.
         -5    1    1    2    0  502  0.14814811477E+02  0.15035181419E+02  0.71331676858E+01  0.22669137624E+02  0.41800000000E+01 0. -1.
        -11    1    3    3    0    0  0.14014841843E+02  0.73858322667E+02 -0.13100252124E+02  0.76309135919E+02  0.00000000000E+00 0.  1.
         11    1    3    3    0    0  0.61498665677E+01 -0.94803225376E+01 -0.50401697275E+02  0.51652961797E+02  0.00000000000E+00 0. -1.
</event>
<event>
 7    1  0.5831876E-006  0.2245546E+03  0.7561462E-02  0.1130532E+00
         -1   -1    0    0    0  501 -0.00000000000E+00  0.00000000000E+00  0.27996880662E+03  0.27996880662E+03  0.00000000000E+00 0.  1.
          1   -1    0    0  501    0  0.00000000000E+00 -0.00000000000E+00 -0.25363469388E+03  0.25363469388E+03  0.00000000000E+00 0. -1.
         23    2    1    2    0    0 -0.12102608487E+03  0.18594328256E+03  0.11215063274E+03  0.26483985537E+03  0.91324514880E+02 0.  0.
          5    1    1    2  502    0  0.26801405477E+02 -0.82293686681E+02 -0.94679735590E+02  0.12834442308E+03  0.41800000000E+01 0. -1.
         -5    1    1    2    0  502  0.94224679396E+02 -0.10364959587E+03  0.88632155814E+01  0.14041922205E+03  0.41800000000E+01 0. -1.
        -11    1    3    3    0    0 -0.66495260604E+02  0.11501525963E+03  0.16509511935E+02  0.13387566476E+03  0.00000000000E+00 0. -1.
         11    1    3    3    0    0 -0.54530824269E+02  0.70928022927E+02  0.95641120810E+02  0.13096419061E+03  0.00000000000E+00 0.  1.
</event>
<event>
 7    1  0.5831876E-006  0.1550637E+03  0.7561462E-02  0.1194385E+00
         -2   -1    0    0    0  501 -0.00000000000E+00  0.00000000000E+00  0.88086246546E+02  0.88086246546E+02  0.00000000000E+00 0.  1.
          2   -1    0    0  501    0  0.00000000000E+00 -0.00000000000E+00 -0.34182772851E+03  0.34182772851E+03  0.00000000000E+00 0. -1.
         23    2    1    2    0    0 -0.11171993089E+03  0.50727157584E+02 -0.53122641578E+02  0.16355654496E+03  0.94202658548E+02 0.  0.
          5    1    1    2  502    0  0.13626495591E+03 -0.23558098547E+02 -0.15739817084E+03  0.20955853311E+03  0.41800000000E+01 0. -1.
         -5    1    1    2    0  502 -0.24545025020E+02 -0.27169059037E+02 -0.43220669549E+02  0.56798896982E+02  0.41800000000E+01 0. -1.
        -11    1    3    3    0    0 -0.83691407421E+02  0.83350990361E+01 -0.70605976352E+02  0.10981315699E+03  0.00000000000E+00 0. -1.
         11    1    3    3    0    0 -0.28028523470E+02  0.42392058548E+02  0.17483334774E+02  0.53743387972E+02  0.00000000000E+00 0.  1.
</event>
<event>
 6    1  0.5831876E-006  0.5570373E+02  0.7561462E-02  0.1416800E+00
          2   -1    0    0  501    0  0.00000000000E+00  0.00000000000E+00  0.12419030562E+03  0.12419030562E+03  0.00000000000E+00 0. -1.
         -2   -1    0    0    0  501 -0.00000000000E+00 -0.00000000000E+00 -0.61138361453E+02  0.61138361453E+02  0.00000000000E+00 0.  1.
          5    1    1    2  502    0 -0.22961925612E+02 -0.31650838356E+02  0.97383888158E+02  0.10502437655E+03  0.41800000000E+01 0. -1.
         -5    1    1    2    0  502  0.11713485565E+02  0.25714391231E+02 -0.16106762272E+02  0.32792313907E+02  0.41800000000E+01 0.  1.
        -11    1    1    2    0    0 -0.35812427691E+01 -0.16355926670E+02 -0.10001317484E+02  0.19503025110E+02  0.00000000000E+00 0. -1.
         11    1    1    2    0    0  0.14829682815E+02  0.22292373795E+02 -0.82238642334E+01  0.28008951511E+02  0.00000000000E+00 0.  1.
</event>
<event>
 7    1  0.5831876E-006  0.7916017E+02  0.7561462E-02  0.1331452E+00
          1   -1    0    0  501    0  0.00000000000E+00  0.00000000000E+00  0.16873527518E+03  0.16873527518E+03  0.00000000000E+00 0. -1.
         -1   -1    0    0    0  501 -0.00000000000E+00 -0.00000000000E+00 -0.82995488880E+02  0.82995488880E+02  0.00000000000E+00 0.  1.
         23    2    1    2    0    0 -0.50130832932E+01  0.37812020468E+02  0.73237632442E+01  0.99243508430E+02  0.91327742562E+02 0.  0.
          5    1    1    2  502    0 -0.48773757879E+02  0.74295643031E+01  0.63490505348E+02  0.80514561122E+02  0.41800000000E+01 0. -1.
         -5    1    1    2    0  502  0.53786841172E+02 -0.45241584772E+02  0.14925517707E+02  0.71972694508E+02  0.41800000000E+01 0. -1.
        -11    1    3    3    0    0 -0.58854889330E+00  0.21194219487E+02 -0.41977999411E+02  0.47028648333E+02  0.00000000000E+00 0.  1.
         11    1    3    3    0    0 -0.44245343999E+01  0.16617800981E+02  0.49301762655E+02  0.52214860097E+02  0.00000000000E+00 0. -1.
</event>
<event>
 7    1  0.5831876E-006  0.9761210E+02  0.7561462E-02  0.1285399E+00
          1   -1    0    0  501    0  0.00000000000E+00  0.00000000000E+00  0.22137883333E+03  0.22137883333E+03  0.00000000000E+00 0. -1.
         -1   -1    0    0    0  501 -0.00000000000E+00 -0.00000000000E+00 -0.55489123982E+02  0.55489123982E+02  0.00000000000E+00 0.  1.
         23    2    1    2    0    0 -0.29495141280E+01 -0.17821333539E+02  0.91857326668E+02  0.13036603945E+03  0.90726160602E+02 0.  0.
          5    1    1    2  502    0 -0.49159281491E+02  0.18754389838E+01  0.77331329036E+02  0.91748346462E+02  0.41800000000E+01 0. -1.
         -5    1    1    2    0  502  0.52108795619E+02  0.15945894555E+02 -0.32989463515E+01  0.54753571400E+02  0.41800000000E+01 0. -1.
        -11    1    3    3    0    0 -0.23847956071E+02 -0.48518179572E+02  0.64956600130E+02  0.84510938098E+02  0.00000000000E+00 0. -1.
         11    1    3    3    0    0  0.20898441943E+02  0.30696846034E+02  0.26900726538E+02  0.45855101355E+02  0.00000000000E+00 0.  1.
</event>
<event>
 7    1  0.5831876E-006  0.8543941E+02  0.7561462E-02  0.1314287E+00
          1   -1    0    0  501    0  0.00000000000E+00  0.00000000000E+00  0.64016385632E+02  0.64016385632E+02  0.00000000000E+00 0. -1.
         -1   -1    0    0    0  501 -0.00000000000E+00 -0.00000000000E+00 -0.25655361732E+03  0.25655361732E+03  0.00000000000E+00 0.  1.
         23    2    1    2    0    0  0.36901650660E+02  0.31545752933E+02 -0.14479382964E+03  0.17814941610E+03  0.91733826950E+02 0.  0.
          5    1    1    2  502    0 -0.43738096380E+02 -0.61749747833E+02 -0.70701533226E+02  0.10364473760E+03  0.41800000000E+01 0. -1.
         -5    1    1    2    0  502  0.68364457200E+01  0.30203994900E+02  0.22958131173E+02  0.38775849248E+02  0.41800000000E+01 0. -1.
        -11    1    3    3    0    0  0.10466756091E+02  0.35593850587E+02 -0.69636507986E+01  0.37748743225E+02  0.00000000000E+00 0. -1.
         11    1    3    3    0    0  0.26434894570E+02 -0.40480976534E+01 -0.13783017884E+03  0.14040067288E+03  0.00000000000E+00 0.  1.
</event>
<event>
 7    1  0.5831876E-006  0.1093717E+03  0.7561462E-02  0.1261738E+00
          2   -1    0    0  501    0  0.00000000000E+00  0.00000000000E+00  0.26957390194E+03  0.26957390194E+03  0.00000000000E+00 0. -1.
         -2   -1    0    0    0  501 -0.00000000000E+00 -0.00000000000E+00 -0.56785354065E+02  0.56785354065E+02  0.00000000000E+00 0.  1.
         23    2    1    2    0    0  0.17802974659E+02  0.42145918149E+02  0.41818264768E+02  0.10963118470E+03  0.90426793966E+02 0.  0.
          5    1    1    2  502    0 -0.59982098994E+02 -0.50226342493E+02  0.63261210757E+02  0.10069752165E+03  0.41800000000E+01 0. -1.
         -5    1    1    2    0  502  0.42179124335E+02  0.80804243433E+01  0.10770907235E+03  0.11603054966E+03  0.41800000000E+01 0. -1.
        -11    1    3    3    0    0  0.50706680625E+02  0.10883248545E+02  0.68007096191E+01  0.52305470175E+02  0.00000000000E+00 0.  1.
         11    1    3    3    0    0 -0.32903705966E+02  0.31262669604E+02  0.35017555148E+02  0.57325714524E+02  0.00000000000E+00 0. -1.
</event>
<event>
 7    1  0.5831876E-006  0.2315253E+03  0.7561462E-02  0.1125571E+00
          2   -1    0    0  501    0  0.00000000000E+00  0.00000000000E+00  0.16581175616E+04  0.16581175616E+04  0.00000000000E+00 0. -1.
         -2   -1    0    0    0  501 -0.00000000000E+00 -0.00000000000E+00 -0.46988147614E+02  0.46988147614E+02  0.00000000000E+00 0.  1.
         23    2    1    2    0    0 -0.20245288629E+03 -0.84682995112E+02  0.37854173491E+03  0.44687601342E+03  0.90807188434E+02 0.  0.
          5    1    1    2  502    0  0.21884509009E+02 -0.88698531836E+01  0.41595798156E+03  0.41664867797E+03  0.41800000000E+01 0. -1.
         -5    1    1    2    0  502  0.18056837728E+03  0.93552848295E+02  0.81662969746E+03  0.84158101777E+03  0.41800000000E+01 0. -1.
        -11    1    3    3    0    0 -0.12809249822E+03 -0.96492969695E+02  0.28242059879E+03  0.32477680940E+03  0.00000000000E+00 0. -1.
         11    1    3    3    0    0 -0.74360388071E+02  0.11809974583E+02  0.96121136118E+02  0.12209920402E+03  0.00000000000E+00 0.  1.
</event>
<event>
 7    1  0.5831876E-006  0.2345658E+03  0.7561462E-02  0.1123467E+00
          3   -1    0    0  501    0  0.00000000000E+00  0.00000000000E+00  0.10903772253E+03  0.10903772253E+03  0.00000000000E+00 0. -1.
         -3   -1    0    0    0  501 -0.00000000000E+00 -0.00000000000E+00 -0.55556334045E+03  0.55556334045E+03  0.00000000000E+00 0.  1.
         23    2    1    2    0    0 -0.11033439688E+03 -0.19062937987E+03 -0.23284936333E+03  0.33321297863E+03  0.91097878808E+02 0.  0.
          5    1    1    2  502    0  0.86938129075E+02  0.81926297232E+02 -0.41782388198E+02  0.12662305015E+03  0.41800000000E+01 0. -1.
         -5    1    1    2    0  502  0.23396267806E+02  0.10870308264E+03 -0.17189386640E+03  0.20476503419E+03  0.41800000000E+01 0. -1.
        -11    1    3    3    0    0 -0.12608320606E+03 -0.15836056578E+03 -0.19940980901E+03  0.28414664449E+03  0.00000000000E+00 0. -1.
         11    1    3    3    0    0  0.15748809182E+02 -0.32268814089E+02 -0.33439554314E+02  0.49066334141E+02  0.00000000000E+00 0.  1.
</event>
<event>
 7    1  0.5831876E-006  0.9637273E+02  0.7561462E-02  0.1288114E+00
          1   -1    0    0  501    0  0.00000000000E+00  0.00000000000E+00  0.53336320199E+03  0.53336320199E+03  0.00000000000E+00 0. -1.
         -1   -1    0    0    0  501 -0.00000000000E+00 -0.00000000000E+00 -0.31210580783E+02  0.31210580783E+02  0.00000000000E+00 0.  1.
         23    2    1    2    0    0 -0.42513638886E+02 -0.38774888490E+02  0.14345587061E+03  0.18031683680E+03  0.92863735393E+02 0.  0.
          5    1    1    2  502    0 -0.14015914250E+02  0.27099059051E+02  0.12464474326E+02  0.33221083275E+02  0.41800000000E+01 0. -1.
         -5    1    1    2    0  502  0.56529553136E+02  0.11675829439E+02  0.34623227627E+03  0.35103586270E+03  0.41800000000E+01 0. -1.
        -11    1    3    3    0    0  0.18184929820E+02  0.14544495901E+02  0.12458821018E+02  0.26409397092E+02  0.00000000000E+00 0. -1.
         11    1    3    3    0    0 -0.60698568705E+02 -0.53319384392E+02  0.13099704959E+03  0.15390743971E+03  0.00000000000E+00 0.  1.
</event>
<event>
 7    1  0.5831876E-006  0.1894972E+03  0.7561462E-02  0.1158916E+00
          2   -1    0    0  501    0  0.00000000000E+00  0.00000000000E+00  0.55747297818E+03  0.55747297818E+03  0.00000000000E+00 0. -1.
         -2   -1    0    0    0  501 -0.00000000000E+00 -0.00000000000E+00 -0.73169071199E+02  0.73169071199E+02  0.00000000000E+00 0.  1.
         23    2    1    2    0    0  0.61493488618E+02 -0.15740166742E+03  0.26489253296E+03  0.32675771831E+03  0.89698486094E+02 0.  0.
          5    1    1    2  502    0  0.34275476858E+02  0.77824812164E+02  0.99679209318E+02  0.13109129213E+03  0.41800000000E+01 0. -1.
         -5    1    1    2    0  502 -0.95768965476E+02  0.79576855258E+02  0.11973216470E+03  0.17279303894E+03  0.41800000000E+01 0. -1.
        -11    1    3    3    0    0  0.33401923432E+02 -0.72145885961E+02  0.20219837989E+03  0.21726689159E+03  0.00000000000E+00 0. -1.
         11    1    3    3    0    0  0.28091565187E+02 -0.85255781461E+02  0.62694153068E+02  0.10949082672E+03  0.00000000000E+00 0.  1.
</event>
<event>
 7    1  0.5831876E-006  0.1579526E+03  0.7561462E-02  0.1191028E+00
          2   -1    0    0  501    0  0.00000000000E+00  0.00000000000E+00  0.52731048176E+03  0.52731048176E+03  0.00000000000E+00 0. -1.
         -2   -1    0    0    0  501 -0.00000000000E+00 -0.00000000000E+00 -0.52981787688E+02  0.52981787688E+02  0.00000000000E+00 0.  1.
         23    2    1    2    0    0  0.11072709519E+02 -0.12389512443E+03  0.26426226364E+03  0.30597945136E+03  0.91193606793E+02 0.  0.
          5    1    1    2  502    0  0.15086824869E+02  0.14137307176E+03  0.15222293693E+03  0.20833447298E+03  0.41800000000E+01 0.  1.
         -5    1    1    2    0  502 -0.26159534388E+02 -0.17477947332E+02  0.57843493498E+02  0.65978345102E+02  0.41800000000E+01 0.  1.
        -11    1    3    3    0    0  0.85783150171E+01  0.69629610202E+01 -0.37080186341E-01  0.11048605778E+02  0.00000000000E+00 0.  1.
         11    1    3    3    0    0  0.24943945021E+01 -0.13085808545E+03  0.26429934382E+03  0.29493084558E+03  0.00000000000E+00 0. -1.
</event>
<event>
 7    1  0.5831876E-006  0.1232389E+03  0.7561462E-02  0.1237848E+00
          2   -1    0    0  501    0  0.00000000000E+00  0.00000000000E+00  0.69756825261E+03  0.69756825261E+03  0.00000000000E+00 0. -1.
         -2   -1    0    0    0  501 -0.00000000000E+00 -0.00000000000E+00 -0.41191943547E+02  0.41191943547E+02  0.00000000000E+00 0.  1.
         23    2    1    2    0    0  0.99960785179E+01  0.83657648299E+02  0.90468344984E+02  0.15309937387E+03  0.90312641042E+02 0.  0.
          5    1    1    2  502    0 -0.54952907344E+02 -0.27404905665E+02  0.40060305942E+03  0.40530375584E+03  0.41800000000E+01 0. -1.
         -5    1    1    2    0  502  0.44956828826E+02 -0.56252742634E+02  0.16530490465E+03  0.18035706644E+03  0.41800000000E+01 0. -1.
        -11    1    3    3    0    0  0.24113026123E+02  0.92863801278E+02  0.47734179777E+02  0.10716191271E+03  0.00000000000E+00 0.  1.
         11    1    3    3    0    0 -0.14116947605E+02 -0.92061529788E+01  0.42734165206E+02  0.45937461165E+02  0.00000000000E+00 0. -1.
</event>
<event>
 7    1  0.5831876E-006  0.6703128E+02  0.7561462E-02  0.1370490E+00
          2   -1    0    0  501    0  0.00000000000E+00  0.00000000000E+00  0.11529909514E+03  0.11529909514E+03  0.00000000000E+00 0.  1.
         -2   -1    0    0    0  501 -0.00000000000E+00 -0.00000000000E+00 -0.12143033012E+03  0.12143033012E+03  0.00000000000E+00 0. -1.
         23    2    1    2    0    0  0.49686263940E+01  0.46052053677E+02 -0.59391907870E+01  0.10334296230E+03  0.92190102359E+02 0.  0.
          5    1    1    2  502    0  0.11176375277E+02 -0.34936869326E+02 -0.59922987856E+02  0.70382761215E+02  0.41800000000E+01 0.  1.
         -5    1    1    2    0  502 -0.16145001671E+02 -0.11115184351E+02  0.59730943665E+02  0.63003701742E+02  0.41800000000E+01 0.  1.
        -11    1    3    3    0    0 -0.27367535716E+02  0.31248468791E+02  0.31178365827E+02  0.51937840815E+02  0.00000000000E+00 0.  1.
         11    1    3    3    0    0  0.32336162110E+02  0.14803584886E+02 -0.37117556614E+02  0.51405121481E+02  0.00000000000E+00 0. -1.
</event>
<event>
 7    1  0.5831876E-006  0.1452771E+03  0.7561462E-02  0.1206400E+00
         -2   -1    0    0    0  501 -0.00000000000E+00  0.00000000000E+00  0.83425768784E+02  0.83425768784E+02  0.00000000000E+00 0.  1.
          2   -1    0    0  501    0  0.00000000000E+00 -0.00000000000E+00 -0.29481953538E+03  0.29481953538E+03  0.00000000000E+00 0. -1.
         23    2    1    2    0    0  0.43065529306E+02  0.10297343094E+03 -0.79217338269E+02  0.16475581439E+03  0.91711092021E+02 0.  0.
          5    1    1    2  502    0  0.13933595730E+02 -0.87640942080E+02 -0.12575303284E+03  0.15396875491E+03  0.41800000000E+01 0.  1.
         -5    1    1    2    0  502 -0.56999125036E+02 -0.15332488855E+02 -0.64233954810E+01  0.59520734865E+02  0.41800000000E+01 0.  1.
        -11    1    3    3    0    0 -0.23821903603E+02  0.55857655220E+02 -0.47146550500E+02  0.76878852502E+02  0.00000000000E+00 0. -1.
         11    1    3    3    0    0  0.66887432909E+02  0.47115775715E+02 -0.32070787768E+02  0.87876961887E+02  0.00000000000E+00 0.  1.
</event>
<event>
 7    1  0.5831876E-006  0.2208365E+03  0.7561462E-02  0.1133261E+00
          2   -1    0    0  501    0  0.00000000000E+00  0.00000000000E+00  0.11650396964E+04  0.11650396964E+04  0.00000000000E+00 0. -1.
         -2   -1    0    0    0  501 -0.00000000000E+00 -0.00000000000E+00 -0.51624742310E+02  0.51624742310E+02  0.00000000000E+00 0.  1.
         23    2    1    2    0    0  0.17116990902E+03 -0.13600840604E+03  0.48104748099E+03  0.53598106316E+03  0.89842066023E+02 0.  0.
          5    1    1    2  502    0 -0.74926066443E+02  0.63609399593E+02  0.45978904332E+03  0.47019518065E+03  0.41800000000E+01 0. -1.
         -5    1    1    2    0  502 -0.96243842573E+02  0.72399006447E+02  0.17257842976E+03  0.21048819488E+03  0.41800000000E+01 0. -1.
        -11    1    3    3    0    0  0.12430241709E+03 -0.72628636073E+02  0.21695579153E+03  0.26037631449E+03  0.00000000000E+00 0.  1.
         11    1    3    3    0    0  0.46867491924E+02 -0.63379769968E+02  0.26409168946E+03  0.27560474866E+03  0.00000000000E+00 0. -1.
</event>
<event>
 7    1  0.5831876E-006  0.9601812E+02  0.7561462E-02  0.1288899E+00
          2   -1    0    0  501    0  0.00000000000E+00  0.00000000000E+00  0.57175241348E+03  0.57175241348E+03  0.00000000000E+00 0.  1.
         -2   -1    0    0    0  501 -0.00000000000E+00 -0.00000000000E+00 -0.29912028537E+02  0.29912028537E+02  0.00000000000E+00 0. -1.
         23    2    1    2    0    0  0.36897409999E+02 -0.56157715481E+02  0.17736559048E+03  0.21050666206E+03  0.91320283673E+02 0.  0.
          5    1    1    2  502    0 -0.11893286391E+02  0.52529198533E+02  0.44030114886E+02  0.69691393849E+02  0.41800000000E+01 0. -1.
         -5    1    1    2    0  502 -0.25004123607E+02  0.36285169478E+01  0.32044467958E+03  0.32146638612E+03  0.41800000000E+01 0. -1.
        -11    1    3    3    0    0  0.58654550151E+02 -0.75338522155E+01  0.79500556841E+02  0.99083064752E+02  0.00000000000E+00 0.  1.
         11    1    3    3    0    0 -0.21757140153E+02 -0.48623863265E+02  0.97865033641E+02  0.11142359730E+03  0.00000000000E+00 0. -1.
</event>
<event>
 7    1  0.5831876E-006  0.1271860E+03  0.7561462E-02  0.1231692E+00
         -2   -1    0    0    0  501 -0.00000000000E+00  0.00000000000E+00  0.30932565634E+02  0.30932565634E+02  0.00000000000E+00 0.  1.
          2   -1    0    0  501    0  0.00000000000E+00 -0.00000000000E+00 -0.84749368225E+03  0.84749368225E+03  0.00000000000E+00 0. -1.
         23    2    1    2    0    0 -0.95765652072E+02  0.78906572906E+01 -0.19037121102E+03  0.23267400127E+03  0.93073467172E+02 0.  0.
          5    1    1    2  502    0 -0.30655804055E+02 -0.36338789827E+01 -0.11903466634E+03  0.12304351908E+03  0.41800000000E+01 0.  1.
         -5    1    1    2    0  502  0.12642145613E+03 -0.42567783079E+01 -0.50715523925E+03  0.52270872753E+03  0.41800000000E+01 0.  1.
        -11    1    3    3    0    0 -0.30471350132E+02  0.74201699280E+01  0.57296930542E-01  0.31361845985E+02  0.00000000000E+00 0. -1.
         11    1    3    3    0    0 -0.65294301939E+02  0.47048736264E+00 -0.19042850795E+03  0.20131215529E+03  0.00000000000E+00 0.  1.
</event>
<event>
 7    1  0.5831876E-006  0.6606449E+02  0.7561462E-02  0.1374011E+00
          3   -1    0    0  501    0  0.00000000000E+00  0.00000000000E+00  0.63338747802E+03  0.63338747802E+03  0.00000000000E+00 0. -1.
         -3   -1    0    0    0  501 -0.00000000000E+00 -0.00000000000E+00 -0.28997368304E+02  0.28997368304E+02  0.00000000000E+00 0.  1.
         23    2    1    2    0    0 -0.21062771465E+02  0.34588831659E+02  0.97901402632E+02  0.13910853441E+03  0.90146947208E+02 0.  0.
          5    1    1    2  502    0  0.40936089303E+02 -0.30480280468E+02  0.72323546421E+02  0.88617033756E+02  0.41800000000E+01 0. -1.
         -5    1    1    2    0  502 -0.19873317838E+02 -0.41085511910E+01  0.43416516066E+03  0.43465927816E+03  0.41800000000E+01 0. -1.
        -11    1    3    3    0    0  0.14073843301E+02  0.85442569185E+01 -0.12295862524E+02  0.20549102821E+02  0.00000000000E+00 0.  1.
         11    1    3    3    0    0 -0.35136614766E+02  0.26044574741E+02  0.11019726516E+03  0.11855943159E+03  0.00000000000E+00 0. -1.
</event>
<event>
 7    1  0.1018709E-005  0.1461901E+03  0.7561462E-02  0.1205234E+00
          1   -1    0    0  501    0  0.00000000000E+00  0.00000000000E+00  0.95303236897E+03  0.95303236897E+03  0.00000000000E+00 0. -1.
         -1   -1    0    0    0  501 -0.00000000000E+00 -0.00000000000E+00 -0.30912561647E+02  0.30912561647E+02  0.00000000000E+00 0.  1.
         23    2    1    2    0    0  0.72876619146E+02  0.11263800201E+03  0.49118500981E+03  0.51559564205E+03  0.81103829316E+02 0.  0.
          5    1    1    2  502    0 -0.24461208554E+02  0.64405369874E+01  0.88781711359E+01  0.27131633997E+02  0.41800000000E+01 0.  1.
         -5    1    1    2    0  502 -0.48415410592E+02 -0.11907853899E+03  0.42205662638E+03  0.44121765457E+03  0.41800000000E+01 0.  1.
        -11    1    3    3    0    0  0.55866004836E+02  0.56439794408E+02  0.15331246631E+03  0.17265912433E+03  0.00000000000E+00 0.  1.
         11    1    3    3    0    0  0.17010614310E+02  0.56198207599E+02  0.33787254350E+03  0.34293651772E+03  0.00000000000E+00 0. -1.
</event>
<event>
 7    1  0.5831876E-006  0.9382471E+02  0.7561462E-02  0.1293845E+00
          1   -1    0    0  501    0  0.00000000000E+00  0.00000000000E+00  0.15418237831E+03  0.15418237831E+03  0.00000000000E+00 0. -1.
         -1   -1    0    0    0  501 -0.00000000000E+00 -0.00000000000E+00 -0.17573692411E+03  0.17573692411E+03  0.00000000000E+00 0.  1.
         23    2    1    2    0    0 -0.14771541154E+02 -0.63122934950E+02 -0.12145968045E+03  0.16513438026E+03  0.91182269244E+02 0.  0.
          5    1    1    2  502    0  0.29362785181E+02  0.32493676646E+02  0.11812298436E+03  0.12604968865E+03  0.41800000000E+01 0. -1.
         -5    1    1    2    0  502 -0.14591244028E+02  0.30629258304E+02 -0.18217849713E+02  0.38735233505E+02  0.41800000000E+01 0.  1.
        -11    1    3    3    0    0  0.22382453522E+02  0.12194327512E+02 -0.44183975075E+02  0.51008817891E+02  0.00000000000E+00 0. -1.
         11    1    3    3    0    0 -0.37153994676E+02 -0.75317262463E+02 -0.77275705375E+02  0.11412556237E+03  0.00000000000E+00 0.  1.
</event>
<event>
 7    1  0.5831876E-006  0.1484197E+03  0.7561462E-02  0.1202428E+00
          1   -1    0    0  501    0  0.00000000000E+00  0.00000000000E+00  0.31638397649E+03  0.31638397649E+03  0.00000000000E+00 0. -1.
         -1   -1    0    0    0  501 -0.00000000000E+00 -0.00000000000E+00 -0.91595724283E+02  0.91595724283E+02  0.00000000000E+00 0.  1.
         23    2    1    2    0    0  0.12012629949E+03 -0.19403664866E+02  0.51447426994E+02  0.16200959725E+03  0.93773353448E+02 0.  0.
          5    1    1    2  502    0  0.84337098921E+01 -0.73968787964E+01  0.89083997915E+02  0.89884772698E+02  0.41800000000E+01 0.  1.
         -5    1    1    2    0  502 -0.12856000938E+03  0.26800543662E+02  0.84256827296E+02  0.15608533083E+03  0.41800000000E+01 0.  1.
        -11    1    3    3    0    0  0.85549360040E+02 -0.56689164254E+02  0.31060620920E+02  0.10722460780E+03  0.00000000000E+00 0. -1.
         11    1    3    3    0    0  0.34576939450E+02  0.37285499388E+02  0.20386806074E+02  0.54784989443E+02  0.00000000000E+00 0.  1.
</event>
<event>
 7    1  0.5831876E-006  0.1293854E+03  0.7561462E-02  0.1228371E+00
         -1   -1    0    0    0  501 -0.00000000000E+00  0.00000000000E+00  0.17017434952E+03  0.17017434952E+03  0.00000000000E+00 0.  1.
          1   -1    0    0  501    0  0.00000000000E+00 -0.00000000000E+00 -0.11357517630E+03  0.11357517630E+03  0.00000000000E+00 0. -1.
         23    2    1    2    0    0 -0.55006698610E+02  0.50308362386E+02  0.70988207487E+02  0.13741958364E+03  0.91039267060E+02 0.  0.
          5    1    1    2  502    0 -0.37653533255E+02  0.17387413617E+01  0.48862054272E+01  0.38238190223E+02  0.41800000000E+01 0.  1.
         -5    1    1    2    0  502  0.92660231865E+02 -0.52047103747E+02 -0.19275239692E+02  0.10809175197E+03  0.41800000000E+01 0.  1.
        -11    1    3    3    0    0  0.19275452346E+02  0.32996409503E+02  0.39330205952E+02  0.54837680507E+02  0.00000000000E+00 0.  1.
         11    1    3    3    0    0 -0.74282150956E+02  0.17311952883E+02  0.31658001535E+02  0.82581903130E+02  0.00000000000E+00 0. -1.
</event>
<event>
 7    1  0.5831876E-006  0.2599915E+03  0.7561462E-02  0.1107148E+00
         -2   -1    0    0    0  501 -0.00000000000E+00  0.00000000000E+00  0.95925552737E+02  0.95925552737E+02  0.00000000000E+00 0.  1.
          2   -1    0    0  501    0  0.00000000000E+00 -0.00000000000E+00 -0.75012612374E+03  0.75012612374E+03  0.00000000000E+00 0. -1.
         23    2    1    2    0    0  0.14361596770E+03 -0.19719256176E+03 -0.27467656887E+03  0.37786712398E+03  0.88464079207E+02 0.  0.
          5    1    1    2  502    0 -0.15309150934E+03  0.20833357250E+03 -0.35237496480E+03  0.43706461293E+03  0.41800000000E+01 0. -1.
         -5    1    1    2    0  502  0.94755416426E+01 -0.11141010744E+02 -0.27149037339E+02  0.31119939561E+02  0.41800000000E+01 0. -1.
        -11    1    3    3    0    0  0.12463236717E+03 -0.14806872684E+03 -0.15795521680E+03  0.24981478205E+03  0.00000000000E+00 0.  1.
         11    1    3    3    0    0  0.18983600527E+02 -0.49123834918E+02 -0.11672135207E+03  0.12805234194E+03  0.00000000000E+00 0. -1.
</event>
<event>
 7    1  0.5831876E-006  0.1113548E+03  0.7561462E-02  0.1258081E+00
          2   -1    0    0  501    0  0.00000000000E+00  0.00000000000E+00  0.12726591193E+03  0.12726591193E+03  0.00000000000E+00 0. -1.
         -2   -1    0    0    0  501 -0.00000000000E+00 -0.00000000000E+00 -0.13232085695E+03  0.13232085695E+03  0.00000000000E+00 0.  1.
         23    2    1    2    0    0  0.70214092526E+02  0.29650979422E+00 -0.69231609127E+01  0.11612214431E+03  0.92229689010E+02 0.  0.
          5    1    1    2  502    0 -0.77124524443E+02 -0.45326102227E+02  0.23897584588E+02  0.92688806028E+02  0.41800000000E+01 0.  1.
         -5    1    1    2    0  502  0.69104319171E+01  0.45029592433E+02 -0.22029368699E+02  0.50775818548E+02  0.41800000000E+01 0.  1.
        -11    1    3    3    0    0  0.62458079432E+02  0.20523219889E+02  0.30816087463E+02  0.72607475424E+02  0.00000000000E+00 0. -1.
         11    1    3    3    0    0  0.77560130941E+01 -0.20226710094E+02 -0.37739248375E+02  0.43514668886E+02  0.00000000000E+00 0.  1.
</event>
<event>
 7    1  0.5831876E-006  0.2213212E+03  0.7561462E-02  0.1132902E+00
         -1   -1    0    0    0  501 -0.00000000000E+00  0.00000000000E+00  0.68126461652E+02  0.68126461652E+02  0.00000000000E+00 0.  1.
          1   -1    0    0  501    0  0.00000000000E+00 -0.00000000000E+00 -0.81440957688E+03  0.81440957688E+03  0.00000000000E+00 0. -1.
         23    2    1    2    0    0  0.99338052414E+02  0.18316590293E+03 -0.33821610850E+03  0.40757718967E+03  0.91165963154E+02 0.  0.
          5    1    1    2  502    0 -0.63462030959E+02 -0.38457608086E+02 -0.57452673332E+02  0.93939869417E+02  0.41800000000E+01 0.  1.
         -5    1    1    2    0  502 -0.35876021456E+02 -0.14470829485E+03 -0.35061433339E+03  0.38101897944E+03  0.41800000000E+01 0.  1.
        -11    1    3    3    0    0  0.45567778616E+02  0.14816358848E+03 -0.18428795956E+03  0.24081304665E+03  0.00000000000E+00 0.  1.
         11    1    3    3    0    0  0.53770273799E+02  0.35002314454E+02 -0.15392814894E+03  0.16676414302E+03  0.00000000000E+00 0. -1.
</event>
<event>
 7    1  0.5831876E-006  0.7446930E+02  0.7561462E-02  0.1345522E+00
         -1   -1    0    0    0  501 -0.00000000000E+00  0.00000000000E+00  0.31279797950E+02  0.31279797950E+02  0.00000000000E+00 0.  1.
          1   -1    0    0  501    0  0.00000000000E+00 -0.00000000000E+00 -0.55098870600E+03  0.55098870600E+03  0.00000000000E+00 0. -1.
         23    2    1    2    0    0 -0.62645770634E+02  0.27892810573E+02 -0.20687061684E+03  0.23843980180E+03  0.96724275704E+02 0.  0.
          5    1    1    2  502    0  0.62995994083E+02 -0.30055825313E+02 -0.63525392776E+02  0.94471137566E+02  0.41800000000E+01 0. -1.
         -5    1    1    2    0  502 -0.35022344844E+00  0.21630147394E+01 -0.24931289843E+03  0.24935756458E+03  0.41800000000E+01 0. -1.
        -11    1    3    3    0    0 -0.26957119715E+02  0.27635588086E+02 -0.19791313474E+03  0.20164330124E+03  0.00000000000E+00 0. -1.
         11    1    3    3    0    0 -0.35688650919E+02  0.25722248719E+00 -0.89574820987E+01  0.36796500559E+02  0.00000000000E+00 0.  1.
</event>
<event>
 7    1  0.5831876E-006  0.1022161E+03  0.7561462E-02  0.1275704E+00
         -1   -1    0    0    0  501 -0.00000000000E+00  0.00000000000E+00  0.63786091646E+02  0.63786091646E+02  0.00000000000E+00 0.  1.
          1   -1    0    0  501    0  0.00000000000E+00 -0.00000000000E+00 -0.23315034267E+03  0.23315034267E+03  0.00000000000E+00 0. -1.
         23    2    1    2    0    0  0.35803719730E+02 -0.15559369549E+02 -0.26969313096E+02  0.10343646588E+03  0.91911687490E+02 0.  0.
          5    1    1    2  502    0  0.26266462566E+01  0.55937474525E+02 -0.21179648738E+02  0.60016249861E+02  0.41800000000E+01 0. -1.
         -5    1    1    2    0  502 -0.38430365987E+02 -0.40378104976E+02 -0.12121528919E+03  0.13348371858E+03  0.41800000000E+01 0. -1.
        -11    1    3    3    0    0 -0.11387762886E+02  0.26702051244E+02 -0.27641608861E+02  0.40084151788E+02  0.00000000000E+00 0. -1.
         11    1    3    3    0    0  0.47191482617E+02 -0.42261420792E+02  0.67229576504E+00  0.63352314090E+02  0.00000000000E+00 0.  1.
</event>
<event>
 7    1  0.5831876E-006  0.1280595E+03  0.7561462E-02  0.1230364E+00
          2   -1    0    0  501    0  0.00000000000E+00  0.00000000000E+00  0.13293271193E+04  0.13293271193E+04  0.00000000000E+00 0. -1.
         -2   -1    0    0    0  501 -0.00000000000E+00 -0.00000000000E+00 -0.27976852775E+02  0.27976852775E+02  0.00000000000E+00 0.  1.
         23    2    1    2    0    0 -0.27329216842E+02  0.98250918474E+02  0.18785542484E+03  0.23217359860E+03  0.90635479640E+02 0.  0.
          5    1    1    2  502    0 -0.22878632722E+02 -0.74379262307E+02  0.30791585521E+03  0.31762454689E+03  0.41800000000E+01 0. -1.
         -5    1    1    2    0  502  0.50207849564E+02 -0.23871656167E+02  0.80557898649E+03  0.80750582660E+03  0.41800000000E+01 0. -1.
        -11    1    3    3    0    0  0.15549546154E+02  0.68514159049E+02  0.54325701609E+02  0.88810248457E+02  0.00000000000E+00 0.  1.
         11    1    3    3    0    0 -0.42878762996E+02  0.29736759425E+02  0.13352972323E+03  0.14336335014E+03  0.00000000000E+00 0. -1.
</event>
<event>
 7    1  0.5831876E-006  0.6458434E+02  0.7561462E-02  0.1379542E+00
          3   -1    0    0  501    0  0.00000000000E+00  0.00000000000E+00  0.25707463693E+03  0.25707463693E+03  0.00000000000E+00 0. -1.
         -3   -1    0    0    0  501 -0.00000000000E+00 -0.00000000000E+00 -0.57163197695E+02  0.57163197695E+02  0.00000000000E+00 0.  1.
         23    2    1    2    0    0 -0.77139034222E+01 -0.97024770953E+01  0.17067832317E+02  0.92350970498E+02  0.89909668469E+02 0.  0.
          5    1    1    2  502    0  0.27717637492E+02 -0.58656284058E+01 -0.76711458206E+01  0.29647797607E+02  0.41800000000E+01 0.  1.
         -5    1    1    2    0  502 -0.20003734070E+02  0.15568105501E+02  0.19051475274E+03  0.19223906652E+03  0.41800000000E+01 0.  1.
        -11    1    3    3    0    0 -0.35174063056E+02 -0.25236527829E+02 -0.16458779393E+02  0.46314020208E+02  0.00000000000E+00 0.  1.
         11    1    3    3    0    0  0.27460159634E+02  0.15534050733E+02  0.33526611710E+02  0.46036950290E+02  0.00000000000E+00 0. -1.
</event>
<event>
 7    1  0.5831876E-006  0.1616437E+03  0.7561462E-02  0.1186853E+00
         -2   -1    0    0    0  501 -0.00000000000E+00  0.00000000000E+00  0.17911535165E+02  0.17911535165E+02  0.00000000000E+00 0.  1.
          2   -1    0    0  501    0  0.00000000000E+00 -0.00000000000E+00 -0.18855675310E+04  0.18855675310E+04  0.00000000000E+00 0. -1.
         23    2    1    2    0    0 -0.14271088962E+03 -0.16441907912E+02 -0.91391712493E+03  0.93090086410E+03  0.10341747042E+03 0.  0.
          5    1    1    2  502    0  0.10941128443E+03  0.23839117093E+02 -0.91038501873E+03  0.91725541012E+03  0.41800000000E+01 0.  1.
         -5    1    1    2    0  502  0.33299605185E+02 -0.73972091809E+01 -0.43353852131E+02  0.55322791901E+02  0.41800000000E+01 0.  1.
        -11    1    3    3    0    0 -0.55513577239E+02  0.43942478270E+02 -0.34763645808E+03  0.35477289305E+03  0.00000000000E+00 0.  1.
         11    1    3    3    0    0 -0.87197312380E+02 -0.60384386183E+02 -0.56628066685E+03  0.57612797105E+03  0.00000000000E+00 0. -1.
</event>
<event>
 7    1  0.5831876E-006  0.5421259E+03  0.7561462E-02  0.1003333E+00
         -2   -1    0    0    0  501 -0.00000000000E+00  0.00000000000E+00  0.47408184443E+03  0.47408184443E+03  0.00000000000E+00 0.  1.
          2   -1    0    0  501    0  0.00000000000E+00 -0.00000000000E+00 -0.89274495503E+03  0.89274495503E+03  0.00000000000E+00 0. -1.
         23    2    1    2    0    0  0.53777753725E+03 -0.66549939242E+01  0.15822565692E+03  0.56826600114E+03  0.92961933223E+02 0.  0.
          5    1    1    2  502    0 -0.65813739597E+02 -0.92966867326E+01 -0.22499664646E+02  0.70296401139E+02  0.41800000000E+01 0.  1.
         -5    1    1    2    0  502 -0.47196379765E+03  0.15951680657E+02 -0.55438910288E+03  0.72826439718E+03  0.41800000000E+01 0.  1.
        -11    1    3    3    0    0  0.50474549453E+03  0.16577509718E+02  0.15206364232E+03  0.52741461811E+03  0.00000000000E+00 0.  1.
         11    1    3    3    0    0  0.33032042714E+02 -0.23232503642E+02  0.61620146018E+01  0.40851383028E+02  0.00000000000E+00 0. -1.
</event>
<event>
 7    1  0.5831876E-006  0.7891093E+02  0.7561462E-02  0.1332171E+00
         -1   -1    0    0    0  501 -0.00000000000E+00  0.00000000000E+00  0.12646661757E+02  0.12646661757E+02  0.00000000000E+00 0.  1.
          1   -1    0    0  501    0  0.00000000000E+00 -0.00000000000E+00 -0.93574068040E+03  0.93574068040E+03  0.00000000000E+00 0. -1.
         23    2    1    2    0    0 -0.10232710091E+01  0.10569039907E+02 -0.35525731428E+03  0.36683983051E+03  0.90834741206E+02 0.  0.
          5    1    1    2  502    0 -0.21510150817E+02  0.21393007435E+02 -0.51380962164E+03  0.51472142665E+03  0.41800000000E+01 0.  1.
         -5    1    1    2    0  502  0.22533421826E+02 -0.31962047342E+02 -0.54027082718E+02  0.66826085000E+02  0.41800000000E+01 0.  1.
        -11    1    3    3    0    0  0.26900344324E+02 -0.28924845614E+02 -0.21168934051E+03  0.21534310322E+03  0.00000000000E+00 0.  1.
         11    1    3    3    0    0 -0.27923615333E+02  0.39493885522E+02 -0.14356797376E+03  0.15149672728E+03  0.00000000000E+00 0. -1.
</event>
<event>
 7    1  0.5831876E-006  0.8429717E+02  0.7561462E-02  0.1317281E+00
          2   -1    0    0  501    0  0.00000000000E+00  0.00000000000E+00  0.10712915272E+04  0.10712915272E+04  0.00000000000E+00 0. -1.
         -2   -1    0    0    0  501 -0.00000000000E+00 -0.00000000000E+00 -0.12636028785E+02  0.12636028785E+02  0.00000000000E+00 0.  1.
         23    2    1    2    0    0 -0.17541219402E+02  0.32421624498E+02  0.36604268423E+03  0.37914487449E+03  0.91677331210E+02 0.  0.
          5    1    1    2  502    0  0.61841419897E+00 -0.48948088629E+02  0.97439214903E+02  0.10912456560E+03  0.41800000000E+01 0. -1.
         -5    1    1    2    0  502  0.16922805203E+02  0.16526464131E+02  0.59517359929E+03  0.59565811591E+03  0.41800000000E+01 0. -1.
        -11    1    3    3    0    0 -0.25611110128E+02  0.60782135170E+02  0.20267149254E+03  0.21313406768E+03  0.00000000000E+00 0. -1.
         11    1    3    3    0    0  0.80698907254E+01 -0.28360510673E+02  0.16337119169E+03  0.16601080681E+03  0.00000000000E+00 0.  1.
</event>
<event>
 7    1  0.5831876E-006  0.1593383E+03  0.7561462E-02  0.1189446E+00
         -2   -1    0    0    0  501 -0.00000000000E+00  0.00000000000E+00  0.53734264331E+02  0.53734264331E+02  0.00000000000E+00 0.  1.
          2   -1    0    0  501    0  0.00000000000E+00 -0.00000000000E+00 -0.56588293955E+03  0.56588293955E+03  0.00000000000E+00 0. -1.
         23    2    1    2    0    0  0.56613736705E+02 -0.12399887412E+03 -0.23421751522E+03  0.28573908930E+03  0.90598823109E+02 0.  0.
          5    1    1    2  502    0 -0.78650467124E+02  0.10289626139E+03 -0.27365828939E+03  0.30278683647E+03  0.41800000000E+01 0. -1.
         -5    1    1    2    0  502  0.22036730420E+02  0.21102612726E+02 -0.42728706061E+01  0.31091278113E+02  0.41800000000E+01 0. -1.
        -11    1    3    3    0    0  0.58380446570E+02 -0.32563864899E+02 -0.64188512386E+02  0.92676032291E+02  0.00000000000E+00 0.  1.
         11    1    3    3    0    0 -0.17667098653E+01 -0.91435009221E+02 -0.17002900284E+03  0.19306305701E+03  0.00000000000E+00 0. -1.
</event>
<event>
 7    1  0.5831876E-006  0.1740404E+03  0.7561462E-02  0.1173699E+00
          2   -1    0    0  501    0  0.00000000000E+00  0.00000000000E+00  0.12407277274E+04  0.12407277274E+04  0.00000000000E+00 0.  1.
         -2   -1    0    0    0  501 -0.00000000000E+00 -0.00000000000E+00 -0.26397391598E+02  0.26397391598E+02  0.00000000000E+00 0. -1.
         23    2    1    2    0    0  0.11337975538E+03  0.76482691541E+02  0.41917751709E+03  0.45065754580E+03  0.93155041290E+02 0.  0.
          5    1    1    2  502    0 -0.83176801660E+02 -0.10956007797E+03  0.53284103460E+03  0.55032611384E+03  0.41800000000E+01 0. -1.
         -5    1    1    2    0  502 -0.30202953719E+02  0.33077386426E+02  0.26231178406E+03  0.26614145931E+03  0.41800000000E+01 0. -1.
        -11    1    3    3    0    0  0.45174982616E+01  0.54158311999E+02  0.13878099878E+03  0.14904259851E+03  0.00000000000E+00 0.  1.
         11    1    3    3    0    0  0.10886225712E+03  0.22324379541E+02  0.28039651832E+03  0.30161494729E+03  0.00000000000E+00 0. -1.
</event>
<event>
 7    1  0.5831876E-006  0.1256740E+03  0.7561462E-02  0.1234020E+00
         -1   -1    0    0    0  501 -0.00000000000E+00  0.00000000000E+00  0.27692996426E+02  0.27692996426E+02  0.00000000000E+00 0.  1.
          1   -1    0    0  501    0  0.00000000000E+00 -0.00000000000E+00 -0.78115494481E+03  0.78115494481E+03  0.00000000000E+00 0. -1.
         23    2    1    2    0    0 -0.93102234131E+02  0.14959914500E+02 -0.26572440801E+03  0.29657151270E+03  0.91942243242E+02 0.  0.
          5    1    1    2  502    0  0.10800361429E+03 -0.48318460393E+02 -0.39974082151E+03  0.41690484657E+03  0.41800000000E+01 0.  1.
         -5    1    1    2    0  502 -0.14901380160E+02  0.33358545893E+02 -0.87996718868E+02  0.95371581964E+02  0.41800000000E+01 0.  1.
        -11    1    3    3    0    0 -0.53128512750E+02 -0.10027875202E+01 -0.39299161990E+02  0.66091365419E+02  0.00000000000E+00 0.  1.
         11    1    3    3    0    0 -0.39973721381E+02  0.15962702021E+02 -0.22642524602E+03  0.23048014728E+03  0.00000000000E+00 0. -1.
</event>
<event>
 7    1  0.5831876E-006  0.2287912E+03  0.7561462E-02  0.1127493E+00
          2   -1    0    0  501    0  0.00000000000E+00  0.00000000000E+00  0.19313291225E+04  0.19313291225E+04  0.00000000000E+00 0. -1.
         -2   -1    0    0    0  501 -0.00000000000E+00 -0.00000000000E+00 -0.31988229946E+02  0.31988229946E+02  0.00000000000E+00 0.  1.
         23    2    1    2    0    0 -0.20353046320E+03  0.54729968333E+02  0.63004717293E+03  0.67057859588E+03  0.91083446612E+02 0.  0.
          5    1    1    2  502    0  0.73058026749E+02  0.40076969403E+02  0.46437369730E+03  0.47180932790E+03  0.41800000000E+01 0. -1.
         -5    1    1    2    0  502  0.13047243645E+03 -0.94806937736E+02  0.80492002232E+03  0.82092942866E+03  0.41800000000E+01 0. -1.
        -11    1    3    3    0    0 -0.10872016546E+03  0.13970845031E+02  0.19738564402E+03  0.22577943076E+03  0.00000000000E+00 0.  1.
         11    1    3    3    0    0 -0.94810297740E+02  0.40759123303E+02  0.43266152892E+03  0.44479916512E+03  0.00000000000E+00 0. -1.
</event>
<event>
 7    1  0.5831876E-006  0.1593872E+03  0.7561462E-02  0.1189390E+00
         -1   -1    0    0    0  501 -0.00000000000E+00  0.00000000000E+00  0.25398126537E+02  0.25398126537E+02  0.00000000000E+00 0.  1.
          1   -1    0    0  501    0  0.00000000000E+00 -0.00000000000E+00 -0.12598365510E+04  0.12598365510E+04  0.00000000000E+00 0. -1.
         23    2    1    2    0    0 -0.74386680245E+02 -0.11617645890E+03 -0.46493974915E+03  0.49352413137E+03  0.91469941026E+02 0.  0.
          5    1    1    2  502    0  0.23774755317E+02  0.10890518301E+03 -0.31193953592E+03  0.33128435573E+03  0.41800000000E+01 0.  1.
         -5    1    1    2    0  502  0.50611924928E+02  0.72712758917E+01 -0.45755913936E+03  0.46042619041E+03  0.41800000000E+01 0.  1.
        -11    1    3    3    0    0  0.97194346286E+01  0.28969748470E+01 -0.55566657303E+01  0.11564445806E+02  0.00000000000E+00 0.  1.
         11    1    3    3    0    0 -0.84106114874E+02 -0.11907343375E+03 -0.45938308342E+03  0.48195968557E+03  0.00000000000E+00 0. -1.
</event>
<event>
 7    1  0.5831876E-006  0.8759660E+02  0.7561462E-02  0.1308778E+00
          1   -1    0    0  501    0  0.00000000000E+00  0.00000000000E+00  0.34370575367E+03  0.34370575367E+03  0.00000000000E+00 0. -1.
         -1   -1    0    0    0  501 -0.00000000000E+00 -0.00000000000E+00 -0.46709801469E+02  0.46709801469E+02  0.00000000000E+00 0.  1.
         23    2    1    2    0    0 -0.37533800347E+02  0.36242685592E+02  0.77463479656E+02  0.13241052749E+03  0.93859675482E+02 0.  0.
          5    1    1    2  502    0  0.67843429107E+02 -0.20920126955E+02  0.54871713391E+02  0.89826276307E+02  0.41800000000E+01 0. -1.
         -5    1    1    2    0  502 -0.30309628760E+02 -0.15322558637E+02  0.16466075915E+03  0.16817875134E+03  0.41800000000E+01 0. -1.
        -11    1    3    3    0    0 -0.37848939985E+02  0.46295455744E+02  0.94965673635E+02  0.11222428725E+03  0.00000000000E+00 0. -1.
         11    1    3    3    0    0  0.31513963780E+00 -0.10052770151E+02 -0.17502193979E+02  0.20186240234E+02  0.00000000000E+00 0.  1.
</event>
<event>
 7    1  0.5831876E-006  0.1406498E+03  0.7561462E-02  0.1212457E+00
          2   -1    0    0  501    0  0.00000000000E+00  0.00000000000E+00  0.34942831914E+03  0.34942831914E+03  0.00000000000E+00 0. -1.
         -2   -1    0    0    0  501 -0.00000000000E+00 -0.00000000000E+00 -0.60330235551E+02  0.60330235551E+02  0.00000000000E+00 0.  1.
         23    2    1    2    0    0 -0.57796461185E+02  0.75147646678E+02  0.10805778075E+03  0.17015231406E+03  0.91036950047E+02 0.  0.
          5    1    1    2  502    0  0.20966749736E+02  0.34842582907E+02  0.48373132889E+02  0.63332792166E+02  0.41800000000E+01 0. -1.
         -5    1    1    2    0  502  0.36829711450E+02 -0.10999022958E+03  0.13266716995E+03  0.17627344846E+03  0.41800000000E+01 0. -1.
        -11    1    3    3    0    0 -0.22228332745E+02  0.84664193970E+02  0.99170061100E+02  0.13227556666E+03  0.00000000000E+00 0. -1.
         11    1    3    3    0    0 -0.35568128440E+02 -0.95165472920E+01  0.88877196482E+01  0.37876747400E+02  0.00000000000E+00 0.  1.
</event>
<event>
 7    1  0.5831876E-006  0.1435129E+03  0.7561462E-02  0.1208679E+00
         -1   -1    0    0    0  501 -0.00000000000E+00  0.00000000000E+00  0.11954797086E+03  0.11954797086E+03  0.00000000000E+00 0.  1.
          1   -1    0    0  501    0  0.00000000000E+00 -0.00000000000E+00 -0.34525917105E+03  0.34525917105E+03  0.00000000000E+00 0. -1.
         23    2    1    2    0    0  0.11747780709E+02  0.12358527188E+03  0.29877761845E+02  0.15434716034E+03  0.86712372099E+02 0.  0.
          5    1    1    2  502    0  0.27768823473E+02 -0.52880129848E+02 -0.20794924931E+03  0.21639726980E+03  0.41800000000E+01 0.  1.
         -5    1    1    2    0  502 -0.39516604182E+02 -0.70705142036E+02 -0.47639712722E+02  0.94062711766E+02  0.41800000000E+01 0.  1.
        -11    1    3    3    0    0  0.39112007190E+02  0.32232182370E+02 -0.87970534229E+01  0.51439778729E+02  0.00000000000E+00 0.  1.
         11    1    3    3    0    0 -0.27364226481E+02  0.91353089514E+02  0.38674815268E+02  0.10290738161E+03  0.00000000000E+00 0. -1.
</event>
<event>
 7    1  0.5831876E-006  0.9706700E+02  0.7561462E-02  0.1286587E+00
          1   -1    0    0  501    0  0.00000000000E+00  0.00000000000E+00  0.10278616389E+04  0.10278616389E+04  0.00000000000E+00 0. -1.
         -1   -1    0    0    0  501 -0.00000000000E+00 -0.00000000000E+00 -0.12169605493E+02  0.12169605493E+02  0.00000000000E+00 0.  1.
         23    2    1    2    0    0  0.33564768247E+02 -0.41469147439E+01  0.39465937704E+03  0.40562373701E+03  0.87354459367E+02 0.  0.
          5    1    1    2  502    0 -0.26273934268E+02  0.48501559512E+02  0.52914997945E+03  0.53203373394E+03  0.41800000000E+01 0. -1.
         -5    1    1    2    0  502 -0.72908339798E+01 -0.44354644768E+02  0.91882676959E+02  0.10237377349E+03  0.41800000000E+01 0. -1.
        -11    1    3    3    0    0  0.38812161574E+02  0.36146643798E+02  0.22228028581E+03  0.22852021618E+03  0.00000000000E+00 0.  1.
         11    1    3    3    0    0 -0.52473933268E+01 -0.40293558542E+02  0.17237909123E+03  0.17710352083E+03  0.00000000000E+00 0. -1.
</event>
<event>
 7    1  0.5831876E-006  0.2148713E+03  0.7561462E-02  0.1137765E+00
         -3   -1    0    0    0  501 -0.00000000000E+00  0.00000000000E+00  0.48896645732E+03  0.48896645732E+03  0.00000000000E+00 0.  1.
          3   -1    0    0  501    0  0.00000000000E+00 -0.00000000000E+00 -0.11483942855E+03  0.11483942855E+03  0.00000000000E+00 0. -1.
         23    2    1    2    0    0 -0.75769088334E+02 -0.19544179611E+03  0.20092495875E+03  0.30449341418E+03  0.91689420428E+02 0.  0.
          5    1    1    2  502    0 -0.64360325421E+01  0.15150348074E+02  0.77287160718E+02  0.79131113814E+02  0.41800000000E+01 0.  1.
         -5    1    1    2    0  502  0.82205120876E+02  0.18029144803E+03  0.95914909298E+02  0.22018135788E+03  0.41800000000E+01 0.  1.
        -11    1    3    3    0    0 -0.73604491455E+02 -0.13236487924E+03  0.88094776235E+02  0.17521065041E+03  0.00000000000E+00 0. -1.
         11    1    3    3    0    0 -0.21645968796E+01 -0.63076916869E+02  0.11283018252E+03  0.12928276377E+03  0.00000000000E+00 0.  1.
</event>
<event>
 7    1  0.5831876E-006  0.1025110E+03  0.7561462E-02  0.1275103E+00
          2   -1    0    0  501    0  0.00000000000E+00  0.00000000000E+00  0.37371022853E+03  0.37371022853E+03  0.00000000000E+00 0. -1.
         -2   -1    0    0    0  501 -0.00000000000E+00 -0.00000000000E+00 -0.39249557497E+02  0.39249557497E+02  0.00000000000E+00 0.  1.
         23    2    1    2    0    0 -0.53749350570E+02 -0.26008929301E+01  0.15572557935E+03  0.18825999344E+03  0.91080248871E+02 0.  0.
          5    1    1    2  502    0  0.83075891137E+02 -0.11598155756E+02  0.17164890140E+03  0.19109405710E+03  0.41800000000E+01 0.  1.
         -5    1    1    2    0  502 -0.29326540568E+02  0.14199048686E+02  0.70861902805E+01  0.33605735492E+02  0.41800000000E+01 0.  1.
        -11    1    3    3    0    0  0.14358741790E+02 -0.12901579483E+02  0.93374312904E+02  0.95348762600E+02  0.00000000000E+00 0. -1.
         11    1    3    3    0    0 -0.68108092360E+02  0.10300686553E+02  0.62351266443E+02  0.92911230836E+02  0.00000000000E+00 0.  1.
</event>
<event>
 7    1  0.5831876E-006  0.1176658E+03  0.7561462E-02  0.1246998E+00
         -2   -1    0    0    0  501 -0.00000000000E+00  0.00000000000E+00  0.10482969597E+03  0.10482969597E+03  0.00000000000E+00 0.  1.
          2   -1    0    0  501    0  0.00000000000E+00 -0.00000000000E+00 -0.20594306887E+03  0.20594306887E+03  0.00000000000E+00 0. -1.
         23    2    1    2    0    0 -0.44594105618E+02  0.86788067235E+02 -0.25310022571E+02  0.13494680543E+03  0.89717557826E+02 0.  0.
          5    1    1    2  502    0  0.51525042766E+02 -0.50380659076E+02  0.18413710067E+02  0.74495489524E+02  0.41800000000E+01 0.  1.
         -5    1    1    2    0  502 -0.69309371482E+01 -0.36407408159E+02 -0.94217060391E+02  0.10133046989E+03  0.41800000000E+01 0.  1.
        -11    1    3    3    0    0 -0.64218354389E+02  0.84442659282E+02 -0.36553731114E+02  0.11220844445E+03  0.00000000000E+00 0. -1.
         11    1    3    3    0    0  0.19624248770E+02  0.23454079536E+01  0.11243708543E+02  0.22738360980E+02  0.00000000000E+00 0.  1.
</event>
<event>
 7    1  0.5831876E-006  0.9064957E+02  0.7561462E-02  0.1301286E+00
          4   -1    0    0  501    0  0.00000000000E+00  0.00000000000E+00  0.12246061464E+03  0.12246061464E+03  0.00000000000E+00 0. -1.
         -4   -1    0    0    0  501 -0.00000000000E+00 -0.00000000000E+00 -0.14629888443E+03  0.14629888443E+03  0.00000000000E+00 0.  1.
         23    2    1    2    0    0 -0.58100582021E+01  0.76282023636E+02  0.11288375721E+02  0.11798279520E+03  0.89105603813E+02 0.  0.
          5    1    1    2  502    0 -0.78597999134E+01 -0.62191020981E+01 -0.70267854696E+02  0.71102021696E+02  0.41800000000E+01 0. -1.
         -5    1    1    2    0  502  0.13669858116E+02 -0.70062921537E+02  0.35141209185E+02  0.79674682166E+02  0.41800000000E+01 0. -1.
        -11    1    3    3    0    0  0.20432638395E+02  0.68616515979E+02 -0.22008047472E+02  0.74900421430E+02  0.00000000000E+00 0. -1.
         11    1    3    3    0    0 -0.26242696598E+02  0.76655076565E+01  0.33296423192E+02  0.43082373771E+02  0.00000000000E+00 0.  1.
</event>
<event>
 7    1  0.5831876E-006  0.1000446E+03  0.7561462E-02  0.1280202E+00
         -1   -1    0    0    0  501 -0.00000000000E+00  0.00000000000E+00  0.10964465945E+03  0.10964465945E+03  0.00000000000E+00 0. -1.
          1   -1    0    0  501    0  0.00000000000E+00 -0.00000000000E+00 -0.11690227425E+03  0.11690227425E+03  0.00000000000E+00 0.  1.
         23    2    1    2    0    0 -0.51312935564E+02  0.27916423424E+02 -0.85477589720E+01  0.88484478917E+02  0.65909747176E+02 0.  0.
          5    1    1    2  502    0 -0.34760722069E+02 -0.17065343441E+02  0.27104772223E+02  0.47451815800E+02  0.41800000000E+01 0. -1.
         -5    1    1    2    0  502  0.86073657633E+02 -0.10851079983E+02 -0.25814628054E+02  0.90610638982E+02  0.41800000000E+01 0. -1.
        -11    1    3    3    0    0 -0.48579688012E+02  0.39357417603E+02 -0.25773224618E+02  0.67625819883E+02  0.00000000000E+00 0.  1.
         11    1    3    3    0    0 -0.27332475522E+01 -0.11440994179E+02  0.17225465646E+02  0.20858659034E+02  0.00000000000E+00 0. -1.
</event>
<event>
 7    1  0.5831876E-006  0.1382558E+03  0.7561462E-02  0.1215695E+00
         -2   -1    0    0    0  501 -0.00000000000E+00  0.00000000000E+00  0.22672782965E+03  0.22672782965E+03  0.00000000000E+00 0.  1.
          2   -1    0    0  501    0  0.00000000000E+00 -0.00000000000E+00 -0.10978812709E+03  0.10978812709E+03  0.00000000000E+00 0. -1.
         23    2    1    2    0    0  0.99658696372E+02 -0.34749488342E+02  0.86364274264E+02  0.17001559795E+03  0.10152405121E+03 0.  0.
          5    1    1    2  502    0 -0.14924255146E+02  0.52142693842E+02 -0.28749449568E+02  0.61527206691E+02  0.41800000000E+01 0. -1.
         -5    1    1    2    0  502 -0.84734441227E+02 -0.17393205500E+02  0.59324877864E+02  0.10497315210E+03  0.41800000000E+01 0. -1.
        -11    1    3    3    0    0  0.53843552202E+02 -0.62070087353E+02  0.82647314410E+02  0.11654356455E+03  0.00000000000E+00 0.  1.
         11    1    3    3    0    0  0.45815144170E+02  0.27320599011E+02  0.37169598540E+01  0.53472033402E+02  0.00000000000E+00 0. -1.
</event>
<event>
 7    1  0.5831876E-006  0.1481439E+03  0.7561462E-02  0.1202772E+00
         -1   -1    0    0    0  501 -0.00000000000E+00  0.00000000000E+00  0.18288956814E+02  0.18288956814E+02  0.00000000000E+00 0.  1.
          1   -1    0    0  501    0  0.00000000000E+00 -0.00000000000E+00 -0.13154002641E+04  0.13154002641E+04  0.00000000000E+00 0. -1.
         23    2    1    2    0    0  0.39890509071E+02 -0.94995730704E+02 -0.43593952068E+03  0.45740178794E+03  0.92507774565E+02 0.  0.
          5    1    1    2  502    0  0.44737635748E+02  0.38155116825E+02 -0.26818336086E+03  0.27458524439E+03  0.41800000000E+01 0.  1.
         -5    1    1    2    0  502 -0.84628144819E+02  0.56840613879E+02 -0.59298842571E+03  0.60170218855E+03  0.41800000000E+01 0.  1.
        -11    1    3    3    0    0  0.63910553094E+02 -0.90628000068E+02 -0.31308246557E+03  0.33214247461E+03  0.00000000000E+00 0.  1.
         11    1    3    3    0    0 -0.24020044023E+02 -0.43677306363E+01 -0.12285705510E+03  0.12525931332E+03  0.00000000000E+00 0. -1.
</event>
<event>
 7    1  0.5831876E-006  0.1016501E+03  0.7561462E-02  0.1276864E+00
         -2   -1    0    0    0  501 -0.00000000000E+00  0.00000000000E+00  0.13783483295E+03  0.13783483295E+03  0.00000000000E+00 0.  1.
          2   -1    0    0  501    0  0.00000000000E+00 -0.00000000000E+00 -0.20568903008E+03  0.20568903008E+03  0.00000000000E+00 0. -1.
         23    2    1    2    0    0 -0.30156213658E+02 -0.20445836703E+02  0.92252942877E+02  0.13642825277E+03  0.93673012242E+02 0.  0.
          5    1    1    2  502    0 -0.26838328282E+02  0.36791950699E+02 -0.13506342674E+03  0.14259574028E+03  0.41800000000E+01 0. -1.
         -5    1    1    2    0  502  0.56994541940E+02 -0.16346113996E+02 -0.25043713269E+02  0.64499869984E+02  0.41800000000E+01 0.  1.
        -11    1    3    3    0    0 -0.57617206721E+02 -0.34627457345E+02  0.76158483092E+02  0.10158207450E+03  0.00000000000E+00 0.  1.
         11    1    3    3    0    0  0.27460993063E+02  0.14181620642E+02  0.16094459786E+02  0.34846178267E+02  0.00000000000E+00 0. -1.
</event>
<event>
 7    1  0.5831876E-006  0.2034212E+03  0.7561462E-02  0.1146884E+00
          1   -1    0    0  501    0  0.00000000000E+00  0.00000000000E+00  0.13624749156E+04  0.13624749156E+04  0.00000000000E+00 0. -1.
         -1   -1    0    0    0  501 -0.00000000000E+00 -0.00000000000E+00 -0.47203981495E+02  0.47203981495E+02  0.00000000000E+00 0.  1.
         23    2    1    2    0    0  0.12626061065E+03  0.12883803775E+03  0.24667577214E+03  0.31876978774E+03  0.90687701718E+02 0.  0.
          5    1    1    2  502    0 -0.14729086346E+03 -0.11953258319E+03  0.84207448497E+03  0.86318569702E+03  0.41800000000E+01 0.  1.
         -5    1    1    2    0  502  0.21030252818E+02 -0.93054545591E+01  0.22652067697E+03  0.22772341230E+03  0.41800000000E+01 0.  1.
        -11    1    3    3    0    0  0.39393441973E+02  0.12926469520E+01  0.92897872365E+02  0.10091347232E+03  0.00000000000E+00 0. -1.
         11    1    3    3    0    0  0.86867168673E+02  0.12754539080E+03  0.15377789977E+03  0.21785631541E+03  0.00000000000E+00 0.  1.
</event>
<event>
 7    1  0.5831876E-006  0.1187793E+03  0.7561462E-02  0.1245124E+00
          2   -1    0    0  501    0  0.00000000000E+00  0.00000000000E+00  0.22790387930E+03  0.22790387930E+03  0.00000000000E+00 0. -1.
         -2   -1    0    0    0  501 -0.00000000000E+00 -0.00000000000E+00 -0.10998017948E+03  0.10998017948E+03  0.00000000000E+00 0.  1.
         23    2    1    2    0    0  0.17629280421E+02 -0.35799535680E+02  0.19824341707E+02  0.10206001000E+03  0.91819621178E+02 0.  0.
          5    1    1    2  502    0 -0.47284669863E+02  0.80383051800E+02  0.13960875484E+03  0.16794449038E+03  0.41800000000E+01 0. -1.
         -5    1    1    2    0  502  0.29655389442E+02 -0.44583516120E+02 -0.41509396729E+02  0.67879558406E+02  0.41800000000E+01 0.  1.
        -11    1    3    3    0    0  0.96683966382E+01 -0.62187524942E+02  0.33495443785E+02  0.71293133654E+02  0.00000000000E+00 0.  1.
         11    1    3    3    0    0  0.79608837828E+01  0.26387989261E+02 -0.13671102078E+02  0.30766876343E+02  0.00000000000E+00 0. -1.
</event>
<event>
 7    1  0.5831876E-006  0.5494263E+02  0.7561462E-02  0.1420370E+00
         -1   -1    0    0    0  501 -0.00000000000E+00  0.00000000000E+00  0.27733323038E+02  0.27733323038E+02  0.00000000000E+00 0.  1.
          1   -1    0    0  501    0  0.00000000000E+00 -0.00000000000E+00 -0.46014791869E+03  0.46014791869E+03  0.00000000000E+00 0. -1.
         23    2    1    2    0    0 -0.15693020047E+02 -0.12737480964E+02 -0.12687923390E+03  0.15711287187E+03  0.90430084668E+02 0.  0.
          5    1    1    2  502    0 -0.61412420498E+01  0.18925983212E+02 -0.30697486967E+03  0.30764744547E+03  0.41800000000E+01 0. -1.
         -5    1    1    2    0  502  0.21834262097E+02 -0.61885022478E+01  0.14395079196E+01  0.23120924386E+02  0.41800000000E+01 0. -1.
        -11    1    3    3    0    0 -0.30037890284E+02  0.16237666004E+02 -0.96159013167E+01  0.35473965215E+02  0.00000000000E+00 0.  1.
         11    1    3    3    0    0  0.14344870237E+02 -0.28975146968E+02 -0.11726333258E+03  0.12163890666E+03  0.00000000000E+00 0. -1.
</event>
<event>
 7    1  0.5831876E-006  0.1558579E+03  0.7561462E-02  0.1193454E+00
         -3   -1    0    0    0  501 -0.00000000000E+00  0.00000000000E+00  0.59900284182E+02  0.59900284182E+02  0.00000000000E+00 0.  1.
          3   -1    0    0  501    0  0.00000000000E+00 -0.00000000000E+00 -0.47681921406E+03  0.47681921406E+03  0.00000000000E+00 0. -1.
         23    2    1    2    0    0 -0.12250962237E+03 -0.12512925263E+01 -0.13462035451E+03  0.20452945183E+03  0.93271021814E+02 0.  0.
          5    1    1    2  502    0  0.12657808901E+03 -0.27900434048E+02 -0.15810371701E+03  0.20448644104E+03  0.41800000000E+01 0.  1.
         -5    1    1    2    0  502 -0.40684666353E+01  0.29151726575E+02 -0.12419485836E+03  0.12770360537E+03  0.41800000000E+01 0.  1.
        -11    1    3    3    0    0 -0.95106202341E+02 -0.41372771647E+02 -0.10520105926E+03  0.14773002006E+03  0.00000000000E+00 0.  1.
         11    1    3    3    0    0 -0.27403420030E+02  0.40121479121E+02 -0.29419295250E+02  0.56799431768E+02  0.00000000000E+00 0. -1.
</event>
<event>
 7    1  0.5831876E-006  0.1211637E+03  0.7561462E-02  0.1241190E+00
         -1   -1    0    0    0  501 -0.00000000000E+00  0.00000000000E+00  0.68112603002E+02  0.68112603002E+02  0.00000000000E+00 0.  1.
          1   -1    0    0  501    0  0.00000000000E+00 -0.00000000000E+00 -0.27859213493E+03  0.27859213493E+03  0.00000000000E+00 0. -1.
         23    2    1    2    0    0  0.36260590405E+02 -0.73711574660E+02 -0.66877911379E+02  0.13901840749E+03  0.90029083826E+02 0.  0.
          5    1    1    2  502    0  0.18933331698E+02 -0.16406577849E+02  0.44034118780E+01  0.25778077548E+02  0.41800000000E+01 0. -1.
         -5    1    1    2    0  502 -0.55193922102E+02  0.90118152509E+02 -0.14800503243E+03  0.18190825290E+03  0.41800000000E+01 0. -1.
        -11    1    3    3    0    0  0.56155742203E+02 -0.31221997540E+02 -0.65976046569E+02  0.92092992315E+02  0.00000000000E+00 0. -1.
         11    1    3    3    0    0 -0.19895151798E+02 -0.42489577120E+02 -0.90186481009E+00  0.46925415172E+02  0.00000000000E+00 0.  1.
</event>
<event>
 7    1  0.5831876E-006  0.1120088E+03  0.7561462E-02  0.1256894E+00
          2   -1    0    0  501    0  0.00000000000E+00  0.00000000000E+00  0.10108747961E+04  0.10108747961E+04  0.00000000000E+00 0.  1.
         -2   -1    0    0    0  501 -0.00000000000E+00 -0.00000000000E+00 -0.18189002321E+02  0.18189002321E+02  0.00000000000E+00 0. -1.
         23    2    1    2    0    0  0.63760065778E+02  0.25341955294E+02  0.32287408745E+03  0.34422602079E+03  0.97654064701E+02 0.  0.
          5    1    1    2  502    0  0.52788384788E+01 -0.63175776300E+02  0.32115317336E+03  0.32737727167E+03  0.41800000000E+01 0. -1.
         -5    1    1    2    0  502 -0.69038904256E+02  0.37833821005E+02  0.34865853295E+03  0.35746050595E+03  0.41800000000E+01 0. -1.
        -11    1    3    3    0    0  0.50768155226E+02 -0.25977790629E+01  0.30372091081E+03  0.30794568629E+03  0.00000000000E+00 0.  1.
         11    1    3    3    0    0  0.12991910551E+02  0.27939734357E+02  0.19153176642E+02  0.36280334497E+02  0.00000000000E+00 0. -1.
</event>
<event>
 7    1  0.5831876E-006  0.1211993E+03  0.7561462E-02  0.1241132E+00
         -2   -1    0    0    0  501 -0.00000000000E+00  0.00000000000E+00  0.27405180542E+02  0.27405180542E+02  0.00000000000E+00 0.  1.
          2   -1    0    0  501    0  0.00000000000E+00 -0.00000000000E+00 -0.58819128976E+03  0.58819128976E+03  0.00000000000E+00 0. -1.
         23    2    1    2    0    0  0.63810289099E+02 -0.21902149152E+02 -0.25801899846E+03  0.28112832866E+03  0.88926241771E+02 0.  0.
          5    1    1    2  502    0 -0.16407277600E+02  0.68390605480E+02 -0.20000603320E+03  0.21205272786E+03  0.41800000000E+01 0.  1.
         -5    1    1    2    0  502 -0.47403011499E+02 -0.46488456328E+02 -0.10276107755E+03  0.12241541378E+03  0.41800000000E+01 0.  1.
        -11    1    3    3    0    0  0.30441598512E+02 -0.52146663095E+02 -0.99989780860E+02  0.11680719870E+03  0.00000000000E+00 0.  1.
         11    1    3    3    0    0  0.33368690587E+02  0.30244513943E+02 -0.15802921760E+03  0.16432112996E+03  0.00000000000E+00 0. -1.
</event>
<event>
 7    1  0.5831876E-006  0.1881737E+03  0.7561462E-02  0.1160119E+00
         -2   -1    0    0    0  501 -0.00000000000E+00  0.00000000000E+00  0.22433509666E+02  0.22433509666E+02  0.00000000000E+00 0.  1.
          2   -1    0    0  501    0  0.00000000000E+00 -0.00000000000E+00 -0.23926081080E+04  0.23926081080E+04  0.00000000000E+00 0. -1.
         23    2    1    2    0    0  0.57089149917E+02  0.15874267501E+03 -0.54562783615E+03  0.57844855685E+03  0.91840020880E+02 0.  0.
          5    1    1    2  502    0 -0.28815938636E+02  0.66065224909E+01 -0.58221884603E+03  0.58298392905E+03  0.41800000000E+01 0. -1.
         -5    1    1    2    0  502 -0.28273211281E+02 -0.16534919750E+03 -0.12423279161E+04  0.12536091318E+04  0.41800000000E+01 0. -1.
        -11    1    3    3    0    0  0.69555746428E+02  0.13588630066E+03 -0.51989254025E+03  0.54184069797E+03  0.00000000000E+00 0.  1.
         11    1    3    3    0    0 -0.12466596511E+02  0.22856374348E+02 -0.25735295899E+02  0.36607858882E+02  0.00000000000E+00 0. -1.
</event>
<event>
 7    1  0.5831876E-006  0.1730485E+03  0.7561462E-02  0.1174705E+00
          4   -1    0    0  501    0  0.00000000000E+00  0.00000000000E+00  0.81576975025E+02  0.81576975025E+02  0.00000000000E+00 0. -1.
         -4   -1    0    0    0  501 -0.00000000000E+00 -0.00000000000E+00 -0.44960047006E+03  0.44960047006E+03  0.00000000000E+00 0.  1.
         23    2    1    2    0    0 -0.15239853414E+03  0.42047163937E+01 -0.16228765661E+03  0.24618969429E+03  0.10501947076E+03 0.  0.
          5    1    1    2  502    0  0.12806541208E+03 -0.51946151868E+02 -0.17515244928E+03  0.22314794499E+03  0.41800000000E+01 0. -1.
         -5    1    1    2    0  502  0.24333122065E+02  0.47741435474E+02 -0.30583389148E+02  0.61839805808E+02  0.41800000000E+01 0. -1.
        -11    1    3    3    0    0 -0.84903419745E+02  0.13446379555E+02 -0.19738942899E+02  0.88198762317E+02  0.00000000000E+00 0. -1.
         11    1    3    3    0    0 -0.67495114396E+02 -0.92416631612E+01 -0.14254871371E+03  0.15799093197E+03  0.00000000000E+00 0.  1.
</event>
<event>
 7    1  0.5831876E-006  0.9317322E+02  0.7561462E-02  0.1295344E+00
         -1   -1    0    0    0  501 -0.00000000000E+00  0.00000000000E+00  0.29834027892E+03  0.29834027892E+03  0.00000000000E+00 0.  1.
          1   -1    0    0  501    0  0.00000000000E+00 -0.00000000000E+00 -0.15159241353E+03  0.15159241353E+03  0.00000000000E+00 0. -1.
         23    2    1    2    0    0 -0.27890958580E+02  0.24998025112E+01  0.26673468393E+03  0.28303679837E+03  0.90433860020E+02 0.  0.
          5    1    1    2  502    0  0.59618997861E+02  0.29857568792E+02 -0.91176661395E+02  0.11303342560E+03  0.41800000000E+01 0. -1.
         -5    1    1    2    0  502 -0.31728039282E+02 -0.32357371303E+02 -0.28810157147E+02  0.53862468465E+02  0.41800000000E+01 0.  1.
        -11    1    3    3    0    0  0.22346423647E+02 -0.58552255383E+01  0.18397849237E+02  0.29531799343E+02  0.00000000000E+00 0. -1.
         11    1    3    3    0    0 -0.50237382227E+02  0.83550280496E+01  0.24833683470E+03  0.25350499903E+03  0.00000000000E+00 0.  1.
</event>
<event>
 7    1  0.5831876E-006  0.1059911E+03  0.7561462E-02  0.1268179E+00
         -2   -1    0    0    0  501 -0.00000000000E+00  0.00000000000E+00  0.20734067608E+02  0.20734067608E+02  0.00000000000E+00 0.  1.
          2   -1    0    0  501    0  0.00000000000E+00 -0.00000000000E+00 -0.91722672447E+03  0.91722672447E+03  0.00000000000E+00 0. -1.
         23    2    1    2    0    0 -0.41259019256E+02 -0.42131144334E+02 -0.19947044409E+03  0.22734985364E+03  0.91772315500E+02 0.  0.
          5    1    1    2  502    0  0.63023862770E+02  0.53108543787E+02 -0.66524263257E+03  0.67034152287E+03  0.41800000000E+01 0. -1.
         -5    1    1    2    0  502 -0.21764843515E+02 -0.10977399453E+02 -0.31779580203E+02  0.40269415564E+02  0.41800000000E+01 0. -1.
        -11    1    3    3    0    0 -0.67143646609E+02 -0.18420736461E+02 -0.16021059048E+03  0.17468550630E+03  0.00000000000E+00 0.  1.
         11    1    3    3    0    0  0.25884627354E+02 -0.23710407873E+02 -0.39259853618E+02  0.52664347341E+02  0.00000000000E+00 0. -1.
</event>
<event>
 7    1  0.5831876E-006  0.1507778E+03  0.7561462E-02  0.1199521E+00
         -2   -1    0    0    0  501 -0.00000000000E+00  0.00000000000E+00  0.70748749403E+02  0.70748749403E+02  0.00000000000E+00 0.  1.
          2   -1    0    0  501    0  0.00000000000E+00 -0.00000000000E+00 -0.49105032656E+03  0.49105032656E+03  0.00000000000E+00 0. -1.
         23    2    1    2    0    0 -0.90661681357E+02 -0.55762493076E+02 -0.40074855931E+02  0.14592215320E+03  0.91423654569E+02 0.  0.
          5    1    1    2  502    0  0.98874436337E+02 -0.76395089606E+01 -0.27846915424E+03  0.29562993509E+03  0.41800000000E+01 0. -1.
         -5    1    1    2    0  502 -0.82127549799E+01  0.63402002036E+02 -0.10175756698E+03  0.12024698767E+03  0.41800000000E+01 0.  1.
        -11    1    3    3    0    0 -0.38972400274E+02 -0.73821196497E+02 -0.11823668552E+02  0.84310237655E+02  0.00000000000E+00 0.  1.
         11    1    3    3    0    0 -0.51689281084E+02  0.18058703422E+02 -0.28251187379E+02  0.61611915541E+02  0.00000000000E+00 0. -1.
</event>
<event>
 7    1  0.5831876E-006  0.1190118E+03  0.7561462E-02  0.1244736E+00
         -2   -1    0    0    0  501 -0.00000000000E+00  0.00000000000E+00  0.19654138971E+02  0.19654138971E+02  0.00000000000E+00 0.  1.
          2   -1    0    0  501    0  0.00000000000E+00 -0.00000000000E+00 -0.90385809715E+03  0.90385809715E+03  0.00000000000E+00 0. -1.
         23    2    1    2    0    0 -0.54591900419E+02  0.29891912726E+00 -0.21509828383E+03  0.24062935480E+03  0.93031444916E+02 0.  0.
          5    1    1    2  502    0  0.43813576077E+01  0.56081106086E+02 -0.20330332248E+03  0.21098341187E+03  0.41800000000E+01 0. -1.
         -5    1    1    2    0  502  0.50210542811E+02 -0.56380025214E+02 -0.46580235187E+03  0.47189946944E+03  0.41800000000E+01 0. -1.
        -11    1    3    3    0    0 -0.74780424566E+02  0.20401765502E+02 -0.13575277497E+03  0.15632389403E+03  0.00000000000E+00 0. -1.
         11    1    3    3    0    0  0.20188524147E+02 -0.20102846375E+02 -0.79345508857E+02  0.84305460768E+02  0.00000000000E+00 0.  1.
</event>
<event>
 7    1  0.5831876E-006  0.3063624E+03  0.7561462E-02  0.1082103E+00
          2   -1    0    0  501    0  0.00000000000E+00  0.00000000000E+00  0.52551755344E+03  0.52551755344E+03  0.00000000000E+00 0. -1.
         -2   -1    0    0    0  501 -0.00000000000E+00 -0.00000000000E+00 -0.19882635381E+03  0.19882635381E+03  0.00000000000E+00 0.  1.
         23    2    1    2    0    0 -0.93546974727E+02  0.28061809343E+03  0.24120271837E+03  0.39199754865E+03  0.89363168899E+02 0.  0.
          5    1    1    2  502    0 -0.85956311971E+01 -0.15305263382E+03  0.68625015673E+02  0.16800553196E+03  0.41800000000E+01 0.  1.
         -5    1    1    2    0  502  0.10214260592E+03 -0.12756545961E+03  0.16863465588E+02  0.16434082664E+03  0.41800000000E+01 0.  1.
        -11    1    3    3    0    0 -0.14450057087E+02  0.35178132411E+02 -0.12457562434E+01  0.38050716923E+02  0.00000000000E+00 0.  1.
         11    1    3    3    0    0 -0.79096917640E+02  0.24543996102E+03  0.24244847462E+03  0.35394683172E+03  0.00000000000E+00 0. -1.
</event>
<event>
 7    1  0.5831876E-006  0.8186233E+02  0.7561462E-02  0.1323848E+00
         -2   -1    0    0    0  501 -0.00000000000E+00  0.00000000000E+00  0.53675976952E+02  0.53675976952E+02  0.00000000000E+00 0.  1.
          2   -1    0    0  501    0  0.00000000000E+00 -0.00000000000E+00 -0.23615132880E+03  0.23615132880E+03  0.00000000000E+00 0. -1.
         23    2    1    2    0    0  0.15895952923E+00  0.69170864583E+01 -0.35403776842E+02  0.96630801291E+02  0.89644927298E+02 0.  0.
          5    1    1    2  502    0 -0.49755338495E+01 -0.52523018637E+02 -0.17590198176E+02  0.55770161339E+02  0.41800000000E+01 0. -1.
         -5    1    1    2    0  502  0.48165743203E+01  0.45605932179E+02 -0.12948137683E+03  0.13742634313E+03  0.41800000000E+01 0. -1.
        -11    1    3    3    0    0  0.26969299093E+02  0.21263927448E+02  0.15229048571E+02  0.37568891712E+02  0.00000000000E+00 0.  1.
         11    1    3    3    0    0 -0.26810339564E+02 -0.14346840990E+02 -0.50632825413E+02  0.59061909580E+02  0.00000000000E+00 0. -1.
</event>
<event>
 7    1  0.5831876E-006  0.1727026E+03  0.7561462E-02  0.1175058E+00
         -1   -1    0    0    0  501 -0.00000000000E+00  0.00000000000E+00  0.23895666270E+03  0.23895666270E+03  0.00000000000E+00 0.  1.
          1   -1    0    0  501    0  0.00000000000E+00 -0.00000000000E+00 -0.15878574089E+03  0.15878574089E+03  0.00000000000E+00 0. -1.
         23    2    1    2    0    0 -0.82578055058E+01  0.16085596381E+03  0.37627641669E+02  0.18941666763E+03  0.92303857523E+02 0.  0.
          5    1    1    2  502    0 -0.32716497554E+02 -0.45124421409E+02  0.62529046559E+02  0.83868567910E+02  0.41800000000E+01 0. -1.
         -5    1    1    2    0  502  0.40974303060E+02 -0.11573154240E+03 -0.19985766414E+02  0.12445716804E+03  0.41800000000E+01 0. -1.
        -11    1    3    3    0    0 -0.11859041472E+02  0.92989532322E+01 -0.21870021066E+02  0.26559465681E+02  0.00000000000E+00 0. -1.
         11    1    3    3    0    0  0.36012359657E+01  0.15155701058E+03  0.59497662735E+02  0.16285720195E+03  0.00000000000E+00 0.  1.
</event>
<event>
 7    1  0.5831876E-006  0.1984643E+03  0.7561462E-02  0.1151041E+00
          1   -1    0    0  501    0  0.00000000000E+00  0.00000000000E+00  0.19390582104E+04  0.19390582104E+04  0.00000000000E+00 0. -1.
         -1   -1    0    0    0  501 -0.00000000000E+00 -0.00000000000E+00 -0.21515913383E+02  0.21515913383E+02  0.00000000000E+00 0.  1.
         23    2    1    2    0    0 -0.10096777384E+03 -0.13675366115E+03  0.77684582191E+03  0.80051770954E+03  0.91886435805E+02 0.  0.
          5    1    1    2  502    0  0.82990345931E+02  0.15999969399E+03  0.10162883833E+04  0.10321564078E+04  0.41800000000E+01 0. -1.
         -5    1    1    2    0  502  0.17977427906E+02 -0.23246032839E+02  0.12440809181E+03  0.12790000651E+03  0.41800000000E+01 0. -1.
        -11    1    3    3    0    0 -0.60855844880E+02 -0.20884437836E+02  0.37157169327E+03  0.37710093721E+03  0.00000000000E+00 0. -1.
         11    1    3    3    0    0 -0.40111928957E+02 -0.11586922331E+03  0.40527412863E+03  0.42341677234E+03  0.00000000000E+00 0.  1.
</event>
<event>
 7    1  0.5831876E-006  0.1182773E+03  0.7561462E-02  0.1245966E+00
          1   -1    0    0  501    0  0.00000000000E+00  0.00000000000E+00  0.36274451383E+03  0.36274451383E+03  0.00000000000E+00 0. -1.
         -1   -1    0    0    0  501 -0.00000000000E+00 -0.00000000000E+00 -0.39187428074E+02  0.39187428074E+02  0.00000000000E+00 0.  1.
         23    2    1    2    0    0  0.44420797832E+02  0.18616131505E+02  0.11758279297E+03  0.15617858844E+03  0.90808978924E+02 0.  0.
          5    1    1    2  502    0  0.31231747795E+02 -0.43961548973E+02  0.79362096809E+02  0.96040901018E+02  0.41800000000E+01 0. -1.
         -5    1    1    2    0  502 -0.75652545627E+02  0.25345417468E+02  0.12661219598E+03  0.14971245245E+03  0.41800000000E+01 0. -1.
        -11    1    3    3    0    0 -0.93528736271E+01 -0.29170501892E+02  0.30548114833E+02  0.43261781581E+02  0.00000000000E+00 0. -1.
         11    1    3    3    0    0  0.53773671459E+02  0.47786633396E+02  0.87034678135E+02  0.11291680686E+03  0.00000000000E+00 0.  1.
</event>
<event>
 7    1  0.5831876E-006  0.1297579E+03  0.7561462E-02  0.1227815E+00
          4   -1    0    0  501    0  0.00000000000E+00  0.00000000000E+00  0.15331633281E+03  0.15331633281E+03  0.00000000000E+00 0. -1.
         -4   -1    0    0    0  501 -0.00000000000E+00 -0.00000000000E+00 -0.19866844275E+03  0.19866844275E+03  0.00000000000E+00 0.  1.
         23    2    1    2    0    0  0.51566165436E+02 -0.50776534063E+02 -0.13790014486E+03  0.18037656069E+03  0.91005098015E+02 0.  0.
          5    1    1    2  502    0 -0.75418573193E+01  0.86950411206E+02  0.55330062454E+02  0.10342215349E+03  0.41800000000E+01 0. -1.
         -5    1    1    2    0  502 -0.44024308117E+02 -0.36173877144E+02  0.37217972466E+02  0.68186061385E+02  0.41800000000E+01 0. -1.
        -11    1    3    3    0    0  0.71711039460E+02 -0.59376461515E+02 -0.12120573662E+03  0.15283608197E+03  0.00000000000E+00 0.  1.
         11    1    3    3    0    0 -0.20144874024E+02  0.85999274525E+01 -0.16694408240E+02  0.27540478719E+02  0.00000000000E+00 0. -1.
</event>
<event>
 7    1  0.5831876E-006  0.5506205E+02  0.7561462E-02  0.1419806E+00
          1   -1    0    0  501    0  0.00000000000E+00  0.00000000000E+00  0.15400732453E+03  0.15400732453E+03  0.00000000000E+00 0. -1.
         -1   -1    0    0    0  501 -0.00000000000E+00 -0.00000000000E+00 -0.83264743382E+02  0.83264743382E+02  0.00000000000E+00 0.  1.
         23    2    1    2    0    0  0.87063267698E+01 -0.23814131947E+02  0.48560376344E+02  0.10771962780E+03  0.92749636418E+02 0.  0.
          5    1    1    2  502    0 -0.47336737243E+01  0.45690470429E+02 -0.41453223885E+02  0.62015070148E+02  0.41800000000E+01 0.  1.
         -5    1    1    2    0  502 -0.39726530454E+01 -0.21876338482E+02  0.63635428691E+02  0.67537369968E+02  0.41800000000E+01 0.  1.
        -11    1    3    3    0    0 -0.15186068997E+01 -0.29592152973E+02  0.73993374861E+02  0.79705841742E+02  0.00000000000E+00 0. -1.
         11    1    3    3    0    0  0.10224933669E+02  0.57780210254E+01 -0.25432998517E+02  0.28013786054E+02  0.00000000000E+00 0.  1.
</event>
<event>
 7    1  0.5831876E-006  0.8175300E+02  0.7561462E-02  0.1324149E+00
         -2   -1    0    0    0  501 -0.00000000000E+00  0.00000000000E+00  0.30424278816E+02  0.30424278816E+02  0.00000000000E+00 0.  1.
          2   -1    0    0  501    0  0.00000000000E+00 -0.00000000000E+00 -0.42025158021E+03  0.42025158021E+03  0.00000000000E+00 0. -1.
         23    2    1    2    0    0 -0.32077264822E+02  0.16657357784E+02 -0.11122885234E+03  0.14316841272E+03  0.82576742022E+02 0.  0.
          5    1    1    2  502    0  0.37222568055E+02  0.39997131816E+02 -0.21589508370E+03  0.22274076792E+03  0.41800000000E+01 0. -1.
         -5    1    1    2    0  502 -0.51453032330E+01 -0.56654489599E+02 -0.62703365350E+02  0.84766678378E+02  0.41800000000E+01 0. -1.
        -11    1    3    3    0    0 -0.13563319100E+02 -0.11625542685E+02  0.77559913227E+01  0.19474913841E+02  0.00000000000E+00 0.  1.
         11    1    3    3    0    0 -0.18513945723E+02  0.28282900469E+02 -0.11898484366E+03  0.12369349888E+03  0.00000000000E+00 0. -1.
</event>
<event>
 7    1  0.5831876E-006  0.1050489E+03  0.7561462E-02  0.1270023E+00
         -1   -1    0    0    0  501 -0.00000000000E+00  0.00000000000E+00  0.16191293764E+02  0.16191293764E+02  0.00000000000E+00 0.  1.
          1   -1    0    0  501    0  0.00000000000E+00 -0.00000000000E+00 -0.78245038075E+03  0.78245038075E+03  0.00000000000E+00 0. -1.
         23    2    1    2    0    0  0.10790789978E+02 -0.39569889458E+01 -0.22668222324E+03  0.24463565488E+03  0.91267049893E+02 0.  0.
          5    1    1    2  502    0 -0.54780048544E+02  0.34520783679E+02 -0.20157122428E+03  0.21175686312E+03  0.41800000000E+01 0.  1.
         -5    1    1    2    0  502  0.43989258566E+02 -0.30563794733E+02 -0.33800563947E+03  0.34224915651E+03  0.41800000000E+01 0.  1.
        -11    1    3    3    0    0  0.42314496644E+02  0.24603828360E+02 -0.13393264664E+03  0.14259669994E+03  0.00000000000E+00 0. -1.
         11    1    3    3    0    0 -0.31523706666E+02 -0.28560817306E+02 -0.92749576597E+02  0.10203895494E+03  0.00000000000E+00 0.  1.
</event>
<event>
 7    1  0.5831876E-006  0.9643113E+02  0.7561462E-02  0.1287985E+00
          2   -1    0    0  501    0  0.00000000000E+00  0.00000000000E+00  0.16156473991E+03  0.16156473991E+03  0.00000000000E+00 0.  1.
         -2   -1    0    0    0  501 -0.00000000000E+00 -0.00000000000E+00 -0.90370488474E+02  0.90370488474E+02  0.00000000000E+00 0. -1.
         23    2    1    2    0    0  0.35060583975E+02  0.36098690790E+01 -0.11410482857E+02  0.97945679805E+02  0.90669076150E+02 0.  0.
          5    1    1    2  502    0  0.43281697317E+02 -0.13511143318E+02  0.99599867121E+01  0.46610407118E+02  0.41800000000E+01 0.  1.
         -5    1    1    2    0  502 -0.78342281292E+02  0.99012742392E+01  0.72644747578E+02  0.10737914146E+03  0.41800000000E+01 0.  1.
        -11    1    3    3    0    0  0.50333066878E+02 -0.52333829015E+01  0.25770882671E+02  0.56788593147E+02  0.00000000000E+00 0.  1.
         11    1    3    3    0    0 -0.15272482903E+02  0.88432519805E+01 -0.37181365528E+02  0.41157086658E+02  0.00000000000E+00 0. -1.
</event>
<event>
 7    1  0.5831876E-006  0.1126381E+03  0.7561462E-02  0.1255761E+00
         -2   -1    0    0    0  501 -0.00000000000E+00  0.00000000000E+00  0.42129794958E+03  0.42129794958E+03  0.00000000000E+00 0.  1.
          2   -1    0    0  501    0  0.00000000000E+00 -0.00000000000E+00 -0.40628263077E+02  0.40628263077E+02  0.00000000000E+00 0. -1.
         23    2    1    2    0    0 -0.15029755389E+02  0.72071784611E+02  0.16218393775E+03  0.19961386932E+03  0.90121204359E+02 0.  0.
          5    1    1    2  502    0 -0.19353919218E+02  0.30056400591E+02  0.40291089007E+02  0.54025972077E+02  0.41800000000E+01 0.  1.
         -5    1    1    2    0  502  0.34383674607E+02 -0.10212818520E+03  0.17819465975E+03  0.20828637126E+03  0.41800000000E+01 0.  1.
        -11    1    3    3    0    0  0.92028340358E+01  0.41096208557E+02  0.15372093404E+03  0.15938543244E+03  0.00000000000E+00 0.  1.
         11    1    3    3    0    0 -0.24232589425E+02  0.30975576054E+02  0.84630037183E+01  0.40228436883E+02  0.00000000000E+00 0. -1.
</event>
<event>
 7    1  0.5831876E-006  0.1113193E+03  0.7561462E-02  0.1258146E+00
          1   -1    0    0  501    0  0.00000000000E+00  0.00000000000E+00  0.10960060287E+03  0.10960060287E+03  0.00000000000E+00 0. -1.
         -1   -1    0    0    0  501 -0.00000000000E+00 -0.00000000000E+00 -0.14157584952E+03  0.14157584952E+03  0.00000000000E+00 0.  1.
         23    2    1    2    0    0 -0.47902279400E+02  0.41742017284E+02 -0.14780748339E+02  0.10982588984E+03  0.88352878721E+02 0.  0.
          5    1    1    2  502    0  0.72390241970E+02 -0.58662269630E+02  0.18082093284E+02  0.95005491990E+02  0.41800000000E+01 0.  1.
         -5    1    1    2    0  502 -0.24487962570E+02  0.16920252346E+02 -0.35276591601E+02  0.46345070561E+02  0.41800000000E+01 0.  1.
        -11    1    3    3    0    0 -0.68969440037E+02  0.33704236759E+02 -0.30219663456E+02  0.82498407826E+02  0.00000000000E+00 0.  1.
         11    1    3    3    0    0  0.21067160637E+02  0.80377805255E+01  0.15438915117E+02  0.27327482011E+02  0.00000000000E+00 0. -1.
</event>
<event>
 7    1  0.5831876E-006  0.1242629E+03  0.7561462E-02  0.1236226E+00
          1   -1    0    0  501    0  0.00000000000E+00  0.00000000000E+00  0.14306419376E+03  0.14306419376E+03  0.00000000000E+00 0. -1.
         -1   -1    0    0    0  501 -0.00000000000E+00 -0.00000000000E+00 -0.11838588187E+03  0.11838588187E+03  0.00000000000E+00 0.  1.
         23    2    1    2    0    0 -0.46441105292E+02  0.47877409491E+02 -0.19803410386E+02  0.11287202182E+03  0.88875731478E+02 0.  0.
          5    1    1    2  502    0  0.89534774910E+02 -0.30420300972E+02  0.35163370358E+02  0.10097428209E+03  0.41800000000E+01 0.  1.
         -5    1    1    2    0  502 -0.43093669617E+02 -0.17457108519E+02  0.93183519187E+01  0.47603771714E+02  0.41800000000E+01 0.  1.
        -11    1    3    3    0    0  0.21744960995E+02 -0.32197489195E+01  0.77694063657E+01  0.23314668925E+02  0.00000000000E+00 0.  1.
         11    1    3    3    0    0 -0.68186066288E+02  0.51097158411E+02 -0.27572816751E+02  0.89557352892E+02  0.00000000000E+00 0. -1.
</event>
<event>
 7    1  0.5831876E-006  0.9166297E+02  0.7561462E-02  0.1298874E+00
          1   -1    0    0  501    0  0.00000000000E+00  0.00000000000E+00  0.89128376814E+02  0.89128376814E+02  0.00000000000E+00 0. -1.
         -1   -1    0    0    0  501 -0.00000000000E+00 -0.00000000000E+00 -0.20755556398E+03  0.20755556398E+03  0.00000000000E+00 0.  1.
         23    2    1    2    0    0 -0.34696915369E+02  0.61673402814E+02 -0.94756606268E+02  0.15105283020E+03  0.93971583630E+02 0.  0.
          5    1    1    2  502    0 -0.50822797243E+01 -0.65382547825E+02  0.35057165491E+02  0.74479422524E+02  0.41800000000E+01 0.  1.
         -5    1    1    2    0  502  0.39779195093E+02  0.37091450109E+01 -0.58727746394E+02  0.71151688072E+02  0.41800000000E+01 0.  1.
        -11    1    3    3    0    0 -0.11960582507E+02  0.50894949911E+02  0.75047712870E+00  0.52286849937E+02  0.00000000000E+00 0. -1.
         11    1    3    3    0    0 -0.22736332862E+02  0.10778452903E+02 -0.95507083396E+02  0.98765980266E+02  0.00000000000E+00 0.  1.
</event>
<event>
 7    1  0.5831876E-006  0.1310883E+03  0.7561462E-02  0.1225850E+00
          1   -1    0    0  501    0  0.00000000000E+00  0.00000000000E+00  0.44119527749E+02  0.44119527749E+02  0.00000000000E+00 0. -1.
         -1   -1    0    0    0  501 -0.00000000000E+00 -0.00000000000E+00 -0.61686204347E+03  0.61686204347E+03  0.00000000000E+00 0.  1.
         23    2    1    2    0    0 -0.39708755838E+02  0.10286872084E+03 -0.38174318810E+03  0.40743232604E+03  0.90080406440E+02 0.  0.
          5    1    1    2  502    0  0.38222339819E+02 -0.28140715681E+02  0.80428164311E+00  0.47654657792E+02  0.41800000000E+01 0. -1.
         -5    1    1    2    0  502  0.14864160185E+01 -0.74728005164E+02 -0.19180360926E+03  0.20589458739E+03  0.41800000000E+01 0. -1.
        -11    1    3    3    0    0  0.10679098986E+02 -0.10888871654E+02 -0.21902057700E+02  0.26689151589E+02  0.00000000000E+00 0.  1.
         11    1    3    3    0    0 -0.50387854824E+02  0.11375759250E+03 -0.35984113040E+03  0.38074317446E+03  0.00000000000E+00 0. -1.
</event>
<event>
 7    1  0.5831876E-006  0.1492056E+03  0.7561462E-02  0.1201453E+00
         -1   -1    0    0    0  501 -0.00000000000E+00  0.00000000000E+00  0.10233300187E+03  0.10233300187E+03  0.00000000000E+00 0.  1.
          1   -1    0    0  501    0  0.00000000000E+00 -0.00000000000E+00 -0.45557237350E+03  0.45557237350E+03  0.00000000000E+00 0. -1.
         23    2    1    2    0    0 -0.96085212308E+02 -0.10778849449E+03 -0.18273464724E+02  0.17228241166E+03  0.92176907539E+02 0.  0.
          5    1    1    2  502    0  0.95655044033E+02  0.77953757889E+02 -0.33331602531E+03  0.35544861927E+03  0.41800000000E+01 0. -1.
         -5    1    1    2    0  502  0.43016827488E+00  0.29834736604E+02 -0.16498815918E+01  0.30174344438E+02  0.41800000000E+01 0. -1.
        -11    1    3    3    0    0 -0.76172071830E+01 -0.13641366123E+02  0.30437648338E+02  0.34213435246E+02  0.00000000000E+00 0.  1.
         11    1    3    3    0    0 -0.88468005125E+02 -0.94147128371E+02 -0.48711113062E+02  0.13806897641E+03  0.00000000000E+00 0. -1.
</event>
<event>
 7    1  0.5831876E-006  0.1073899E+03  0.7561462E-02  0.1265481E+00
          1   -1    0    0  501    0  0.00000000000E+00  0.00000000000E+00  0.39554410234E+03  0.39554410234E+03  0.00000000000E+00 0. -1.
         -1   -1    0    0    0  501 -0.00000000000E+00 -0.00000000000E+00 -0.32390754815E+02  0.32390754815E+02  0.00000000000E+00 0.  1.
         23    2    1    2    0    0 -0.10931178630E+02  0.30382966845E+02  0.13240529133E+03  0.16348357222E+03  0.90294528470E+02 0.  0.
          5    1    1    2  502    0  0.16987625234E+02  0.47675806787E+02  0.90711290956E+02  0.10395947610E+03  0.41800000000E+01 0. -1.
         -5    1    1    2    0  502 -0.60564466044E+01 -0.78058773632E+02  0.14003676524E+03  0.16049180884E+03  0.41800000000E+01 0. -1.
        -11    1    3    3    0    0 -0.45453997730E+02  0.18602433915E+02  0.11052814757E+03  0.12094869930E+03  0.00000000000E+00 0.  1.
         11    1    3    3    0    0  0.34522819101E+02  0.11780532930E+02  0.21877143760E+02  0.42534872914E+02  0.00000000000E+00 0. -1.
</event>
<event>
 7    1  0.5831876E-006  0.9617424E+02  0.7561462E-02  0.1288553E+00
          1   -1    0    0  501    0  0.00000000000E+00  0.00000000000E+00  0.17288090410E+03  0.17288090410E+03  0.00000000000E+00 0. -1.
         -1   -1    0    0    0  501 -0.00000000000E+00 -0.00000000000E+00 -0.10115311079E+03  0.10115311079E+03  0.00000000000E+00 0.  1.
         23    2    1    2    0    0 -0.47245620323E+02 -0.12772247097E+02 -0.20587641751E+02  0.11104531887E+03  0.97529138800E+02 0.  0.
          5    1    1    2  502    0  0.44447246533E+02 -0.33157734799E+02 -0.44197764412E+01  0.55785302053E+02  0.41800000000E+01 0. -1.
         -5    1    1    2    0  502  0.27983737902E+01  0.45929981896E+02  0.96735211501E+02  0.10720339396E+03  0.41800000000E+01 0. -1.
        -11    1    3    3    0    0  0.15705046369E+02  0.15010752565E+02  0.21353016209E+02  0.30461819959E+02  0.00000000000E+00 0. -1.
         11    1    3    3    0    0 -0.62950666691E+02 -0.27782999662E+02 -0.41940657960E+02  0.80583498914E+02  0.00000000000E+00 0.  1.
</event>
<event>
 7    1  0.5831876E-006  0.1122654E+03  0.7561462E-02  0.1256431E+00
         -1   -1    0    0    0  501 -0.00000000000E+00  0.00000000000E+00  0.16412331294E+02  0.16412331294E+02  0.00000000000E+00 0.  1.
          1   -1    0    0  501    0  0.00000000000E+00 -0.00000000000E+00 -0.14842631190E+04  0.14842631190E+04  0.00000000000E+00 0. -1.
         23    2    1    2    0    0  0.13086175160E+01  0.86578732548E+02 -0.33802461213E+03  0.36065263470E+03  0.91170692125E+02 0.  0.
          5    1    1    2  502    0 -0.16131988909E+02 -0.88057190699E+02 -0.11149928620E+04  0.11185887826E+04  0.41800000000E+01 0.  1.
         -5    1    1    2    0  502  0.14823371393E+02  0.14784581515E+01 -0.14833313601E+02  0.21434032993E+02  0.41800000000E+01 0.  1.
        -11    1    3    3    0    0 -0.37694238753E+02  0.21030830522E+02 -0.18110319123E+03  0.18617603858E+03  0.00000000000E+00 0. -1.
         11    1    3    3    0    0  0.39002856269E+02  0.65547902026E+02 -0.15692142091E+03  0.17447659613E+03  0.00000000000E+00 0.  1.
</event>
<event>
 7    1  0.5831876E-006  0.1612427E+03  0.7561462E-02  0.1187301E+00
          1   -1    0    0  501    0  0.00000000000E+00  0.00000000000E+00  0.30810727760E+03  0.30810727760E+03  0.00000000000E+00 0. -1.
         -1   -1    0    0    0  501 -0.00000000000E+00 -0.00000000000E+00 -0.15691882507E+03  0.15691882507E+03  0.00000000000E+00 0.  1.
         23    2    1    2    0    0 -0.10453904693E+03 -0.10045612426E+03 -0.58467528293E+02  0.18108334996E+03  0.91394105569E+02 0.  0.
          5    1    1    2  502    0  0.54949818812E+02 -0.99665233338E+01  0.21116216792E+02  0.59851325686E+02  0.41800000000E+01 0. -1.
         -5    1    1    2    0  502  0.49589228120E+02  0.11042264759E+03  0.18853976403E+03  0.22409142703E+03  0.41800000000E+01 0. -1.
        -11    1    3    3    0    0 -0.48653604379E+02 -0.54055640860E+02 -0.77208156388E+02  0.10606736039E+03  0.00000000000E+00 0.  1.
         11    1    3    3    0    0 -0.55885442552E+02 -0.46400483400E+02  0.18740628095E+02  0.75015989565E+02  0.00000000000E+00 0. -1.
</event>
<event>
 7    1  0.5831876E-006  0.1831873E+03  0.7561462E-02  0.1164753E+00
         -1   -1    0    0    0  501 -0.00000000000E+00  0.00000000000E+00  0.21405543177E+02  0.21405543177E+02  0.00000000000E+00 0.  1.
          1   -1    0    0  501    0  0.00000000000E+00 -0.00000000000E+00 -0.17499790313E+04  0.17499790313E+04  0.00000000000E+00 0. -1.
         23    2    1    2    0    0  0.14195597054E+03 -0.61162354671E+02 -0.64422559851E+03  0.66895814461E+03  0.92660920858E+02 0.  0.
          5    1    1    2  502    0 -0.15792808204E+03  0.47098770629E+02 -0.10408200670E+04  0.10537947891E+04  0.41800000000E+01 0.  1.
         -5    1    1    2    0  502  0.15972111497E+02  0.14063584042E+02 -0.43527822603E+02  0.48631640753E+02  0.41800000000E+01 0.  1.
        -11    1    3    3    0    0  0.31890693717E+02 -0.62047596598E+02 -0.27153655214E+03  0.28035516713E+03  0.00000000000E+00 0.  1.
         11    1    3    3    0    0  0.11006527682E+03  0.88524192725E+00 -0.37268904638E+03  0.38860297748E+03  0.00000000000E+00 0. -1.
</event>
<event>
 7    1  0.5831876E-006  0.1083002E+03  0.7561462E-02  0.1263750E+00
         -1   -1    0    0    0  501 -0.00000000000E+00  0.00000000000E+00  0.38133908131E+02  0.38133908131E+02  0.00000000000E+00 0.  1.
          1   -1    0    0  501    0  0.00000000000E+00 -0.00000000000E+00 -0.41933655683E+03  0.41933655683E+03  0.00000000000E+00 0. -1.
         23    2    1    2    0    0  0.46284357599E+02  0.10127222580E+01 -0.14250937255E+03  0.18403765230E+03  0.10685349239E+03 0.  0.
          5    1    1    2  502    0 -0.25100999682E+02 -0.62857672071E+02 -0.12564788117E+03  0.14277958385E+03  0.41800000000E+01 0.  1.
         -5    1    1    2    0  502 -0.21183357916E+02  0.61844949813E+02 -0.11304539498E+03  0.13065322880E+03  0.41800000000E+01 0.  1.
        -11    1    3    3    0    0  0.64771538903E+02  0.95014605045E-01 -0.15052302937E+03  0.16386745757E+03  0.00000000000E+00 0. -1.
         11    1    3    3    0    0 -0.18487181304E+02  0.91770765298E+00  0.80136568225E+01  0.20170194733E+02  0.00000000000E+00 0.  1.
</event>
<event>
 7    1  0.5831876E-006  0.1105588E+03  0.7561462E-02  0.1259539E+00
         -3   -1    0    0    0  501 -0.00000000000E+00  0.00000000000E+00  0.17351431261E+03  0.17351431261E+03  0.00000000000E+00 0.  1.
          3   -1    0    0  501    0  0.00000000000E+00 -0.00000000000E+00 -0.10415787337E+03  0.10415787337E+03  0.00000000000E+00 0. -1.
         23    2    1    2    0    0  0.60367145022E+02 -0.44064647111E+02  0.57581044769E+02  0.13147963392E+03  0.91572004975E+02 0.  0.
          5    1    1    2  502    0 -0.69216449729E+02  0.12691447964E+02 -0.42811572648E+02  0.82476014192E+02  0.41800000000E+01 0. -1.
         -5    1    1    2    0  502  0.88493047062E+01  0.31373199147E+02  0.54586967118E+02  0.63716537866E+02  0.41800000000E+01 0. -1.
        -11    1    3    3    0    0  0.83724447933E+02 -0.43600715578E+02  0.41491788689E+02  0.10311340412E+03  0.00000000000E+00 0.  1.
         11    1    3    3    0    0 -0.23357302911E+02 -0.46393153321E+00  0.16089256081E+02  0.28366229798E+02  0.00000000000E+00 0. -1.
</event>
<event>
 7    1  0.5831876E-006  0.1415399E+03  0.7561462E-02  0.1211272E+00
         -1   -1    0    0    0  501 -0.00000000000E+00  0.00000000000E+00  0.31594618422E+02  0.31594618422E+02  0.00000000000E+00 0.  1.
          1   -1    0    0  501    0  0.00000000000E+00 -0.00000000000E+00 -0.70553250275E+03  0.70553250275E+03  0.00000000000E+00 0. -1.
         23    2    1    2    0    0  0.38084277801E+02  0.92456959921E+02 -0.24537729316E+03  0.27962196866E+03  0.89329321631E+02 0.  0.
          5    1    1    2  502    0  0.39123941926E+02 -0.35919945362E+02 -0.80717541704E+02  0.96714627877E+02  0.41800000000E+01 0. -1.
         -5    1    1    2    0  502 -0.77208219727E+02 -0.56537014559E+02 -0.34784304947E+03  0.36079052464E+03  0.41800000000E+01 0. -1.
        -11    1    3    3    0    0 -0.16487683429E+02 -0.90222394979E+01 -0.31434245333E+02  0.36624531261E+02  0.00000000000E+00 0.  1.
         11    1    3    3    0    0  0.54571961230E+02  0.10147919942E+03 -0.21394304783E+03  0.24299743739E+03  0.00000000000E+00 0. -1.
</event>
<event>
 7    1  0.5831876E-006  0.6730574E+02  0.7561462E-02  0.1369502E+00
         -2   -1    0    0    0  501 -0.00000000000E+00  0.00000000000E+00  0.15462580474E+02  0.15462580474E+02  0.00000000000E+00 0.  1.
          2   -1    0    0  501    0  0.00000000000E+00 -0.00000000000E+00 -0.16414196630E+04  0.16414196630E+04  0.00000000000E+00 0. -1.
         23    2    1    2    0    0  0.11807808004E+02  0.42751624357E+01 -0.16074223042E+03  0.18628371619E+03  0.93305181707E+02 0.  0.
          5    1    1    2  502    0  0.43814363426E+00 -0.26668306384E+02 -0.68269870922E+02  0.73414155386E+02  0.41800000000E+01 0. -1.
         -5    1    1    2    0  502 -0.12245951638E+02  0.22393143948E+02 -0.13969449812E+04  0.13971843719E+04  0.41800000000E+01 0. -1.
        -11    1    3    3    0    0  0.16776601351E+02  0.41204545466E+02 -0.39669013395E+02  0.59606203903E+02  0.00000000000E+00 0.  1.
         11    1    3    3    0    0 -0.49687933472E+01 -0.36929383031E+02 -0.12107321703E+03  0.12667751229E+03  0.00000000000E+00 0. -1.
</event>
<event>
 7    1  0.5831876E-006  0.9328261E+02  0.7561462E-02  0.1295092E+00
         -1   -1    0    0    0  501 -0.00000000000E+00  0.00000000000E+00  0.45943819128E+02  0.45943819128E+02  0.00000000000E+00 0.  1.
          1   -1    0    0  501    0  0.00000000000E+00 -0.00000000000E+00 -0.60266907401E+03  0.60266907401E+03  0.00000000000E+00 0. -1.
         23    2    1    2    0    0 -0.47435550406E+02 -0.54549183309E+02 -0.64322797293E+02  0.13383358287E+03  0.92456805111E+02 0.  0.
          5    1    1    2  502    0  0.26038677160E+02  0.28727244719E+02 -0.47531205244E+03  0.47690909710E+03  0.41800000000E+01 0. -1.
         -5    1    1    2    0  502  0.21396873246E+02  0.25821938590E+02 -0.17090405149E+02  0.37870213168E+02  0.41800000000E+01 0.  1.
        -11    1    3    3    0    0  0.57655968499E+01 -0.60016385430E+02 -0.17577250799E+02  0.62802614379E+02  0.00000000000E+00 0. -1.
         11    1    3    3    0    0 -0.53201147256E+02  0.54672021215E+01 -0.46745546494E+02  0.71030968495E+02  0.00000000000E+00 0.  1.
</event>
<event>
 7    1  0.5831876E-006  0.1296415E+03  0.7561462E-02  0.1227989E+00
         -2   -1    0    0    0  501 -0.00000000000E+00  0.00000000000E+00  0.10760543477E+03  0.10760543477E+03  0.00000000000E+00 0.  1.
          2   -1    0    0  501    0  0.00000000000E+00 -0.00000000000E+00 -0.21885255830E+03  0.21885255830E+03  0.00000000000E+00 0. -1.
         23    2    1    2    0    0 -0.66846811890E+02 -0.66874531373E+02  0.41859240100E+01  0.13174691974E+03  0.91646220304E+02 0.  0.
          5    1    1    2  502    0  0.87296509625E+02  0.77973262200E+02 -0.12304432721E+03  0.16987609917E+03  0.41800000000E+01 0.  1.
         -5    1    1    2    0  502 -0.20449697735E+02 -0.11098730827E+02  0.76112796623E+01  0.24834974160E+02  0.41800000000E+01 0.  1.
        -11    1    3    3    0    0 -0.56127639742E+02 -0.57039559716E+01  0.30691171225E+02  0.64224567323E+02  0.00000000000E+00 0.  1.
         11    1    3    3    0    0 -0.10719172148E+02 -0.61170575401E+02 -0.26505247215E+02  0.67522352421E+02  0.00000000000E+00 0. -1.
</event>
<event>
 7    1  0.5831876E-006  0.1066991E+03  0.7561462E-02  0.1266808E+00
          2   -1    0    0  501    0  0.00000000000E+00  0.00000000000E+00  0.65053860325E+02  0.65053860325E+02  0.00000000000E+00 0. -1.
         -2   -1    0    0    0  501 -0.00000000000E+00 -0.00000000000E+00 -0.18315077663E+03  0.18315077663E+03  0.00000000000E+00 0.  1.
         23    2    1    2    0    0 -0.12785506606E+02  0.46770937602E+00 -0.36845028678E+02  0.98494828753E+02  0.90443281793E+02 0.  0.
          5    1    1    2  502    0  0.40557270834E+02  0.51332423475E+02 -0.32172991298E+02  0.73023856968E+02  0.41800000000E+01 0. -1.
         -5    1    1    2    0  502 -0.27771764228E+02 -0.51800132851E+02 -0.49078896325E+02  0.76685951231E+02  0.41800000000E+01 0. -1.
        -11    1    3    3    0    0 -0.37208346397E+02  0.31972049714E+02 -0.31439815324E+02  0.58267786916E+02  0.00000000000E+00 0. -1.
         11    1    3    3    0    0  0.24422839790E+02 -0.31504340338E+02 -0.54052133542E+01  0.40227041837E+02  0.00000000000E+00 0.  1.
</event>
<event>
 7    1  0.5831876E-006  0.1617300E+03  0.7561462E-02  0.1186757E+00
         -2   -1    0    0    0  501 -0.00000000000E+00  0.00000000000E+00  0.38482027868E+02  0.38482027868E+02  0.00000000000E+00 0.  1.
          2   -1    0    0  501    0  0.00000000000E+00 -0.00000000000E+00 -0.70230575946E+03  0.70230575946E+03  0.00000000000E+00 0. -1.
         23    2    1    2    0    0 -0.17340684842E+02 -0.12103152211E+03 -0.28404448899E+03  0.32266159985E+03  0.92086413742E+02 0.  0.
          5    1    1    2  502    0  0.37975113794E+02  0.14073853511E+03 -0.32503700795E+03  0.35625268205E+03  0.41800000000E+01 0.  1.
         -5    1    1    2    0  502 -0.20634428952E+02 -0.19707012994E+02 -0.54742234650E+02  0.61873505427E+02  0.41800000000E+01 0.  1.
        -11    1    3    3    0    0 -0.51651031848E+02 -0.64112292675E+02 -0.11867406215E+03  0.14443596571E+03  0.00000000000E+00 0.  1.
         11    1    3    3    0    0  0.34310347006E+02 -0.56919229437E+02 -0.16537042684E+03  0.17822563414E+03  0.00000000000E+00 0. -1.
</event>
<event>
 7    1  0.5831876E-006  0.1154511E+03  0.7561462E-02  0.1250796E+00
          2   -1    0    0  501    0  0.00000000000E+00  0.00000000000E+00  0.51289667317E+03  0.51289667317E+03  0.00000000000E+00 0. -1.
         -2   -1    0    0    0  501 -0.00000000000E+00 -0.00000000000E+00 -0.32143115792E+02  0.32143115792E+02  0.00000000000E+00 0.  1.
         23    2    1    2    0    0  0.36467265743E+02  0.50386904954E+02  0.15285438571E+03  0.18862784110E+03  0.91363546041E+02 0.  0.
          5    1    1    2  502    0 -0.73145940547E+02 -0.44384832221E+02  0.13473341631E+03  0.15965872297E+03  0.41800000000E+01 0. -1.
         -5    1    1    2    0  502  0.36678674804E+02 -0.60020727324E+01  0.19316575536E+03  0.19675322489E+03  0.41800000000E+01 0. -1.
        -11    1    3    3    0    0  0.61068849699E+02  0.55718383044E+02  0.97569353261E+02  0.12788166917E+03  0.00000000000E+00 0. -1.
         11    1    3    3    0    0 -0.24601583956E+02 -0.53314780906E+01  0.55285032446E+02  0.60746171931E+02  0.00000000000E+00 0.  1.
</event>
<event>
 7    1  0.5831876E-006  0.1440756E+03  0.7561462E-02  0.1207948E+00
         -4   -1    0    0    0  501 -0.00000000000E+00  0.00000000000E+00  0.54507473649E+03  0.54507473649E+03  0.00000000000E+00 0.  1.
          4   -1    0    0  501    0  0.00000000000E+00 -0.00000000000E+00 -0.62851102085E+02  0.62851102085E+02  0.00000000000E+00 0. -1.
         23    2    1    2    0    0 -0.23202341928E+02 -0.12706958731E+03  0.35232696510E+03  0.38610300947E+03  0.90863716055E+02 0.  0.
          5    1    1    2  502    0 -0.95892296277E+01  0.73288750785E+02 -0.36352513194E+01  0.74120724286E+02  0.41800000000E+01 0.  1.
         -5    1    1    2    0  502  0.32791571556E+02  0.53780836525E+02  0.13353192062E+03  0.14770210481E+03  0.41800000000E+01 0.  1.
        -11    1    3    3    0    0 -0.50802648561E+02 -0.10084851904E+03  0.30581647468E+03  0.32599854153E+03  0.00000000000E+00 0.  1.
         11    1    3    3    0    0  0.27600306633E+02 -0.26221068265E+02  0.46510490421E+02  0.60104467940E+02  0.00000000000E+00 0. -1.
</event>
<event>
 7    1  0.5831876E-006  0.3020285E+03  0.7561462E-02  0.1084231E+00
         -2   -1    0    0    0  501 -0.00000000000E+00  0.00000000000E+00  0.50797329983E+02  0.50797329983E+02  0.00000000000E+00 0.  1.
          2   -1    0    0  501    0  0.00000000000E+00 -0.00000000000E+00 -0.19516085919E+04  0.19516085919E+04  0.00000000000E+00 0. -1.
         23    2    1    2    0    0  0.22022263963E+03  0.18205775145E+03 -0.70549767611E+03  0.76706725817E+03  0.94985113012E+02 0.  0.
          5    1    1    2  502    0 -0.31865086197E+02  0.13462722588E+02 -0.76706366119E+02  0.84249436918E+02  0.41800000000E+01 0.  1.
         -5    1    1    2    0  502 -0.18835755343E+03 -0.19552047404E+03 -0.11186072197E+04  0.11510892268E+04  0.41800000000E+01 0.  1.
        -11    1    3    3    0    0 -0.69973071245E+01  0.11958825578E+02 -0.65560061965E+02  0.67008190104E+02  0.00000000000E+00 0. -1.
         11    1    3    3    0    0  0.22721994675E+03  0.17009892588E+03 -0.63993761415E+03  0.70005906807E+03  0.00000000000E+00 0.  1.
</event>
<event>
 7    1  0.5831876E-006  0.1186197E+03  0.7561462E-02  0.1245392E+00
          1   -1    0    0  501    0  0.00000000000E+00  0.00000000000E+00  0.10397903092E+04  0.10397903092E+04  0.00000000000E+00 0. -1.
         -1   -1    0    0    0  501 -0.00000000000E+00 -0.00000000000E+00 -0.16533898311E+02  0.16533898311E+02  0.00000000000E+00 0.  1.
         23    2    1    2    0    0  0.24174253474E+02 -0.63733768456E+02  0.34311524413E+03  0.36142451901E+03  0.90847258738E+02 0.  0.
          5    1    1    2  502    0 -0.28123817949E+02 -0.28540632186E+02  0.34138624804E+03  0.34375508661E+03  0.41800000000E+01 0. -1.
         -5    1    1    2    0  502  0.39495644755E+01  0.92274400642E+02  0.33875491875E+03  0.35114460191E+03  0.41800000000E+01 0. -1.
        -11    1    3    3    0    0 -0.45608796086E+01  0.17630176295E+02  0.20279743294E+02  0.27256058539E+02  0.00000000000E+00 0.  1.
         11    1    3    3    0    0  0.28735133082E+02 -0.81363944751E+02  0.32283550083E+03  0.33416846047E+03  0.00000000000E+00 0. -1.
</event>
<event>
 7    1  0.5831876E-006  0.8521835E+02  0.7561462E-02  0.1314863E+00
         -2   -1    0    0    0  501 -0.00000000000E+00  0.00000000000E+00  0.12474914429E+02  0.12474914429E+02  0.00000000000E+00 0. -1.
          2   -1    0    0  501    0  0.00000000000E+00 -0.00000000000E+00 -0.15963391556E+04  0.15963391556E+04  0.00000000000E+00 0.  1.
         23    2    1    2    0    0 -0.51060885936E+02  0.17078095532E+02 -0.29731319150E+03  0.31507513706E+03  0.89321513244E+02 0.  0.
          5    1    1    2  502    0  0.33391220640E+02 -0.31876720627E+02 -0.12463480232E+04  0.12472096722E+04  0.41800000000E+01 0. -1.
         -5    1    1    2    0  502  0.17669665297E+02  0.14798625095E+02 -0.40203026413E+02  0.46529260785E+02  0.41800000000E+01 0. -1.
        -11    1    3    3    0    0 -0.75111972670E+02  0.11745783219E+02 -0.18348182377E+03  0.19860853838E+03  0.00000000000E+00 0.  1.
         11    1    3    3    0    0  0.24051086734E+02  0.53323123128E+01 -0.11383136773E+03  0.11646659868E+03  0.00000000000E+00 0. -1.
</event>
<event>
 7    1  0.5831876E-006  0.9788817E+02  0.7561462E-02  0.1284801E+00
          2   -1    0    0  501    0  0.00000000000E+00  0.00000000000E+00  0.28374220398E+03  0.28374220398E+03  0.00000000000E+00 0. -1.
         -2   -1    0    0    0  501 -0.00000000000E+00 -0.00000000000E+00 -0.60975156062E+02  0.60975156062E+02  0.00000000000E+00 0.  1.
         23    2    1    2    0    0 -0.69124832481E+02  0.40898026225E+01  0.67194806825E+02  0.13342470723E+03  0.92152273361E+02 0.  0.
          5    1    1    2  502    0  0.22945839962E+02  0.38937847133E+02  0.13853682325E+03  0.14578268521E+03  0.41800000000E+01 0. -1.
         -5    1    1    2    0  502  0.46178992518E+02 -0.43027649756E+02  0.17035417845E+02  0.65509967598E+02  0.41800000000E+01 0. -1.
        -11    1    3    3    0    0 -0.64386544977E+02 -0.16119772017E+02  0.35368626656E+01  0.66467914225E+02  0.00000000000E+00 0.  1.
         11    1    3    3    0    0 -0.47382875035E+01  0.20209574639E+02  0.63657944159E+02  0.66956793010E+02  0.00000000000E+00 0. -1.
</event>
<event>
 7    1  0.5831876E-006  0.9740460E+02  0.7561462E-02  0.1285850E+00
         -1   -1    0    0    0  501 -0.00000000000E+00  0.00000000000E+00  0.19512478521E+03  0.19512478521E+03  0.00000000000E+00 0.  1.
          1   -1    0    0  501    0  0.00000000000E+00 -0.00000000000E+00 -0.71056722698E+02  0.71056722698E+02  0.00000000000E+00 0. -1.
         23    2    1    2    0    0  0.14527135990E+02  0.21174691308E+02  0.95960928776E+02  0.13542676984E+03  0.92046210704E+02 0.  0.
          5    1    1    2  502    0  0.22714742393E+02  0.43826817734E+02  0.25407114809E+02  0.55675338864E+02  0.41800000000E+01 0. -1.
         -5    1    1    2    0  502 -0.37241878383E+02 -0.65001509042E+02  0.27000189288E+01  0.75079399208E+02  0.41800000000E+01 0. -1.
        -11    1    3    3    0    0 -0.30732537386E+01 -0.22730165387E+02  0.83385158185E+02  0.86482309825E+02  0.00000000000E+00 0.  1.
         11    1    3    3    0    0  0.17600389728E+02  0.43904856695E+02  0.12575770591E+02  0.48944460013E+02  0.00000000000E+00 0. -1.
</event>
<event>
 7    1  0.5831876E-006  0.1413318E+03  0.7561462E-02  0.1211548E+00
          1   -1    0    0  501    0  0.00000000000E+00  0.00000000000E+00  0.65976609101E+03  0.65976609101E+03  0.00000000000E+00 0. -1.
         -1   -1    0    0    0  501 -0.00000000000E+00 -0.00000000000E+00 -0.38625464451E+02  0.38625464451E+02  0.00000000000E+00 0.  1.
         23    2    1    2    0    0  0.74820964710E+02 -0.88457982604E+02  0.32068234694E+03  0.35292711932E+03  0.91090023980E+02 0.  0.
          5    1    1    2  502    0 -0.29722208867E+02 -0.10710100492E+02  0.18080609535E+03  0.18359311662E+03  0.41800000000E+01 0.  1.
         -5    1    1    2    0  502 -0.45098755843E+02  0.99168083096E+02  0.11965218427E+03  0.16187131952E+03  0.41800000000E+01 0.  1.
        -11    1    3    3    0    0  0.78222646134E+01  0.15923029643E+02  0.15708279810E+02  0.23695585059E+02  0.00000000000E+00 0.  1.
         11    1    3    3    0    0  0.66998700096E+02 -0.10438101225E+03  0.30497406713E+03  0.32923153426E+03  0.00000000000E+00 0. -1.
</event>
<event>
 7    1  0.5831876E-006  0.2150680E+03  0.7561462E-02  0.1137614E+00
          2   -1    0    0  501    0  0.00000000000E+00  0.00000000000E+00  0.76920748283E+03  0.76920748283E+03  0.00000000000E+00 0. -1.
         -2   -1    0    0    0  501 -0.00000000000E+00 -0.00000000000E+00 -0.10192609772E+03  0.10192609772E+03  0.00000000000E+00 0.  1.
         23    2    1    2    0    0  0.18622053383E+03 -0.86156162503E+02  0.82870686198E+02  0.23924948242E+03  0.90949396087E+02 0.  0.
          5    1    1    2  502    0 -0.52399383826E+02  0.62111023620E+02  0.10100120918E+03  0.12970039065E+03  0.41800000000E+01 0. -1.
         -5    1    1    2    0  502 -0.13382115001E+03  0.24045138883E+02  0.48340948973E+03  0.50218370748E+03  0.41800000000E+01 0. -1.
        -11    1    3    3    0    0  0.75486409816E+02 -0.53887391489E+01 -0.59725273698E+01  0.75913817317E+02  0.00000000000E+00 0.  1.
         11    1    3    3    0    0  0.11073412401E+03 -0.80767423354E+02  0.88843213568E+02  0.16333566510E+03  0.00000000000E+00 0. -1.
</event>
<event>
 7    1  0.5831876E-006  0.1104958E+03  0.7561462E-02  0.1259654E+00
          2   -1    0    0  501    0  0.00000000000E+00  0.00000000000E+00  0.16829303236E+03  0.16829303236E+03  0.00000000000E+00 0. -1.
         -2   -1    0    0    0  501 -0.00000000000E+00 -0.00000000000E+00 -0.97930202569E+02  0.97930202569E+02  0.00000000000E+00 0.  1.
         23    2    1    2    0    0  0.56903175762E+02  0.38562070145E+02  0.28241247809E+01  0.10831836774E+03  0.83665335972E+02 0.  0.
          5    1    1    2  502    0  0.12354956041E+01  0.33443024585E+02  0.54864055342E+02  0.64401081601E+02  0.41800000000E+01 0. -1.
         -5    1    1    2    0  502 -0.58138671366E+02 -0.72005094730E+02  0.12674649670E+02  0.93503785590E+02  0.41800000000E+01 0. -1.
        -11    1    3    3    0    0  0.35386897662E+02  0.56463151766E+02 -0.22742599218E+02  0.70409842016E+02  0.00000000000E+00 0.  1.
         11    1    3    3    0    0  0.21516278100E+02 -0.17901081621E+02  0.25566723999E+02  0.37908525724E+02  0.00000000000E+00 0. -1.
</event>
<event>
 7    1  0.5831876E-006  0.8802751E+02  0.7561462E-02  0.1307700E+00
         -1   -1    0    0    0  501 -0.00000000000E+00  0.00000000000E+00  0.33045850659E+02  0.33045850659E+02  0.00000000000E+00 0.  1.
          1   -1    0    0  501    0  0.00000000000E+00 -0.00000000000E+00 -0.69615648594E+03  0.69615648594E+03  0.00000000000E+00 0. -1.
         23    2    1    2    0    0  0.98417802813E+01 -0.21302257496E+02 -0.56249663530E+02  0.10913885057E+03  0.90535171301E+02 0.  0.
          5    1    1    2  502    0  0.40682528237E+02  0.43863673005E+02 -0.44347366935E+03  0.44751028784E+03  0.41800000000E+01 0. -1.
         -5    1    1    2    0  502 -0.50524308518E+02 -0.22561415509E+02 -0.16338730240E+03  0.17255319819E+03  0.41800000000E+01 0. -1.
        -11    1    3    3    0    0  0.31497724833E+02 -0.19628281309E+01  0.12936525768E+02  0.34107375491E+02  0.00000000000E+00 0.  1.
         11    1    3    3    0    0 -0.21655944551E+02 -0.19339429365E+02 -0.69186189298E+02  0.75031475077E+02  0.00000000000E+00 0. -1.
</event>
<event>
 7    1  0.5831876E-006  0.2702796E+03  0.7561462E-02  0.1101120E+00
          2   -1    0    0  501    0  0.00000000000E+00  0.00000000000E+00  0.38063761597E+03  0.38063761597E+03  0.00000000000E+00 0. -1.
         -2   -1    0    0    0  501 -0.00000000000E+00 -0.00000000000E+00 -0.26594013993E+03  0.26594013993E+03  0.00000000000E+00 0.  1.
         23    2    1    2    0    0 -0.26400778434E+03 -0.44363800284E+02  0.19741935510E+03  0.34437948113E+03  0.89188386501E+02 0.  0.
          5    1    1    2  502    0  0.84324400784E+02  0.29038151170E+02  0.24203299900E+02  0.92504545385E+02  0.41800000000E+01 0. -1.
         -5    1    1    2    0  502  0.17968338356E+03  0.15325649114E+02 -0.10692517896E+03  0.20969372938E+03  0.41800000000E+01 0.  1.
        -11    1    3    3    0    0 -0.19080333995E+03 -0.50671618779E+02  0.97028440900E+02  0.21997282975E+03  0.00000000000E+00 0. -1.
         11    1    3    3    0    0 -0.73204444391E+02  0.63078184948E+01  0.10039091420E+03  0.12440665138E+03  0.00000000000E+00 0.  1.
</event>
<event>
 7    1  0.5831876E-006  0.1057357E+03  0.7561462E-02  0.1268677E+00
         -2   -1    0    0    0  501 -0.00000000000E+00  0.00000000000E+00  0.47697498677E+02  0.47697498677E+02  0.00000000000E+00 0.  1.
          2   -1    0    0  501    0  0.00000000000E+00 -0.00000000000E+00 -0.45081000637E+03  0.45081000637E+03  0.00000000000E+00 0. -1.
         23    2    1    2    0    0 -0.64929930481E+02  0.69970900971E+02 -0.13180440232E+03  0.18487064575E+03  0.87709362863E+02 0.  0.
          5    1    1    2  502    0  0.60078685224E+01 -0.47862526542E+02 -0.16522054148E+02  0.51160205281E+02  0.41800000000E+01 0.  1.
         -5    1    1    2    0  502  0.58922061959E+02 -0.22108374429E+02 -0.25478605122E+03  0.26247665401E+03  0.41800000000E+01 0.  1.
        -11    1    3    3    0    0 -0.22836595854E+02  0.46453358225E+02 -0.12610758099E+03  0.13631781463E+03  0.00000000000E+00 0. -1.
         11    1    3    3    0    0 -0.42093334627E+02  0.23517542746E+02 -0.56968213278E+01  0.48552831123E+02  0.00000000000E+00 0.  1.
</event>
<event>
 7    1  0.8156935E-006  0.7493005E+02  0.7561462E-02  0.1344088E+00
          1   -1    0    0  501    0  0.00000000000E+00  0.00000000000E+00  0.32975350841E+03  0.32975350841E+03  0.00000000000E+00 0. -1.
         -1   -1    0    0    0  501 -0.00000000000E+00 -0.00000000000E+00 -0.37174343318E+02  0.37174343318E+02  0.00000000000E+00 0.  1.
         23    2    1    2    0    0  0.23531857048E+01  0.21132236421E+02  0.57339163561E+02  0.99649741787E+02  0.78677712607E+02 0.  0.
          5    1    1    2  502    0  0.22610729709E+02 -0.34240748673E+02  0.13039963477E+02  0.43257219226E+02  0.41800000000E+01 0. -1.
         -5    1    1    2    0  502 -0.24963915414E+02  0.13108512252E+02  0.22220003805E+03  0.22402089071E+03  0.41800000000E+01 0. -1.
        -11    1    3    3    0    0  0.27911375621E+02 -0.18115434180E+02  0.14946891319E+02  0.36477711067E+02  0.00000000000E+00 0.  1.
         11    1    3    3    0    0 -0.25558189916E+02  0.39247670601E+02  0.42392272242E+02  0.63172030720E+02  0.00000000000E+00 0. -1.
</event>
<event>
 7    1  0.5831876E-006  0.1461464E+03  0.7561462E-02  0.1205290E+00
          1   -1    0    0  501    0  0.00000000000E+00  0.00000000000E+00  0.29918772442E+03  0.29918772442E+03  0.00000000000E+00 0. -1.
         -1   -1    0    0    0  501 -0.00000000000E+00 -0.00000000000E+00 -0.10743072769E+03  0.10743072769E+03  0.00000000000E+00 0.  1.
         23    2    1    2    0    0 -0.65314997433E+02 -0.88535302570E+02 -0.13628608902E+02  0.14235142307E+03  0.89295240521E+02 0.  0.
          5    1    1    2  502    0  0.26863401172E+02 -0.28440885480E+02  0.76151005301E+02  0.85714492927E+02  0.41800000000E+01 0.  1.
         -5    1    1    2    0  502  0.38451596261E+02  0.11697618805E+03  0.12923460034E+03  0.17855253611E+03  0.41800000000E+01 0.  1.
        -11    1    3    3    0    0 -0.94615463814E+00 -0.58852882309E+02 -0.34794862462E+02  0.68375722434E+02  0.00000000000E+00 0.  1.
         11    1    3    3    0    0 -0.64368842795E+02 -0.29682420262E+02  0.21166253561E+02  0.73975700640E+02  0.00000000000E+00 0. -1.
</event>
<event>
 7    1  0.5831876E-006  0.1459151E+03  0.7561462E-02  0.1205584E+00
          2   -1    0    0  501    0  0.00000000000E+00  0.00000000000E+00  0.62286019286E+03  0.62286019286E+03  0.00000000000E+00 0.  1.
         -2   -1    0    0    0  501 -0.00000000000E+00 -0.00000000000E+00 -0.46938450409E+02  0.46938450409E+02  0.00000000000E+00 0. -1.
         23    2    1    2    0    0  0.74380549814E+02  0.10726381925E+03  0.23537673835E+03  0.28423869877E+03  0.91386190480E+02 0.  0.
          5    1    1    2  502    0 -0.22340899273E+02 -0.15951527904E+02  0.23470968826E+03  0.23634651930E+03  0.41800000000E+01 0.  1.
         -5    1    1    2    0  502 -0.52039650541E+02 -0.91312291350E+02  0.10583531584E+03  0.14921342520E+03  0.41800000000E+01 0.  1.
        -11    1    3    3    0    0  0.50533429046E+02  0.16010241963E+01  0.65076785307E+02  0.82408608261E+02  0.00000000000E+00 0.  1.
         11    1    3    3    0    0  0.23847120768E+02  0.10566279506E+03  0.17029995304E+03  0.20183009051E+03  0.00000000000E+00 0. -1.
</event>
<event>
 7    1  0.5831876E-006  0.3241479E+03  0.7561462E-02  0.1073756E+00
         -2   -1    0    0    0  501 -0.00000000000E+00  0.00000000000E+00  0.21419513432E+03  0.21419513432E+03  0.00000000000E+00 0. -1.
          2   -1    0    0  501    0  0.00000000000E+00 -0.00000000000E+00 -0.53527373679E+03  0.53527373679E+03  0.00000000000E+00 0.  1.
         23    2    1    2    0    0 -0.14100172802E+03 -0.28194758998E+03 -0.89982625364E+02  0.33906592059E+03  0.86561508976E+02 0.  0.
          5    1    1    2  502    0  0.89713454034E+02  0.25693101285E+03 -0.22448096914E+03  0.35280480029E+03  0.41800000000E+01 0.  1.
         -5    1    1    2    0  502  0.51288273987E+02  0.25016577132E+02 -0.66150079693E+01  0.57598150234E+02  0.41800000000E+01 0.  1.
        -11    1    3    3    0    0 -0.75321623258E+02 -0.20107487257E+03 -0.24740994470E+02  0.21614015850E+03  0.00000000000E+00 0. -1.
         11    1    3    3    0    0 -0.65680104762E+02 -0.80872717410E+02 -0.65241630894E+02  0.12292576209E+03  0.00000000000E+00 0.  1.
</event>
<event>
 7    1  0.5831876E-006  0.1526152E+03  0.7561462E-02  0.1197296E+00
          1   -1    0    0  501    0  0.00000000000E+00  0.00000000000E+00  0.16960491021E+03  0.16960491021E+03  0.00000000000E+00 0. -1.
         -1   -1    0    0    0  501 -0.00000000000E+00 -0.00000000000E+00 -0.14034935988E+03  0.14034935988E+03  0.00000000000E+00 0.  1.
         23    2    1    2    0    0 -0.74820783589E+02  0.75914339936E+02 -0.56038867352E+01  0.14195922051E+03  0.93594230998E+02 0.  0.
          5    1    1    2  502    0  0.48172803147E+01 -0.91397668038E+02  0.28240624135E+02  0.95873589502E+02  0.41800000000E+01 0.  1.
         -5    1    1    2    0  502  0.70003503274E+02  0.15483328102E+02  0.66188129358E+01  0.72121460083E+02  0.41800000000E+01 0.  1.
        -11    1    3    3    0    0 -0.35662626537E+01  0.70221224562E+02 -0.47596819442E+01  0.70472641362E+02  0.00000000000E+00 0.  1.
         11    1    3    3    0    0 -0.71254520935E+02  0.56931153742E+01 -0.84420479102E+00  0.71486579147E+02  0.00000000000E+00 0. -1.
</event>
<event>
 7    1  0.5831876E-006  0.1965016E+03  0.7561462E-02  0.1152725E+00
         -1   -1    0    0    0  501 -0.00000000000E+00  0.00000000000E+00  0.10030681676E+03  0.10030681676E+03  0.00000000000E+00 0.  1.
          1   -1    0    0  501    0  0.00000000000E+00 -0.00000000000E+00 -0.51704978012E+03  0.51704978012E+03  0.00000000000E+00 0. -1.
         23    2    1    2    0    0  0.58821869669E+02 -0.17135480133E+03 -0.87194520887E+02  0.22103294758E+03  0.91816115966E+02 0.  0.
          5    1    1    2  502    0  0.17498214696E+02  0.10720489806E+02  0.97875373392E+00  0.20965370927E+02  0.41800000000E+01 0. -1.
         -5    1    1    2    0  502 -0.76320084366E+02  0.16063431153E+03 -0.33052719620E+03  0.37535827838E+03  0.41800000000E+01 0. -1.
        -11    1    3    3    0    0  0.50364659551E+01 -0.11900891031E+03 -0.84292778667E+02  0.14592381319E+03  0.00000000000E+00 0. -1.
         11    1    3    3    0    0  0.53785403714E+02 -0.52345891028E+02 -0.29017422207E+01  0.75109134385E+02  0.00000000000E+00 0.  1.
</event>
<event>
 7    1  0.5831876E-006  0.9445873E+02  0.7561462E-02  0.1292400E+00
         -2   -1    0    0    0  501 -0.00000000000E+00  0.00000000000E+00  0.28220283931E+02  0.28220283931E+02  0.00000000000E+00 0.  1.
          2   -1    0    0  501    0  0.00000000000E+00 -0.00000000000E+00 -0.48844687786E+03  0.48844687786E+03  0.00000000000E+00 0. -1.
         23    2    1    2    0    0 -0.14047630242E+02 -0.39567863958E+02 -0.20224356601E+03  0.22690134361E+03  0.93908508489E+02 0.  0.
          5    1    1    2  502    0 -0.37167427463E+02  0.17632524680E+01 -0.20026942210E+03  0.20373963913E+03  0.41800000000E+01 0. -1.
         -5    1    1    2    0  502  0.51215057705E+02  0.37804611490E+02 -0.57713605819E+02  0.86026179052E+02  0.41800000000E+01 0. -1.
        -11    1    3    3    0    0 -0.11469404313E+02 -0.63036078335E+02 -0.80477189301E+02  0.10286725623E+03  0.00000000000E+00 0.  1.
         11    1    3    3    0    0 -0.25782259290E+01  0.23468214377E+02 -0.12176637671E+03  0.12403408738E+03  0.00000000000E+00 0. -1.
</event>
<event>
 7    1  0.5831876E-006  0.1243044E+03  0.7561462E-02  0.1236160E+00
          2   -1    0    0  501    0  0.00000000000E+00  0.00000000000E+00  0.12162069919E+04  0.12162069919E+04  0.00000000000E+00 0. -1.
         -2   -1    0    0    0  501 -0.00000000000E+00 -0.00000000000E+00 -0.27190554184E+02  0.27190554184E+02  0.00000000000E+00 0.  1.
         23    2    1    2    0    0 -0.65327893287E+02  0.68342403895E+02  0.18366261002E+03  0.22588954152E+03  0.91409588322E+02 0.  0.
          5    1    1    2  502    0  0.86508025796E+02 -0.87065623665E+02  0.90028376573E+03  0.90862114910E+03  0.41800000000E+01 0.  1.
         -5    1    1    2    0  502 -0.21180132509E+02  0.18723219770E+02  0.10507006191E+03  0.10888685541E+03  0.41800000000E+01 0.  1.
        -11    1    3    3    0    0 -0.22676556946E+02  0.95837594954E+01 -0.37513048547E+01  0.24902750232E+02  0.00000000000E+00 0.  1.
         11    1    3    3    0    0 -0.42651336341E+02  0.58758644399E+02  0.18741391488E+03  0.20098679129E+03  0.00000000000E+00 0. -1.
</event>
<event>
 7    1  0.5831876E-006  0.9490881E+02  0.7561462E-02  0.1291382E+00
         -2   -1    0    0    0  501 -0.00000000000E+00  0.00000000000E+00  0.45170766905E+02  0.45170766905E+02  0.00000000000E+00 0.  1.
          2   -1    0    0  501    0  0.00000000000E+00 -0.00000000000E+00 -0.39892738784E+03  0.39892738784E+03  0.00000000000E+00 0. -1.
         23    2    1    2    0    0  0.75483454965E+02  0.44079434992E+01 -0.14511889457E+03  0.18935510604E+03  0.95282111030E+02 0.  0.
          5    1    1    2  502    0 -0.14005953942E+02  0.20109721103E+02 -0.18132446326E+03  0.18302076660E+03  0.41800000000E+01 0. -1.
         -5    1    1    2    0  502 -0.61477501024E+02 -0.24517664602E+02 -0.27313263106E+02  0.71722282111E+02  0.41800000000E+01 0. -1.
        -11    1    3    3    0    0 -0.23495158251E+01  0.19259265880E+02 -0.91849876253E+02  0.93876724029E+02  0.00000000000E+00 0. -1.
         11    1    3    3    0    0  0.77832970790E+02 -0.14851322380E+02 -0.53269018314E+02  0.95478382007E+02  0.00000000000E+00 0.  1.
</event>
<event>
 7    1  0.5831876E-006  0.1069994E+03  0.7561462E-02  0.1266230E+00
          2   -1    0    0  501    0  0.00000000000E+00  0.00000000000E+00  0.60475105802E+02  0.60475105802E+02  0.00000000000E+00 0. -1.
         -2   -1    0    0    0  501 -0.00000000000E+00 -0.00000000000E+00 -0.26935992136E+03  0.26935992136E+03  0.00000000000E+00 0.  1.
         23    2    1    2    0    0 -0.18662202302E+02 -0.61395016277E+02 -0.12069827837E+03  0.16387724949E+03  0.90388343723E+02 0.  0.
          5    1    1    2  502    0  0.65893898559E+02  0.64305079976E+02 -0.66979402107E+02  0.11393358541E+03  0.41800000000E+01 0. -1.
         -5    1    1    2    0  502 -0.47231696256E+02 -0.29100636994E+01 -0.21207135082E+02  0.52024192261E+02  0.41800000000E+01 0. -1.
        -11    1    3    3    0    0 -0.19120739906E+02 -0.76728508171E+01  0.97542599187E+01  0.22795195124E+02  0.00000000000E+00 0. -1.
         11    1    3    3    0    0  0.45853760318E+00 -0.53722165460E+02 -0.13045253829E+03  0.14108205437E+03  0.00000000000E+00 0.  1.
</event>
<event>
 7    1  0.5831876E-006  0.6411383E+02  0.7561462E-02  0.1381336E+00
         -2   -1    0    0    0  501 -0.00000000000E+00  0.00000000000E+00  0.74611809401E+02  0.74611809401E+02  0.00000000000E+00 0.  1.
          2   -1    0    0  501    0  0.00000000000E+00 -0.00000000000E+00 -0.21232600046E+03  0.21232600046E+03  0.00000000000E+00 0. -1.
         23    2    1    2    0    0  0.44009173070E+01  0.56439235944E+02 -0.31631587769E+02  0.11342875914E+03  0.93063261429E+02 0.  0.
          5    1    1    2  502    0  0.11317863969E+02 -0.41575737933E+02  0.18438148654E+02  0.47053945162E+02  0.41800000000E+01 0.  1.
         -5    1    1    2    0  502 -0.15718781276E+02 -0.14863498011E+02 -0.12452075194E+03  0.12645510556E+03  0.41800000000E+01 0.  1.
        -11    1    3    3    0    0  0.15104101665E+02  0.20895342246E+02  0.31185644462E+02  0.40463485208E+02  0.00000000000E+00 0.  1.
         11    1    3    3    0    0 -0.10703184358E+02  0.35543893697E+02 -0.62817232230E+02  0.72965273930E+02  0.00000000000E+00 0. -1.
</event>
<event>
 7    1  0.5831876E-006  0.2065783E+03  0.7561462E-02  0.1144305E+00
         -2   -1    0    0    0  501 -0.00000000000E+00  0.00000000000E+00  0.26462905126E+02  0.26462905126E+02  0.00000000000E+00 0.  1.
          2   -1    0    0  501    0  0.00000000000E+00 -0.00000000000E+00 -0.18235285944E+04  0.18235285944E+04  0.00000000000E+00 0. -1.
         23    2    1    2    0    0  0.16041517569E+03  0.88891250490E+02 -0.65087724134E+03  0.68250250564E+03  0.92378590022E+02 0.  0.
          5    1    1    2  502    0  0.11186011277E+02  0.95387330405E+01 -0.21328838528E+03  0.21383526830E+03  0.41800000000E+01 0. -1.
         -5    1    1    2    0  502 -0.17160118697E+03 -0.98429983531E+02 -0.93290006263E+03  0.95365372557E+03  0.41800000000E+01 0. -1.
        -11    1    3    3    0    0  0.11976291824E+03  0.22059665250E+02 -0.46827461575E+03  0.48385008130E+03  0.00000000000E+00 0. -1.
         11    1    3    3    0    0  0.40652257453E+02  0.66831585241E+02 -0.18260262559E+03  0.19865242434E+03  0.00000000000E+00 0.  1.
</event>
<event>
 7    1  0.5831876E-006  0.1240028E+03  0.7561462E-02  0.1236636E+00
          1   -1    0    0  501    0  0.00000000000E+00  0.00000000000E+00  0.51850016358E+03  0.51850016358E+03  0.00000000000E+00 0. -1.
         -1   -1    0    0    0  501 -0.00000000000E+00 -0.00000000000E+00 -0.49211241171E+02  0.49211241171E+02  0.00000000000E+00 0.  1.
         23    2    1    2    0    0 -0.60862963585E+02  0.87797920895E+02  0.16327821300E+03  0.22028874681E+03  0.10224764974E+03 0.  0.
          5    1    1    2  502    0  0.68311064156E+02 -0.90667020673E+02  0.13612191981E+03  0.17729512000E+03  0.41800000000E+01 0. -1.
         -5    1    1    2    0  502 -0.74481005703E+01  0.28690997787E+01  0.16988878960E+03  0.17012753794E+03  0.41800000000E+01 0. -1.
        -11    1    3    3    0    0 -0.33101498343E+02 -0.22390354844E+00  0.10742304695E+03  0.11240760802E+03  0.00000000000E+00 0. -1.
         11    1    3    3    0    0 -0.27761465243E+02  0.88021824443E+02  0.55855166057E+02  0.10788113879E+03  0.00000000000E+00 0.  1.
</event>
<event>
 7    1  0.5831876E-006  0.1598308E+03  0.7561462E-02  0.1188888E+00
         -2   -1    0    0    0  501 -0.00000000000E+00  0.00000000000E+00  0.87129630072E+02  0.87129630072E+02  0.00000000000E+00 0. -1.
          2   -1    0    0  501    0  0.00000000000E+00 -0.00000000000E+00 -0.41027473141E+03  0.41027473141E+03  0.00000000000E+00 0.  1.
         23    2    1    2    0    0 -0.69274129593E+02  0.13429826158E+03 -0.11171756771E+03  0.20898984421E+03  0.91438569276E+02 0.  0.
          5    1    1    2  502    0  0.43705597131E+02 -0.14895225435E+02 -0.13865934337E+03  0.14620510547E+03  0.41800000000E+01 0.  1.
         -5    1    1    2    0  502  0.25568532462E+02 -0.11940303615E+03 -0.72768190260E+02  0.14220941181E+03  0.41800000000E+01 0.  1.
        -11    1    3    3    0    0 -0.30128295423E+02  0.57083329737E+02  0.37710471394E+01  0.64656333916E+02  0.00000000000E+00 0. -1.
         11    1    3    3    0    0 -0.39145834170E+02  0.77214931846E+02 -0.11548861485E+03  0.14433351029E+03  0.00000000000E+00 0.  1.
</event>
<event>
 7    1  0.5831876E-006  0.1172224E+03  0.7561462E-02  0.1247751E+00
          2   -1    0    0  501    0  0.00000000000E+00  0.00000000000E+00  0.74542303288E+03  0.74542303288E+03  0.00000000000E+00 0. -1.
         -2   -1    0    0    0  501 -0.00000000000E+00 -0.00000000000E+00 -0.37469381489E+02  0.37469381489E+02  0.00000000000E+00 0.  1.
         23    2    1    2    0    0  0.40731492127E+02 -0.33726145177E+02  0.63994732880E+02  0.12476882490E+03  0.93141969659E+02 0.  0.
          5    1    1    2  502    0  0.17087371079E+02  0.64242151562E+02  0.40067810946E+03  0.40617662671E+03  0.41800000000E+01 0.  1.
         -5    1    1    2    0  502 -0.57818863206E+02 -0.30516006386E+02  0.24328080905E+03  0.25194696276E+03  0.41800000000E+01 0.  1.
        -11    1    3    3    0    0  0.42326417909E+02  0.21226550730E+02  0.48204097809E+02  0.67570164677E+02  0.00000000000E+00 0.  1.
         11    1    3    3    0    0 -0.15949257818E+01 -0.54952695907E+02  0.15790635072E+02  0.57198660226E+02  0.00000000000E+00 0. -1.
</event>
<event>
 7    1  0.5831876E-006  0.7664114E+02  0.7561462E-02  0.1338863E+00
          1   -1    0    0  501    0  0.00000000000E+00  0.00000000000E+00  0.17786204117E+03  0.17786204117E+03  0.00000000000E+00 0. -1.
         -1   -1    0    0    0  501 -0.00000000000E+00 -0.00000000000E+00 -0.85173971720E+02  0.85173971720E+02  0.00000000000E+00 0.  1.
         23    2    1    2    0    0 -0.35449466134E+02 -0.47164281064E+02  0.39006054302E+02  0.11467871811E+03  0.90269607602E+02 0.  0.
          5    1    1    2  502    0  0.32532592177E+02  0.51270220434E+02 -0.27587421629E+02  0.66824720645E+02  0.41800000000E+01 0. -1.
         -5    1    1    2    0  502  0.29168739573E+01 -0.41059393697E+01  0.81269436780E+02  0.81532574142E+02  0.41800000000E+01 0. -1.
        -11    1    3    3    0    0 -0.47483646047E+02 -0.54100187404E+02  0.57091657727E+02  0.91874829529E+02  0.00000000000E+00 0. -1.
         11    1    3    3    0    0  0.12034179913E+02  0.69359063403E+01 -0.18085603425E+02  0.22803888576E+02  0.00000000000E+00 0.  1.
</event>
<event>
 7    1  0.5831876E-006  0.8920466E+02  0.7561462E-02  0.1304789E+00
         -4   -1    0    0    0  501 -0.00000000000E+00  0.00000000000E+00  0.47411612651E+02  0.47411612651E+02  0.00000000000E+00 0.  1.
          4   -1    0    0  501    0  0.00000000000E+00 -0.00000000000E+00 -0.28985546667E+03  0.28985546667E+03  0.00000000000E+00 0. -1.
         23    2    1    2    0    0  0.41280574502E+02 -0.11585768485E+02 -0.78569396478E+02  0.12669398839E+03  0.89665493751E+02 0.  0.
          5    1    1    2  502    0 -0.36144610585E+02  0.42428562389E+02 -0.14280212330E+02  0.57688930003E+02  0.41800000000E+01 0. -1.
         -5    1    1    2    0  502 -0.51359639173E+01 -0.30842793904E+02 -0.14959424521E+03  0.15288416093E+03  0.41800000000E+01 0. -1.
        -11    1    3    3    0    0 -0.19998092805E+02 -0.20970109217E+02 -0.51406874824E+02  0.59011320741E+02  0.00000000000E+00 0. -1.
         11    1    3    3    0    0  0.61278667307E+02  0.93843407321E+01 -0.27162521654E+02  0.67682667652E+02  0.00000000000E+00 0.  1.
</event>
<event>
 7    1  0.5831876E-006  0.8627944E+02  0.7561462E-02  0.1312120E+00
          1   -1    0    0  501    0  0.00000000000E+00  0.00000000000E+00  0.25619399200E+03  0.25619399200E+03  0.00000000000E+00 0. -1.
         -1   -1    0    0    0  501 -0.00000000000E+00 -0.00000000000E+00 -0.62193147715E+02  0.62193147715E+02  0.00000000000E+00 0.  1.
         23    2    1    2    0    0 -0.47800633379E+02  0.29887774420E+02  0.44485960540E+02  0.11545249608E+03  0.90399660141E+02 0.  0.
          5    1    1    2  502    0  0.61590378342E+02 -0.57091104398E+02  0.47925927807E+02  0.96783964900E+02  0.41800000000E+01 0. -1.
         -5    1    1    2    0  502 -0.13789744963E+02  0.27203329978E+02  0.10158895593E+03  0.10615067874E+03  0.41800000000E+01 0. -1.
        -11    1    3    3    0    0 -0.26344223133E+02  0.92540579327E+01  0.70557525699E+02  0.75881619075E+02  0.00000000000E+00 0. -1.
         11    1    3    3    0    0 -0.21456410246E+02  0.20633716487E+02 -0.26071565159E+02  0.39570877000E+02  0.00000000000E+00 0.  1.
</event>
<event>
 6    1  0.5831876E-006  0.1731128E+03  0.7561462E-02  0.1174640E+00
          2   -1    0    0  501    0  0.00000000000E+00  0.00000000000E+00  0.45214335873E+03  0.45214335873E+03  0.00000000000E+00 0. -1.
         -2   -1    0    0    0  501 -0.00000000000E+00 -0.00000000000E+00 -0.74265253579E+02  0.74265253579E+02  0.00000000000E+00 0.  1.
          5    1    1    2  502    0  0.27055786648E+00  0.58907210262E+02  0.21890356587E+02  0.62982479579E+02  0.41800000000E+01 0. -1.
         -5    1    1    2    0  502 -0.44669322237E+02 -0.56721916164E+02  0.14577338037E+03  0.16272699514E+03  0.41800000000E+01 0.  1.
        -11    1    1    2    0    0 -0.64704885112E+02  0.60869190408E+02  0.92692052319E+02  0.12838846156E+03  0.00000000000E+00 0.  1.
         11    1    1    2    0    0  0.10910364948E+03 -0.63054484506E+02  0.11752231588E+03  0.17231067604E+03  0.00000000000E+00 0. -1.
</event>
<event>
 7    1  0.5831876E-006  0.5688851E+02  0.7561462E-02  0.1411373E+00
          2   -1    0    0  501    0  0.00000000000E+00  0.00000000000E+00  0.44218884120E+02  0.44218884120E+02  0.00000000000E+00 0. -1.
         -2   -1    0    0    0  501 -0.00000000000E+00 -0.00000000000E+00 -0.30279946749E+03  0.30279946749E+03  0.00000000000E+00 0.  1.
         23    2    1    2    0    0  0.31467999832E+01 -0.19989194835E+02 -0.16186977597E+03  0.18761830671E+03  0.92678661955E+02 0.  0.
          5    1    1    2  502    0  0.32700376159E+01  0.16311094069E+02 -0.12689192238E+03  0.12804599682E+03  0.41800000000E+01 0. -1.
         -5    1    1    2    0  502 -0.64168375991E+01  0.36781007664E+01  0.30181114975E+02  0.31354048082E+02  0.41800000000E+01 0. -1.
        -11    1    3    3    0    0 -0.41107914807E+02 -0.14227413287E+02 -0.11475100476E+03  0.12271948926E+03  0.00000000000E+00 0.  1.
         11    1    3    3    0    0  0.44254714790E+02 -0.57617815485E+01 -0.47118771201E+02  0.64898817457E+02  0.00000000000E+00 0. -1.
</event>
<event>
 7    1  0.5831876E-006  0.1048940E+03  0.7561462E-02  0.1270329E+00
         -1   -1    0    0    0  501 -0.00000000000E+00  0.00000000000E+00  0.46663357082E+02  0.46663357082E+02  0.00000000000E+00 0.  1.
          1   -1    0    0  501    0  0.00000000000E+00 -0.00000000000E+00 -0.27510964132E+03  0.27510964132E+03  0.00000000000E+00 0. -1.
         23    2    1    2    0    0 -0.15038662994E+02 -0.28304919033E+02 -0.71468782770E+02  0.11851073604E+03  0.88936369499E+02 0.  0.
          5    1    1    2  502    0  0.20750748893E+02 -0.47370361097E+02 -0.77749183701E+02  0.93471667666E+02  0.41800000000E+01 0.  1.
         -5    1    1    2    0  502 -0.57120858987E+01  0.75675280131E+02 -0.79228317771E+02  0.10979059470E+03  0.41800000000E+01 0.  1.
        -11    1    3    3    0    0 -0.41379542527E+02 -0.35577629442E+02 -0.72998246528E+02  0.91141528694E+02  0.00000000000E+00 0. -1.
         11    1    3    3    0    0  0.26340879533E+02  0.72727104091E+01  0.15294637583E+01  0.27369207344E+02  0.00000000000E+00 0.  1.
</event>
<event>
 7    1  0.5831876E-006  0.1944164E+03  0.7561462E-02  0.1154537E+00
         -2   -1    0    0    0  501 -0.00000000000E+00  0.00000000000E+00  0.10680338501E+03  0.10680338501E+03  0.00000000000E+00 0.  1.
          2   -1    0    0  501    0  0.00000000000E+00 -0.00000000000E+00 -0.42680569740E+03  0.42680569740E+03  0.00000000000E+00 0. -1.
         23    2    1    2    0    0  0.16963513118E+03  0.67208398491E+02 -0.12855351592E+03  0.24104441396E+03  0.91012946807E+02 0.  0.
          5    1    1    2  502    0 -0.97043727778E+02 -0.17770999694E+02 -0.17808349668E+03  0.20362833231E+03  0.41800000000E+01 0.  1.
         -5    1    1    2    0  502 -0.72591403405E+02 -0.49437398797E+02 -0.13365299787E+02  0.88936336143E+02  0.41800000000E+01 0.  1.
        -11    1    3    3    0    0  0.68156799596E+01  0.35669136182E+02 -0.11650774554E+02  0.38137662710E+02  0.00000000000E+00 0.  1.
         11    1    3    3    0    0  0.16281945122E+03  0.31539262309E+02 -0.11690274137E+03  0.20290675125E+03  0.00000000000E+00 0. -1.
</event>
<event>
 7    1  0.5831876E-006  0.7364754E+02  0.7561462E-02  0.1348111E+00
         -2   -1    0    0    0  501 -0.00000000000E+00  0.00000000000E+00  0.71550193839E+02  0.71550193839E+02  0.00000000000E+00 0. -1.
          2   -1    0    0  501    0  0.00000000000E+00 -0.00000000000E+00 -0.23342869459E+03  0.23342869459E+03  0.00000000000E+00 0.  1.
         23    2    1    2    0    0  0.14715698412E+02  0.27271057542E+02  0.18048701179E+01  0.96645682796E+02  0.91525231973E+02 0.  0.
          5    1    1    2  502    0  0.36039701882E+02 -0.29430129910E+02 -0.14770147344E+03  0.15491349300E+03  0.41800000000E+01 0.  1.
         -5    1    1    2    0  502 -0.50755400294E+02  0.21590723677E+01 -0.15981897434E+02  0.53419712635E+02  0.41800000000E+01 0.  1.
        -11    1    3    3    0    0  0.27159818446E+02  0.11445237715E+02 -0.40328004324E+02  0.49949946317E+02  0.00000000000E+00 0.  1.
         11    1    3    3    0    0 -0.12444120034E+02  0.15825819827E+02  0.42132874441E+02  0.46695736479E+02  0.00000000000E+00 0. -1.
</event>
<event>
 7    1  0.5831876E-006  0.1894710E+03  0.7561462E-02  0.1158939E+00
         -2   -1    0    0    0  501 -0.00000000000E+00  0.00000000000E+00  0.19849928432E+02  0.19849928432E+02  0.00000000000E+00 0.  1.
          2   -1    0    0  501    0  0.00000000000E+00 -0.00000000000E+00 -0.45238653569E+04  0.45238653569E+04  0.00000000000E+00 0. -1.
         23    2    1    2    0    0  0.94663078667E+02  0.12826942797E+03 -0.47047602191E+03  0.50508899245E+03  0.91395068194E+02 0.  0.
          5    1    1    2  502    0 -0.93769146411E+02 -0.15055914487E+03 -0.33324647446E+04  0.33371843604E+04  0.41800000000E+01 0.  1.
         -5    1    1    2    0  502 -0.89393225607E+00  0.22289716902E+02 -0.70107466197E+03  0.70144193248E+03  0.41800000000E+01 0.  1.
        -11    1    3    3    0    0  0.98325887726E+02  0.70617596307E+02 -0.25951302750E+03  0.28635962800E+03  0.00000000000E+00 0.  1.
         11    1    3    3    0    0 -0.36628090584E+01  0.57651831665E+02 -0.21096299440E+03  0.21872936445E+03  0.00000000000E+00 0. -1.
</event>
<event>
 7    1  0.5831876E-006  0.1458358E+03  0.7561462E-02  0.1205685E+00
         -1   -1    0    0    0  501 -0.00000000000E+00  0.00000000000E+00  0.87671543139E+02  0.87671543139E+02  0.00000000000E+00 0.  1.
          1   -1    0    0  501    0  0.00000000000E+00 -0.00000000000E+00 -0.34680095489E+03  0.34680095489E+03  0.00000000000E+00 0. -1.
         23    2    1    2    0    0  0.60973574928E+02 -0.97892630907E+02 -0.29757833181E+02  0.14888605329E+03  0.89335234942E+02 0.  0.
          5    1    1    2  502    0 -0.64676745978E+02  0.67063818135E+01 -0.43113710965E+02  0.78130157433E+02  0.41800000000E+01 0. -1.
         -5    1    1    2    0  502  0.37031710499E+01  0.91186249094E+02 -0.18625786761E+03  0.20745628731E+03  0.41800000000E+01 0. -1.
        -11    1    3    3    0    0  0.76235712911E+02 -0.90085254705E+02 -0.44649915776E+02  0.12617785866E+03  0.00000000000E+00 0. -1.
         11    1    3    3    0    0 -0.15262137983E+02 -0.78073762018E+01  0.14892082595E+02  0.22708194622E+02  0.00000000000E+00 0.  1.
</event>
<event>
 7    1  0.5831876E-006  0.1311436E+03  0.7561462E-02  0.1225769E+00
         -2   -1    0    0    0  501 -0.00000000000E+00  0.00000000000E+00  0.68669995339E+02  0.68669995339E+02  0.00000000000E+00 0.  1.
          2   -1    0    0  501    0  0.00000000000E+00 -0.00000000000E+00 -0.28617037494E+03  0.28617037494E+03  0.00000000000E+00 0. -1.
         23    2    1    2    0    0 -0.56432622948E+02 -0.56251189554E+02 -0.50952081781E+02  0.13182653176E+03  0.91832905756E+02 0.  0.
          5    1    1    2  502    0  0.10154900189E+01 -0.38323294906E+02 -0.40688009278E+02  0.56059723968E+02  0.41800000000E+01 0. -1.
         -5    1    1    2    0  502  0.55417132929E+02  0.94574484460E+02 -0.12586028854E+03  0.16695411455E+03  0.41800000000E+01 0. -1.
        -11    1    3    3    0    0 -0.65476887911E+02 -0.71091265399E+02 -0.58394798684E+02  0.11292096076E+03  0.00000000000E+00 0. -1.
         11    1    3    3    0    0  0.90442649636E+01  0.14840075846E+02  0.74427169031E+01  0.18905570997E+02  0.00000000000E+00 0.  1.
</event>
<event>
 7    1  0.5831876E-006  0.1406063E+03  0.7561462E-02  0.1212516E+00
         -4   -1    0    0    0  501 -0.00000000000E+00  0.00000000000E+00  0.17099945639E+02  0.17099945639E+02  0.00000000000E+00 0.  1.
          4   -1    0    0  501    0  0.00000000000E+00 -0.00000000000E+00 -0.12546579769E+04  0.12546579769E+04  0.00000000000E+00 0. -1.
         23    2    1    2    0    0 -0.10738983767E+02 -0.91861342030E+02 -0.47762069621E+03  0.49606104037E+03  0.96959756556E+02 0.  0.
          5    1    1    2  502    0 -0.43850737926E+02  0.13236456019E+01 -0.33012189985E+03  0.33305041723E+03  0.41800000000E+01 0. -1.
         -5    1    1    2    0  502  0.54589721692E+02  0.90537696428E+02 -0.42981543517E+03  0.44264646491E+03  0.41800000000E+01 0. -1.
        -11    1    3    3    0    0 -0.49944510444E+02 -0.30497203992E+02 -0.26270435325E+03  0.26914329045E+03  0.00000000000E+00 0. -1.
         11    1    3    3    0    0  0.39205526678E+02 -0.61364138038E+02 -0.21491634296E+03  0.22691774993E+03  0.00000000000E+00 0.  1.
</event>
<event>
 7    1  0.5831876E-006  0.1363658E+03  0.7561462E-02  0.1218304E+00
          2   -1    0    0  501    0  0.00000000000E+00  0.00000000000E+00  0.85316765139E+03  0.85316765139E+03  0.00000000000E+00 0. -1.
         -2   -1    0    0    0  501 -0.00000000000E+00 -0.00000000000E+00 -0.33072159879E+02  0.33072159879E+02  0.00000000000E+00 0.  1.
         23    2    1    2    0    0  0.10228737368E+03  0.68266677964E+02  0.37494158037E+03  0.40777130818E+03  0.10282609080E+03 0.  0.
          5    1    1    2  502    0 -0.65053002787E+02 -0.74807333440E+02  0.14372433714E+03  0.17464875549E+03  0.41800000000E+01 0.  1.
         -5    1    1    2    0  502 -0.37234370889E+02  0.65406554759E+01  0.30142957401E+03  0.30381974761E+03  0.41800000000E+01 0.  1.
        -11    1    3    3    0    0  0.42358000096E+02  0.62177249288E+02  0.31080881165E+03  0.31978481500E+03  0.00000000000E+00 0. -1.
         11    1    3    3    0    0  0.59929373579E+02  0.60894286757E+01  0.64132768720E+02  0.87986493184E+02  0.00000000000E+00 0.  1.
</event>
<event>
 7    1  0.5831876E-006  0.1015020E+03  0.7561462E-02  0.1277169E+00
         -2   -1    0    0    0  501 -0.00000000000E+00  0.00000000000E+00  0.14725331284E+02  0.14725331284E+02  0.00000000000E+00 0.  1.
          2   -1    0    0  501    0  0.00000000000E+00 -0.00000000000E+00 -0.11043653767E+04  0.11043653767E+04  0.00000000000E+00 0. -1.
         23    2    1    2    0    0  0.27715381304E+02 -0.55436177151E+02 -0.40572985804E+03  0.42107947183E+03  0.94073863513E+02 0.  0.
          5    1    1    2  502    0 -0.20651628755E+02 -0.12345684510E+02 -0.51834900797E+03  0.51892395604E+03  0.41800000000E+01 0.  1.
         -5    1    1    2    0  502 -0.70637525491E+01  0.67781861661E+02 -0.16556117946E+03  0.17908728016E+03  0.41800000000E+01 0.  1.
        -11    1    3    3    0    0  0.16389791603E+02 -0.80843827581E+02 -0.26186367959E+03  0.27454860483E+03  0.00000000000E+00 0.  1.
         11    1    3    3    0    0  0.11325589700E+02  0.25407650430E+02 -0.14386617844E+03  0.14653086700E+03  0.00000000000E+00 0. -1.
</event>
<event>
 7    1  0.5831876E-006  0.1327284E+03  0.7561462E-02  0.1223463E+00
          1   -1    0    0  501    0  0.00000000000E+00  0.00000000000E+00  0.58287599337E+03  0.58287599337E+03  0.00000000000E+00 0. -1.
         -1   -1    0    0    0  501 -0.00000000000E+00 -0.00000000000E+00 -0.41330664558E+02  0.41330664558E+02  0.00000000000E+00 0.  1.
         23    2    1    2    0    0 -0.10863284706E+03  0.77967033102E+01  0.21649702633E+03  0.25928937933E+03  0.92185333869E+02 0.  0.
          5    1    1    2  502    0  0.98487821249E+02 -0.46704963488E+02  0.29507555606E+03  0.31459221340E+03  0.41800000000E+01 0. -1.
         -5    1    1    2    0  502  0.10145025813E+02  0.38908260178E+02  0.29972746422E+02  0.50325065195E+02  0.41800000000E+01 0. -1.
        -11    1    3    3    0    0 -0.89227460743E+02  0.22002791083E+02  0.21654579374E+03  0.23523975717E+03  0.00000000000E+00 0. -1.
         11    1    3    3    0    0 -0.19405386319E+02 -0.14206087773E+02 -0.48767407395E-01  0.24049622165E+02  0.00000000000E+00 0.  1.
</event>
<event>
 6    1  0.1290430E-005  0.8433338E+02  0.7561462E-02  0.1317185E+00
          2   -1    0    0  501    0  0.00000000000E+00  0.00000000000E+00  0.98493480231E+02  0.98493480231E+02  0.00000000000E+00 0. -1.
         -2   -1    0    0    0  501 -0.00000000000E+00 -0.00000000000E+00 -0.12761804845E+03  0.12761804845E+03  0.00000000000E+00 0.  1.
          5    1    1    2  502    0  0.57219248460E+02 -0.19849462874E+02  0.41419258017E+02  0.73491978511E+02  0.41800000000E+01 0. -1.
         -5    1    1    2    0  502 -0.70360869262E+02 -0.13018032145E+02  0.11754647826E+01  0.71686645909E+02  0.41800000000E+01 0.  1.
        -11    1    1    2    0    0  0.51855652146E+01  0.23143243772E+02 -0.36395162335E+02  0.43440852435E+02  0.00000000000E+00 0. -1.
         11    1    1    2    0    0  0.79560555874E+01  0.97242512479E+01 -0.35324128682E+02  0.37492051824E+02  0.00000000000E+00 0.  1.
</event>
<event>
 7    1  0.5831876E-006  0.1461791E+03  0.7561462E-02  0.1205248E+00
         -1   -1    0    0    0  501 -0.00000000000E+00  0.00000000000E+00  0.18226819466E+03  0.18226819466E+03  0.00000000000E+00 0.  1.
          1   -1    0    0  501    0  0.00000000000E+00 -0.00000000000E+00 -0.22624889928E+03  0.22624889928E+03  0.00000000000E+00 0. -1.
         23    2    1    2    0    0 -0.10805316062E+03 -0.18913040643E+02  0.11147957660E+03  0.18081263733E+03  0.90732161847E+02 0.  0.
          5    1    1    2  502    0  0.92866135784E+02  0.61263713732E+02 -0.14223095944E+03  0.18062247927E+03  0.41800000000E+01 0. -1.
         -5    1    1    2    0  502  0.15187024839E+02 -0.42350673088E+02 -0.13229321781E+02  0.47081977330E+02  0.41800000000E+01 0. -1.
        -11    1    3    3    0    0 -0.57230814244E+02 -0.50227668190E+02  0.35028558305E+02  0.83816374580E+02  0.00000000000E+00 0. -1.
         11    1    3    3    0    0 -0.50822346380E+02  0.31314627547E+02  0.76451018291E+02  0.96996262751E+02  0.00000000000E+00 0.  1.
</event>
<event>
 7    1  0.5831876E-006  0.1575013E+03  0.7561462E-02  0.1191547E+00
          3   -1    0    0  501    0  0.00000000000E+00  0.00000000000E+00  0.11219669602E+03  0.11219669602E+03  0.00000000000E+00 0. -1.
         -3   -1    0    0    0  501 -0.00000000000E+00 -0.00000000000E+00 -0.33150572564E+03  0.33150572564E+03  0.00000000000E+00 0.  1.
         23    2    1    2    0    0 -0.11413859643E+03  0.88302072602E+02 -0.18240248426E+03  0.24919140367E+03  0.89447270376E+02 0.  0.
          5    1    1    2  502    0  0.12758735215E+03 -0.90435100250E+02 -0.16131276910E+01  0.15645163587E+03  0.41800000000E+01 0. -1.
         -5    1    1    2    0  502 -0.13448755714E+02  0.21330276476E+01 -0.35293417661E+02  0.38059382121E+02  0.41800000000E+01 0. -1.
        -11    1    3    3    0    0 -0.72156556223E+02  0.56687351598E+02 -0.17296223172E+03  0.19579570485E+03  0.00000000000E+00 0.  1.
         11    1    3    3    0    0 -0.41982040210E+02  0.31614721004E+02 -0.94402525423E+01  0.53395698819E+02  0.00000000000E+00 0. -1.
</event>
<event>
 7    1  0.5831876E-006  0.9766849E+02  0.7561462E-02  0.1285277E+00
          1   -1    0    0  501    0  0.00000000000E+00  0.00000000000E+00  0.10514133618E+04  0.10514133618E+04  0.00000000000E+00 0. -1.
         -1   -1    0    0    0  501 -0.00000000000E+00 -0.00000000000E+00 -0.12049355831E+02  0.12049355831E+02  0.00000000000E+00 0.  1.
         23    2    1    2    0    0  0.52362475061E+01 -0.28075183561E+02  0.38577008083E+03  0.39739324474E+03  0.91034067685E+02 0.  0.
          5    1    1    2  502    0  0.10555319746E+02  0.62672530543E+02  0.57646007180E+03  0.57996805743E+03  0.41800000000E+01 0. -1.
         -5    1    1    2    0  502 -0.15791567252E+02 -0.34597346982E+02  0.77133853378E+02  0.86101415502E+02  0.41800000000E+01 0. -1.
        -11    1    3    3    0    0  0.16811237956E+02  0.29880114440E+02  0.10447028063E+03  0.10995216458E+03  0.00000000000E+00 0. -1.
         11    1    3    3    0    0 -0.11574990450E+02 -0.57955298001E+02  0.28129980020E+03  0.28744108016E+03  0.00000000000E+00 0.  1.
</event>
<event>
 7    1  0.5831876E-006  0.7844323E+02  0.7561462E-02  0.1333528E+00
         -3   -1    0    0    0  501 -0.00000000000E+00  0.00000000000E+00  0.31218637083E+02  0.31218637083E+02  0.00000000000E+00 0.  1.
          3   -1    0    0  501    0  0.00000000000E+00 -0.00000000000E+00 -0.51951663906E+03  0.51951663906E+03  0.00000000000E+00 0. -1.
         23    2    1    2    0    0  0.56868408440E+01  0.41393417327E+02 -0.18750561022E+03  0.22230037738E+03  0.11186308044E+03 0.  0.
          5    1    1    2  502    0  0.43322422135E+01 -0.52984556944E+02 -0.38765029568E+02  0.65926713210E+02  0.41800000000E+01 0. -1.
         -5    1    1    2    0  502 -0.10019083058E+02  0.11591139617E+02 -0.26202736219E+03  0.26250818555E+03  0.41800000000E+01 0. -1.
        -11    1    3    3    0    0  0.21001928078E+01  0.64380484610E+02 -0.18830886363E+03  0.19902131979E+03  0.00000000000E+00 0. -1.
         11    1    3    3    0    0  0.35866480361E+01 -0.22987067283E+02  0.80325341584E+00  0.23279057594E+02  0.00000000000E+00 0.  1.
</event>
<event>
 7    1  0.5831876E-006  0.1473789E+03  0.7561462E-02  0.1203731E+00
          1   -1    0    0  501    0  0.00000000000E+00  0.00000000000E+00  0.11247038786E+04  0.11247038786E+04  0.00000000000E+00 0. -1.
         -1   -1    0    0    0  501 -0.00000000000E+00 -0.00000000000E+00 -0.28835469288E+02  0.28835469288E+02  0.00000000000E+00 0.  1.
         23    2    1    2    0    0  0.12192945953E+03  0.36175350911E+02  0.30359266916E+03  0.34142946013E+03  0.90719999766E+02 0.  0.
          5    1    1    2  502    0 -0.32931834055E+02 -0.57336142817E+02  0.53372121941E+03  0.53781758191E+03  0.41800000000E+01 0. -1.
         -5    1    1    2    0  502 -0.88997625477E+02  0.21160791906E+02  0.25855452079E+03  0.27429230590E+03  0.41800000000E+01 0. -1.
        -11    1    3    3    0    0  0.56525229955E+02  0.43210373968E+02  0.23849872350E+03  0.24888527307E+03  0.00000000000E+00 0. -1.
         11    1    3    3    0    0  0.65404229577E+02 -0.70350230574E+01  0.65093945662E+02  0.92544187055E+02  0.00000000000E+00 0.  1.
</event>
<event>
 7    1  0.5831876E-006  0.1093074E+03  0.7561462E-02  0.1261858E+00
         -1   -1    0    0    0  501 -0.00000000000E+00  0.00000000000E+00  0.20158757207E+03  0.20158757207E+03  0.00000000000E+00 0.  1.
          1   -1    0    0  501    0  0.00000000000E+00 -0.00000000000E+00 -0.69946681247E+02  0.69946681247E+02  0.00000000000E+00 0. -1.
         23    2    1    2    0    0  0.24246880854E+02  0.32972016553E+02  0.93026698013E+02  0.13437090211E+03  0.87900555656E+02 0.  0.
          5    1    1    2  502    0 -0.54566377187E+02 -0.66482670030E+02  0.28082789378E+02  0.90573453025E+02  0.41800000000E+01 0. -1.
         -5    1    1    2    0  502  0.30319496333E+02  0.33510653477E+02  0.10531403435E+02  0.46589898182E+02  0.41800000000E+01 0. -1.
        -11    1    3    3    0    0  0.51397180974E+02  0.11910514584E+02  0.83398878944E+02  0.98685883381E+02  0.00000000000E+00 0.  1.
         11    1    3    3    0    0 -0.27150300120E+02  0.21061501970E+02  0.96278190697E+01  0.35685018731E+02  0.00000000000E+00 0. -1.
</event>
<event>
 7    1  0.5831876E-006  0.1231381E+03  0.7561462E-02  0.1238008E+00
         -3   -1    0    0    0  501 -0.00000000000E+00  0.00000000000E+00  0.10973145142E+03  0.10973145142E+03  0.00000000000E+00 0.  1.
          3   -1    0    0  501    0  0.00000000000E+00 -0.00000000000E+00 -0.27684270644E+03  0.27684270644E+03  0.00000000000E+00 0. -1.
         23    2    1    2    0    0  0.44650003842E+02 -0.86113688332E+02  0.26895190187E+02  0.13618392523E+03  0.91725242301E+02 0.  0.
          5    1    1    2  502    0  0.14935234705E+02  0.28328695256E+02  0.68537149709E+01  0.33015481513E+02  0.41800000000E+01 0. -1.
         -5    1    1    2    0  502 -0.59585238547E+02  0.57784993076E+02 -0.20086016018E+03  0.21737475112E+03  0.41800000000E+01 0. -1.
        -11    1    3    3    0    0  0.31285046584E+02  0.10757499616E+02 -0.47057449533E+01  0.33415894023E+02  0.00000000000E+00 0. -1.
         11    1    3    3    0    0  0.13364957257E+02 -0.96871187948E+02  0.31600935140E+02  0.10276803121E+03  0.00000000000E+00 0.  1.
</event>
<event>
 7    1  0.5831876E-006  0.1805002E+03  0.7561462E-02  0.1167320E+00
         -1   -1    0    0    0  501 -0.00000000000E+00  0.00000000000E+00  0.12298859104E+03  0.12298859104E+03  0.00000000000E+00 0.  1.
          1   -1    0    0  501    0  0.00000000000E+00 -0.00000000000E+00 -0.30521957480E+03  0.30521957480E+03  0.00000000000E+00 0. -1.
         23    2    1    2    0    0 -0.13709347511E+03  0.78224308642E+02 -0.11754584543E+03  0.21667391243E+03  0.90647091339E+02 0.  0.
          5    1    1    2  502    0 -0.12137445570E+02 -0.55238008138E+01 -0.41602806814E+02  0.43887309044E+02  0.41800000000E+01 0.  1.
         -5    1    1    2    0  502  0.14923092068E+03 -0.72700507829E+02 -0.23082331523E+02  0.16764694437E+03  0.41800000000E+01 0.  1.
        -11    1    3    3    0    0 -0.44083020239E+02  0.76093191623E+02 -0.45561167369E+02  0.99041942917E+02  0.00000000000E+00 0.  1.
         11    1    3    3    0    0 -0.93010454876E+02  0.21311170196E+01 -0.71984678059E+02  0.11763196951E+03  0.00000000000E+00 0. -1.
</event>
<event>
 7    1  0.5831876E-006  0.1326827E+03  0.7561462E-02  0.1223529E+00
         -2   -1    0    0    0  501 -0.00000000000E+00  0.00000000000E+00  0.27362662702E+02  0.27362662702E+02  0.00000000000E+00 0.  1.
          2   -1    0    0  501    0  0.00000000000E+00 -0.00000000000E+00 -0.69015313700E+03  0.69015313700E+03  0.00000000000E+00 0. -1.
         23    2    1    2    0    0 -0.43509638118E+00  0.85018535132E+02 -0.25824977306E+03  0.28562625860E+03  0.87527559628E+02 0.  0.
          5    1    1    2  502    0  0.35694738562E+01 -0.11526798974E+03 -0.35797730304E+03  0.37611789707E+03  0.41800000000E+01 0.  1.
         -5    1    1    2    0  502 -0.31343774751E+01  0.30249454606E+02 -0.46563398200E+02  0.55771644033E+02  0.41800000000E+01 0.  1.
        -11    1    3    3    0    0 -0.40065863848E+02  0.60831315148E+02 -0.12699270875E+03  0.14639969407E+03  0.00000000000E+00 0.  1.
         11    1    3    3    0    0  0.39630767467E+02  0.24187219984E+02 -0.13125706431E+03  0.13922656453E+03  0.00000000000E+00 0. -1.
</event>
<event>
 7    1  0.5831876E-006  0.1295061E+03  0.7561462E-02  0.1228190E+00
         -2   -1    0    0    0  501 -0.00000000000E+00  0.00000000000E+00  0.24581519801E+02  0.24581519801E+02  0.00000000000E+00 0.  1.
          2   -1    0    0  501    0  0.00000000000E+00 -0.00000000000E+00 -0.10907216574E+04  0.10907216574E+04  0.00000000000E+00 0. -1.
         23    2    1    2    0    0  0.84483248924E+02 -0.68137050348E+02 -0.30597383779E+03  0.33731314712E+03  0.91542846949E+02 0.  0.
          5    1    1    2  502    0  0.46933195460E+01  0.23832114306E+02 -0.21729197097E+02  0.32857682924E+02  0.41800000000E+01 0. -1.
         -5    1    1    2    0  502 -0.89176568470E+02  0.44304936042E+02 -0.73843710275E+03  0.74513234720E+03  0.41800000000E+01 0. -1.
        -11    1    3    3    0    0  0.95419456899E+02 -0.38116160735E+02 -0.17913179625E+03  0.20650887364E+03  0.00000000000E+00 0.  1.
         11    1    3    3    0    0 -0.10936207975E+02 -0.30020889613E+02 -0.12684204155E+03  0.13080427348E+03  0.00000000000E+00 0. -1.
</event>
<event>
 7    1  0.5831876E-006  0.1069427E+03  0.7561462E-02  0.1266338E+00
         -1   -1    0    0    0  501 -0.00000000000E+00  0.00000000000E+00  0.22262923254E+02  0.22262923254E+02  0.00000000000E+00 0.  1.
          1   -1    0    0  501    0  0.00000000000E+00 -0.00000000000E+00 -0.91950669452E+03  0.91950669452E+03  0.00000000000E+00 0. -1.
         23    2    1    2    0    0 -0.73435403703E+02 -0.50637114027E+02 -0.29072714683E+03  0.31740319192E+03  0.90915545985E+02 0.  0.
          5    1    1    2  502    0  0.47136803227E+02 -0.82897385693E+01 -0.47888199119E+03  0.48128581100E+03  0.41800000000E+01 0. -1.
         -5    1    1    2    0  502  0.26298600476E+02  0.58926852597E+02 -0.12763463325E+03  0.14308061486E+03  0.41800000000E+01 0.  1.
        -11    1    3    3    0    0 -0.49315333964E+02 -0.50106079647E+01 -0.47128295067E+02  0.68397255443E+02  0.00000000000E+00 0.  1.
         11    1    3    3    0    0 -0.24120069739E+02 -0.45626506063E+02 -0.24359885176E+03  0.24900593647E+03  0.00000000000E+00 0. -1.
</event>
<event>
 7    1  0.5831876E-006  0.5527900E+03  0.7561462E-02  0.1000850E+00
         -2   -1    0    0    0  501 -0.00000000000E+00  0.00000000000E+00  0.28764400030E+03  0.28764400030E+03  0.00000000000E+00 0.  1.
          2   -1    0    0  501    0  0.00000000000E+00 -0.00000000000E+00 -0.11756398990E+04  0.11756398990E+04  0.00000000000E+00 0. -1.
         23    2    1    2    0    0 -0.23925820545E+03  0.49381039486E+03 -0.24363366412E+03  0.60774945541E+03  0.94386669121E+02 0.  0.
          5    1    1    2  502    0  0.22158023701E+03 -0.45637313051E+03 -0.63517604831E+03  0.81292085742E+03  0.41800000000E+01 0.  1.
         -5    1    1    2    0  502  0.17677968434E+02 -0.37437264354E+02 -0.91861862299E+01  0.42613586422E+02  0.41800000000E+01 0.  1.
        -11    1    3    3    0    0  0.11166137846E+01  0.65260211923E+02 -0.33124804472E+02  0.73194226261E+02  0.00000000000E+00 0. -1.
         11    1    3    3    0    0 -0.24037481923E+03  0.42855018294E+03 -0.21050885965E+03  0.53455522915E+03  0.00000000000E+00 0.  1.
</event>
<event>
 7    1  0.5831876E-006  0.8243182E+02  0.7561462E-02  0.1322289E+00
          2   -1    0    0  501    0  0.00000000000E+00  0.00000000000E+00  0.85946954673E+03  0.85946954673E+03  0.00000000000E+00 0. -1.
         -2   -1    0    0    0  501 -0.00000000000E+00 -0.00000000000E+00 -0.17756489499E+02  0.17756489499E+02  0.00000000000E+00 0.  1.
         23    2    1    2    0    0  0.58762578362E+02 -0.15520556663E+02  0.38399951036E+03  0.39885026455E+03  0.89061671242E+02 0.  0.
          5    1    1    2  502    0 -0.45965026801E+02  0.35021635194E+02  0.74245556790E+02  0.94176290666E+02  0.41800000000E+01 0. -1.
         -5    1    1    2    0  502 -0.12797551561E+02 -0.19501078531E+02  0.38346799008E+03  0.38419948101E+03  0.41800000000E+01 0. -1.
        -11    1    3    3    0    0 -0.11084633557E+02 -0.63712285136E+01  0.56142176040E+01  0.13963563054E+02  0.00000000000E+00 0.  1.
         11    1    3    3    0    0  0.69847211919E+02 -0.91493281489E+01  0.37838529275E+03  0.38488670150E+03  0.00000000000E+00 0. -1.
</event>
<event>
 7    1  0.5831876E-006  0.1045980E+03  0.7561462E-02  0.1270914E+00
         -1   -1    0    0    0  501 -0.00000000000E+00  0.00000000000E+00  0.27960919291E+03  0.27960919291E+03  0.00000000000E+00 0.  1.
          1   -1    0    0  501    0  0.00000000000E+00 -0.00000000000E+00 -0.49106403724E+02  0.49106403724E+02  0.00000000000E+00 0. -1.
         23    2    1    2    0    0 -0.47457263584E+02 -0.28401891320E+01  0.11343326243E+03  0.15091289320E+03  0.87449058129E+02 0.  0.
          5    1    1    2  502    0  0.54118206294E+01  0.48304011017E+02  0.41651905711E+01  0.48963113619E+02  0.41800000000E+01 0. -1.
         -5    1    1    2    0  502  0.42045442955E+02 -0.45463821885E+02  0.11290433618E+03  0.12883958981E+03  0.41800000000E+01 0. -1.
        -11    1    3    3    0    0 -0.62244665043E+02 -0.28709291212E+02  0.89260792577E+02  0.11254381733E+03  0.00000000000E+00 0.  1.
         11    1    3    3    0    0  0.14787401459E+02  0.25869102080E+02  0.24172469854E+02  0.38369075870E+02  0.00000000000E+00 0. -1.
</event>
<event>
 7    1  0.5831876E-006  0.1206909E+03  0.7561462E-02  0.1241962E+00
         -2   -1    0    0    0  501 -0.00000000000E+00  0.00000000000E+00  0.16985815546E+02  0.16985815546E+02  0.00000000000E+00 0.  1.
          2   -1    0    0  501    0  0.00000000000E+00 -0.00000000000E+00 -0.15401967235E+04  0.15401967235E+04  0.00000000000E+00 0. -1.
         23    2    1    2    0    0 -0.35447124675E+02  0.39551744921E+02 -0.19312813936E+03  0.22017527299E+03  0.91421187100E+02 0.  0.
          5    1    1    2  502    0 -0.46010331846E+02 -0.29871983640E+01 -0.41875980312E+03  0.42131119033E+03  0.41800000000E+01 0. -1.
         -5    1    1    2    0  502  0.81457456520E+02 -0.36564546557E+02 -0.91132296548E+03  0.91569607573E+03  0.41800000000E+01 0. -1.
        -11    1    3    3    0    0 -0.66626126588E+02  0.23641184911E+02 -0.12672043094E+03  0.14510690537E+03  0.00000000000E+00 0.  1.
         11    1    3    3    0    0  0.31179001913E+02  0.15910560010E+02 -0.66407708418E+02  0.75068367622E+02  0.00000000000E+00 0. -1.
</event>
<event>
 7    1  0.5831876E-006  0.7347863E+02  0.7561462E-02  0.1348648E+00
         -2   -1    0    0    0  501 -0.00000000000E+00  0.00000000000E+00  0.46051724138E+02  0.46051724138E+02  0.00000000000E+00 0.  1.
          2   -1    0    0  501    0  0.00000000000E+00 -0.00000000000E+00 -0.74332543304E+03  0.74332543304E+03  0.00000000000E+00 0. -1.
         23    2    1    2    0    0 -0.66232162298E-01 -0.23019612277E+02 -0.28573173220E+02  0.98081918352E+02  0.90960043666E+02 0.  0.
          5    1    1    2  502    0 -0.31208200256E+02  0.47420107663E+01 -0.64913130676E+03  0.64991181267E+03  0.41800000000E+01 0. -1.
         -5    1    1    2    0  502  0.31274432419E+02  0.18277601511E+02 -0.19569228923E+02  0.41383426160E+02  0.41800000000E+01 0.  1.
        -11    1    3    3    0    0 -0.26990406562E+02  0.15900492612E+02 -0.38594124286E+02  0.49707284587E+02  0.00000000000E+00 0. -1.
         11    1    3    3    0    0  0.26924174399E+02 -0.38920104889E+02  0.10020951065E+02  0.48374633765E+02  0.00000000000E+00 0.  1.
</event>
<event>
 7    1  0.5831876E-006  0.1224930E+03  0.7561462E-02  0.1239040E+00
         -2   -1    0    0    0  501 -0.00000000000E+00  0.00000000000E+00  0.41383065360E+02  0.41383065360E+02  0.00000000000E+00 0.  1.
          2   -1    0    0  501    0  0.00000000000E+00 -0.00000000000E+00 -0.86300827107E+03  0.86300827107E+03  0.00000000000E+00 0. -1.
         23    2    1    2    0    0  0.30258313344E+02  0.86210362542E+02 -0.96328766992E+02  0.16273676692E+03  0.94107554534E+02 0.  0.
          5    1    1    2  502    0 -0.42027758269E+01 -0.94254882948E+02 -0.27987559816E+03  0.29538021114E+03  0.41800000000E+01 0.  1.
         -5    1    1    2    0  502 -0.26055537517E+02  0.80445204063E+01 -0.44542084055E+03  0.44627435837E+03  0.41800000000E+01 0.  1.
        -11    1    3    3    0    0 -0.23670776957E+02  0.30855334030E+01 -0.45482308703E+02  0.51366006299E+02  0.00000000000E+00 0.  1.
         11    1    3    3    0    0  0.53929090302E+02  0.83124829139E+02 -0.50846458289E+02  0.11137076062E+03  0.00000000000E+00 0. -1.
</event>
<event>
 6    1  0.5831876E-006  0.2439624E+03  0.7561462E-02  0.1117181E+00
          2   -1    0    0  501    0  0.00000000000E+00  0.00000000000E+00  0.13224119322E+04  0.13224119322E+04  0.00000000000E+00 0. -1.
         -2   -1    0    0    0  501 -0.00000000000E+00 -0.00000000000E+00 -0.65352234814E+02  0.65352234814E+02  0.00000000000E+00 0.  1.
          5    1    1    2  502    0 -0.73170357168E+02  0.11750898588E+02  0.47635157124E+03  0.48209986166E+03  0.41800000000E+01 0.  1.
         -5    1    1    2    0  502 -0.48637923474E+02 -0.10212622990E+03  0.37820228886E+03  0.39477823918E+03  0.41800000000E+01 0.  1.
        -11    1    1    2    0    0  0.19554810700E+03  0.16689091213E+02  0.32984205951E+03  0.38381424171E+03  0.00000000000E+00 0. -1.
         11    1    1    2    0    0 -0.73739826357E+02  0.73686240103E+02  0.72663777771E+02  0.12707182446E+03  0.00000000000E+00 0.  1.
</event>
<event>
 7    1  0.5831876E-006  0.1119972E+03  0.7561462E-02  0.1256915E+00
          2   -1    0    0  501    0  0.00000000000E+00  0.00000000000E+00  0.24675726807E+03  0.24675726807E+03  0.00000000000E+00 0. -1.
         -2   -1    0    0    0  501 -0.00000000000E+00 -0.00000000000E+00 -0.83192687231E+02  0.83192687231E+02  0.00000000000E+00 0.  1.
         23    2    1    2    0    0 -0.79089623887E+02 -0.34763040578E+02  0.30700952164E+02  0.12804853779E+03  0.89388153414E+02 0.  0.
          5    1    1    2  502    0  0.11136049423E+02 -0.13645333233E+02  0.11507599765E+03  0.11649104837E+03  0.41800000000E+01 0. -1.
         -5    1    1    2    0  502  0.67953574465E+02  0.48408373811E+02  0.17787631021E+02  0.85410369130E+02  0.41800000000E+01 0. -1.
        -11    1    3    3    0    0  0.43856396506E+01 -0.38545262430E+02 -0.65154076813E+00  0.38799427783E+02  0.00000000000E+00 0.  1.
         11    1    3    3    0    0 -0.83475263538E+02  0.37822218517E+01  0.31352492932E+02  0.89249110012E+02  0.00000000000E+00 0. -1.
</event>
<event>
 7    1  0.5831876E-006  0.8995216E+02  0.7561462E-02  0.1302968E+00
          2   -1    0    0  501    0  0.00000000000E+00  0.00000000000E+00  0.92804938182E+02  0.92804938182E+02  0.00000000000E+00 0. -1.
         -2   -1    0    0    0  501 -0.00000000000E+00 -0.00000000000E+00 -0.18464620525E+03  0.18464620525E+03  0.00000000000E+00 0.  1.
         23    2    1    2    0    0 -0.15604483619E+02  0.58110319817E+02 -0.87665154533E+02  0.13858022988E+03  0.88876271386E+02 0.  0.
          5    1    1    2  502    0 -0.49619205720E+01 -0.64449963216E+02 -0.54067409754E+02  0.84375207329E+02  0.41800000000E+01 0. -1.
         -5    1    1    2    0  502  0.20566404191E+02  0.63396433993E+01  0.49891297213E+02  0.54495706229E+02  0.41800000000E+01 0. -1.
        -11    1    3    3    0    0  0.28589591370E+02  0.20595441874E+02 -0.69346913991E+02  0.77785162086E+02  0.00000000000E+00 0.  1.
         11    1    3    3    0    0 -0.44194074989E+02  0.37514877944E+02 -0.18318240542E+02  0.60795067792E+02  0.00000000000E+00 0. -1.
</event>
<event>
 7    1  0.5831876E-006  0.2052215E+03  0.7561462E-02  0.1145407E+00
         -2   -1    0    0    0  501 -0.00000000000E+00  0.00000000000E+00  0.25951624447E+03  0.25951624447E+03  0.00000000000E+00 0.  1.
          2   -1    0    0  501    0  0.00000000000E+00 -0.00000000000E+00 -0.19898281500E+03  0.19898281500E+03  0.00000000000E+00 0. -1.
         23    2    1    2    0    0  0.18623210991E+02 -0.19493235505E+03  0.66988981036E+02  0.22604625948E+03  0.90906219892E+02 0.  0.
          5    1    1    2  502    0  0.29092255948E+02  0.36776086076E+02 -0.42379347133E+02  0.63342886946E+02  0.41800000000E+01 0.  1.
         -5    1    1    2    0  502 -0.47715466940E+02  0.15815626897E+03  0.35923795567E+02  0.16910991304E+03  0.41800000000E+01 0.  1.
        -11    1    3    3    0    0  0.24335010188E+02 -0.18549049092E+03  0.84555595994E+02  0.20530115381E+03  0.00000000000E+00 0.  1.
         11    1    3    3    0    0 -0.57117991963E+01 -0.94418641238E+01 -0.17566614958E+02  0.20745105670E+02  0.00000000000E+00 0. -1.
</event>
<event>
 7    1  0.5831876E-006  0.1533593E+03  0.7561462E-02  0.1196405E+00
          1   -1    0    0  501    0  0.00000000000E+00  0.00000000000E+00  0.30367043851E+03  0.30367043851E+03  0.00000000000E+00 0. -1.
         -1   -1    0    0    0  501 -0.00000000000E+00 -0.00000000000E+00 -0.11647659533E+03  0.11647659533E+03  0.00000000000E+00 0.  1.
         23    2    1    2    0    0  0.71470826389E+02 -0.12761188144E+03  0.36781268486E+02  0.17588361277E+03  0.90494818744E+02 0.  0.
          5    1    1    2  502    0 -0.40831475822E+02  0.59436252709E+02  0.15317504507E+03  0.16935154084E+03  0.41800000000E+01 0. -1.
         -5    1    1    2    0  502 -0.30639350567E+02  0.68175628734E+02 -0.27624703675E+01  0.74911880226E+02  0.41800000000E+01 0. -1.
        -11    1    3    3    0    0  0.43458930095E+02 -0.12398477843E+03  0.24199715393E+01  0.13140304467E+03  0.00000000000E+00 0.  1.
         11    1    3    3    0    0  0.28011896294E+02 -0.36271030124E+01  0.34361296947E+02  0.44480568095E+02  0.00000000000E+00 0. -1.
</event>
<event>
 7    1  0.5831876E-006  0.1008095E+03  0.7561462E-02  0.1278603E+00
          3   -1    0    0  501    0  0.00000000000E+00  0.00000000000E+00  0.32975542075E+03  0.32975542075E+03  0.00000000000E+00 0. -1.
         -3   -1    0    0    0  501 -0.00000000000E+00 -0.00000000000E+00 -0.55810659928E+02  0.55810659928E+02  0.00000000000E+00 0.  1.
         23    2    1    2    0    0 -0.76684572868E+02 -0.24984671264E+01  0.86366613520E+02  0.14741072437E+03  0.91563986779E+02 0.  0.
          5    1    1    2  502    0  0.94706605702E+00  0.10013016941E+02 -0.16802244593E+02  0.20023617698E+02  0.41800000000E+01 0. -1.
         -5    1    1    2    0  502  0.75737506811E+02 -0.75145498144E+01  0.20438039189E+03  0.21813173861E+03  0.41800000000E+01 0. -1.
        -11    1    3    3    0    0  0.16754927298E+02 -0.11960252173E+02  0.34361832632E+02  0.40056344849E+02  0.00000000000E+00 0. -1.
         11    1    3    3    0    0 -0.93439500166E+02  0.94617850462E+01  0.52004780888E+02  0.10735437952E+03  0.00000000000E+00 0.  1.
</event>
<event>
 7    1  0.5831876E-006  0.8252781E+02  0.7561462E-02  0.1322027E+00
         -1   -1    0    0    0  501 -0.00000000000E+00  0.00000000000E+00  0.20073022891E+03  0.20073022891E+03  0.00000000000E+00 0.  1.
          1   -1    0    0  501    0  0.00000000000E+00 -0.00000000000E+00 -0.63505543190E+02  0.63505543190E+02  0.00000000000E+00 0. -1.
         23    2    1    2    0    0 -0.24381053495E+02  0.46158298421E+01  0.84792400975E+02  0.12635192509E+03  0.90328932551E+02 0.  0.
          5    1    1    2  502    0  0.52022683484E+02  0.15483162289E+02  0.77914636448E+02  0.95048676393E+02  0.41800000000E+01 0. -1.
         -5    1    1    2    0  502 -0.27641629988E+02 -0.20098992131E+02 -0.25482351707E+02  0.42835170615E+02  0.41800000000E+01 0. -1.
        -11    1    3    3    0    0  0.14578506371E+02 -0.23837715595E+02  0.70808629674E+02  0.76122477424E+02  0.00000000000E+00 0.  1.
         11    1    3    3    0    0 -0.38959559866E+02  0.28453545437E+02  0.13983771301E+02  0.50229447665E+02  0.00000000000E+00 0. -1.
</event>
<event>
 7    1  0.5831876E-006  0.7105471E+02  0.7561462E-02  0.1356543E+00
          4   -1    0    0  501    0  0.00000000000E+00  0.00000000000E+00  0.53049084886E+02  0.53049084886E+02  0.00000000000E+00 0.  1.
         -4   -1    0    0    0  501 -0.00000000000E+00 -0.00000000000E+00 -0.24225352220E+03  0.24225352220E+03  0.00000000000E+00 0. -1.
         23    2    1    2    0    0 -0.68223033612E+01  0.30333894270E+02 -0.99493036375E+02  0.13826123086E+03  0.90832894415E+02 0.  0.
          5    1    1    2  502    0  0.32822402303E+02  0.18860470215E+02  0.12923965858E+02  0.40218512195E+02  0.41800000000E+01 0.  1.
         -5    1    1    2    0  502 -0.26000098942E+02 -0.49194364485E+02 -0.10263536679E+03  0.11682286403E+03  0.41800000000E+01 0.  1.
        -11    1    3    3    0    0  0.96608033280E+01 -0.37510003351E+01  0.14682686440E+02  0.17971711258E+02  0.00000000000E+00 0.  1.
         11    1    3    3    0    0 -0.16483106689E+02  0.34084894605E+02 -0.11417572282E+03  0.12028951960E+03  0.00000000000E+00 0. -1.
</event>
<event>
 7    1  0.5831876E-006  0.1056830E+03  0.7561462E-02  0.1268780E+00
          1   -1    0    0  501    0  0.00000000000E+00  0.00000000000E+00  0.20570669862E+03  0.20570669862E+03  0.00000000000E+00 0. -1.
         -1   -1    0    0    0  501 -0.00000000000E+00 -0.00000000000E+00 -0.69362242413E+02  0.69362242413E+02  0.00000000000E+00 0.  1.
         23    2    1    2    0    0  0.36036706140E+02  0.20175846613E+02  0.45266530702E+02  0.11492073077E+03  0.97221430680E+02 0.  0.
          5    1    1    2  502    0  0.27703804998E+02  0.16208445956E+02 -0.11148396766E+02  0.34234101158E+02  0.41800000000E+01 0. -1.
         -5    1    1    2    0  502 -0.63740511138E+02 -0.36384292569E+02  0.10222632227E+03  0.12591410910E+03  0.41800000000E+01 0. -1.
        -11    1    3    3    0    0 -0.62333195754E+01 -0.35240611619E+02  0.12527295550E+02  0.37916857913E+02  0.00000000000E+00 0.  1.
         11    1    3    3    0    0  0.42270025715E+02  0.55416458232E+02  0.32739235152E+02  0.77003872859E+02  0.00000000000E+00 0. -1.
</event>
<event>
 7    1  0.5831876E-006  0.8718030E+02  0.7561462E-02  0.1309827E+00
         -4   -1    0    0    0  501 -0.00000000000E+00  0.00000000000E+00  0.91574596230E+02  0.91574596230E+02  0.00000000000E+00 0.  1.
          4   -1    0    0  501    0  0.00000000000E+00 -0.00000000000E+00 -0.13731871642E+03  0.13731871642E+03  0.00000000000E+00 0. -1.
         23    2    1    2    0    0 -0.11700545124E+02  0.17288329733E+02 -0.36741376588E+01  0.95276845894E+02  0.92889121940E+02 0.  0.
          5    1    1    2  502    0  0.67185076506E+02 -0.15668991201E+02 -0.35099419880E+02  0.77516407723E+02  0.41800000000E+01 0. -1.
         -5    1    1    2    0  502 -0.55484531382E+02 -0.16193385322E+01 -0.69705626507E+01  0.56100059034E+02  0.41800000000E+01 0. -1.
        -11    1    3    3    0    0 -0.13681915696E+02  0.31965446423E+02 -0.41802508207E+02  0.54373102491E+02  0.00000000000E+00 0. -1.
         11    1    3    3    0    0  0.19813705724E+01 -0.14677116690E+02  0.38128370548E+02  0.40903743402E+02  0.00000000000E+00 0.  1.
</event>
<event>
 7    1  0.5831876E-006  0.7779954E+02  0.7561462E-02  0.1335415E+00
         -1   -1    0    0    0  501 -0.00000000000E+00  0.00000000000E+00  0.26928134237E+03  0.26928134237E+03  0.00000000000E+00 0.  1.
          1   -1    0    0  501    0  0.00000000000E+00 -0.00000000000E+00 -0.69209780551E+02  0.69209780551E+02  0.00000000000E+00 0. -1.
         23    2    1    2    0    0 -0.48424481101E+02 -0.31829103888E+02  0.16340563150E+03  0.19583783926E+03  0.91066111465E+02 0.  0.
          5    1    1    2  502    0  0.38878316860E+02  0.14344710726E+02  0.82547163835E+02  0.92459725853E+02  0.41800000000E+01 0.  1.
         -5    1    1    2    0  502  0.95461642405E+01  0.17484393162E+02 -0.45881233517E+02  0.50193557803E+02  0.41800000000E+01 0.  1.
        -11    1    3    3    0    0 -0.15885001239E+01 -0.44931744296E+02  0.30541468949E+02  0.54352242858E+02  0.00000000000E+00 0. -1.
         11    1    3    3    0    0 -0.46835980977E+02  0.13102640408E+02  0.13286416255E+03  0.14148559641E+03  0.00000000000E+00 0.  1.
</event>
<event>
 7    1  0.5831876E-006  0.1033732E+03  0.7561462E-02  0.1273358E+00
         -3   -1    0    0    0  501 -0.00000000000E+00  0.00000000000E+00  0.29344928388E+03  0.29344928388E+03  0.00000000000E+00 0.  1.
          3   -1    0    0  501    0  0.00000000000E+00 -0.00000000000E+00 -0.41865774895E+02  0.41865774895E+02  0.00000000000E+00 0. -1.
         23    2    1    2    0    0  0.23436804624E+02 -0.17570884743E+02  0.11313905175E+03  0.14644364078E+03  0.88245538656E+02 0.  0.
          5    1    1    2  502    0 -0.65924023947E+02  0.24984574890E+02  0.12487990981E+03  0.14346661699E+03  0.41800000000E+01 0. -1.
         -5    1    1    2    0  502  0.42487219323E+02 -0.74136901465E+01  0.13564547424E+02  0.45404801004E+02  0.41800000000E+01 0. -1.
        -11    1    3    3    0    0 -0.14198182217E+02 -0.44372457041E+02  0.61462830164E+02  0.77124463135E+02  0.00000000000E+00 0. -1.
         11    1    3    3    0    0  0.37634986840E+02  0.26801572298E+02  0.51676221585E+02  0.69319177645E+02  0.00000000000E+00 0.  1.
</event>
<event>
 7    1  0.5831876E-006  0.7399251E+02  0.7561462E-02  0.1347020E+00
          1   -1    0    0  501    0  0.00000000000E+00  0.00000000000E+00  0.99127567418E+03  0.99127567418E+03  0.00000000000E+00 0. -1.
         -1   -1    0    0    0  501 -0.00000000000E+00 -0.00000000000E+00 -0.18768471842E+02  0.18768471842E+02  0.00000000000E+00 0.  1.
         23    2    1    2    0    0 -0.34649703752E+01 -0.58352625999E+02  0.22508921703E+03  0.24997941348E+03  0.91692510906E+02 0.  0.
          5    1    1    2  502    0 -0.68129677132E+01  0.23968710369E+01  0.62448801637E+03  0.62454376668E+03  0.41800000000E+01 0.  1.
         -5    1    1    2    0  502  0.10277938088E+02  0.55955754962E+02  0.12292996894E+03  0.13552096586E+03  0.41800000000E+01 0.  1.
        -11    1    3    3    0    0  0.26542146782E+02 -0.37942494818E+02  0.39464529812E+02  0.60840509384E+02  0.00000000000E+00 0.  1.
         11    1    3    3    0    0 -0.30007117157E+02 -0.20410131180E+02  0.18562468722E+03  0.18913890409E+03  0.00000000000E+00 0. -1.
</event>
<event>
 7    1  0.5831876E-006  0.1926035E+03  0.7561462E-02  0.1156134E+00
          2   -1    0    0  501    0  0.00000000000E+00  0.00000000000E+00  0.17500084138E+03  0.17500084138E+03  0.00000000000E+00 0. -1.
         -2   -1    0    0    0  501 -0.00000000000E+00 -0.00000000000E+00 -0.25076671199E+03  0.25076671199E+03  0.00000000000E+00 0.  1.
         23    2    1    2    0    0 -0.69386707301E+02  0.39246788646E+02 -0.84330756954E+02  0.14732307408E+03  0.90761148173E+02 0.  0.
          5    1    1    2  502    0  0.12428943445E+03 -0.12389499532E+03  0.20607080620E+02  0.17674828868E+03  0.41800000000E+01 0. -1.
         -5    1    1    2    0  502 -0.54902727147E+02  0.84648206676E+02 -0.12042194271E+02  0.10169619061E+03  0.41800000000E+01 0.  1.
        -11    1    3    3    0    0 -0.10267812390E+02  0.47852231662E+02 -0.67489684615E+01  0.49404580978E+02  0.00000000000E+00 0. -1.
         11    1    3    3    0    0 -0.59118894910E+02 -0.86054430160E+01 -0.77581788492E+02  0.97918493098E+02  0.00000000000E+00 0.  1.
</event>
<event>
 7    1  0.5831876E-006  0.2023453E+03  0.7561462E-02  0.1147775E+00
          4   -1    0    0  501    0  0.00000000000E+00  0.00000000000E+00  0.64879326358E+03  0.64879326358E+03  0.00000000000E+00 0.  1.
         -4   -1    0    0    0  501 -0.00000000000E+00 -0.00000000000E+00 -0.91868057625E+02  0.91868057625E+02  0.00000000000E+00 0. -1.
         23    2    1    2    0    0  0.64602119680E+02  0.18183640815E+03  0.11270581336E+03  0.24044500289E+03  0.88731538119E+02 0.  0.
          5    1    1    2  502    0  0.20819929837E+01 -0.12100553103E+03  0.34684441955E+03  0.36737609749E+03  0.41800000000E+01 0.  1.
         -5    1    1    2    0  502 -0.66684112663E+02 -0.60830877113E+02  0.97374973046E+02  0.13284022082E+03  0.41800000000E+01 0.  1.
        -11    1    3    3    0    0  0.38594960831E+02  0.93533279443E+02  0.87055653887E+01  0.10155703931E+03  0.00000000000E+00 0. -1.
         11    1    3    3    0    0  0.26007158849E+02  0.88303128702E+02  0.10400024797E+03  0.13888796358E+03  0.00000000000E+00 0.  1.
</event>
<event>
 7    1  0.5831876E-006  0.2257745E+03  0.7561462E-02  0.1129650E+00
          2   -1    0    0  501    0  0.00000000000E+00  0.00000000000E+00  0.66057228765E+02  0.66057228765E+02  0.00000000000E+00 0. -1.
         -2   -1    0    0    0  501 -0.00000000000E+00 -0.00000000000E+00 -0.11861359340E+04  0.11861359340E+04  0.00000000000E+00 0.  1.
         23    2    1    2    0    0 -0.20649833882E+03  0.64582247439E+02 -0.86075271462E+03  0.89203931331E+03  0.89590569503E+02 0.  0.
          5    1    1    2  502    0  0.15958487934E+03 -0.41604991750E+02 -0.10112621289E+03  0.19350010952E+03  0.41800000000E+01 0. -1.
         -5    1    1    2    0  502  0.46913459483E+02 -0.22977255689E+02 -0.15819977770E+03  0.16665373991E+03  0.41800000000E+01 0. -1.
        -11    1    3    3    0    0  0.21952013682E+00 -0.13275926077E+02 -0.47433351204E+02  0.49256686944E+02  0.00000000000E+00 0.  1.
         11    1    3    3    0    0 -0.20671785896E+03  0.77858173516E+02 -0.81331936341E+03  0.84278262636E+03  0.00000000000E+00 0. -1.
</event>
<event>
 7    1  0.5831876E-006  0.1220738E+03  0.7561462E-02  0.1239715E+00
          1   -1    0    0  501    0  0.00000000000E+00  0.00000000000E+00  0.19310696890E+03  0.19310696890E+03  0.00000000000E+00 0. -1.
         -1   -1    0    0    0  501 -0.00000000000E+00 -0.00000000000E+00 -0.12171530438E+03  0.12171530438E+03  0.00000000000E+00 0.  1.
         23    2    1    2    0    0 -0.86284068841E+02 -0.64637573755E+02  0.48206085550E+00  0.13510614562E+03  0.81427769988E+02 0.  0.
          5    1    1    2  502    0  0.59242645624E+02  0.53910761429E+02 -0.21255949599E+02  0.82978003421E+02  0.41800000000E+01 0. -1.
         -5    1    1    2    0  502  0.27041423217E+02  0.10726812327E+02  0.92165553262E+02  0.96738124234E+02  0.41800000000E+01 0. -1.
        -11    1    3    3    0    0 -0.10093430630E+02  0.18935476023E+02  0.45817447354E+01  0.21941330382E+02  0.00000000000E+00 0. -1.
         11    1    3    3    0    0 -0.76190638211E+02 -0.83573049778E+02 -0.40996838799E+01  0.11316481524E+03  0.00000000000E+00 0.  1.
</event>
<event>
 7    1  0.5831876E-006  0.9652659E+02  0.7561462E-02  0.1287774E+00
         -1   -1    0    0    0  501 -0.00000000000E+00  0.00000000000E+00  0.41359347002E+02  0.41359347002E+02  0.00000000000E+00 0.  1.
          1   -1    0    0  501    0  0.00000000000E+00 -0.00000000000E+00 -0.37417543617E+03  0.37417543617E+03  0.00000000000E+00 0. -1.
         23    2    1    2    0    0 -0.51394920363E+02 -0.16524796553E+02 -0.99584591099E+02  0.14542504176E+03  0.91196739238E+02 0.  0.
          5    1    1    2  502    0  0.77079132513E+02  0.31563874517E+02 -0.22344568863E+03  0.23850140254E+03  0.41800000000E+01 0. -1.
         -5    1    1    2    0  502 -0.25684212151E+02 -0.15039077964E+02 -0.97858094360E+01  0.31608338870E+02  0.41800000000E+01 0. -1.
        -11    1    3    3    0    0 -0.33173835691E+02  0.20033775599E+02 -0.10598235460E+01  0.38768270082E+02  0.00000000000E+00 0. -1.
         11    1    3    3    0    0 -0.18221084671E+02 -0.36558572151E+02 -0.98524767553E+02  0.10665677168E+03  0.00000000000E+00 0.  1.
</event>
<event>
 7    1  0.5831876E-006  0.7252974E+02  0.7561462E-02  0.1351696E+00
          2   -1    0    0  501    0  0.00000000000E+00  0.00000000000E+00  0.10940890299E+03  0.10940890299E+03  0.00000000000E+00 0. -1.
         -2   -1    0    0    0  501 -0.00000000000E+00 -0.00000000000E+00 -0.14090126992E+03  0.14090126992E+03  0.00000000000E+00 0.  1.
         23    2    1    2    0    0 -0.29236784321E+02  0.21576509915E+02 -0.64914211921E+02  0.11582849856E+03  0.88780914790E+02 0.  0.
          5    1    1    2  502    0  0.30942849611E+02  0.19253294281E+02  0.70288954504E+02  0.79285300075E+02  0.41800000000E+01 0. -1.
         -5    1    1    2    0  502 -0.17060652900E+01 -0.40829804196E+02 -0.36867109513E+02  0.55196374277E+02  0.41800000000E+01 0. -1.
        -11    1    3    3    0    0 -0.46399449933E+02  0.17988562286E+02 -0.12352742838E+01  0.49779747185E+02  0.00000000000E+00 0. -1.
         11    1    3    3    0    0  0.17162665612E+02  0.35879476290E+01 -0.63678937637E+02  0.66048751371E+02  0.00000000000E+00 0.  1.
</event>
<event>
 7    1  0.5831876E-006  0.1152979E+03  0.7561462E-02  0.1251062E+00
          1   -1    0    0  501    0  0.00000000000E+00  0.00000000000E+00  0.17753763859E+04  0.17753763859E+04  0.00000000000E+00 0. -1.
         -1   -1    0    0    0  501 -0.00000000000E+00 -0.00000000000E+00 -0.13609726805E+02  0.13609726805E+02  0.00000000000E+00 0.  1.
         23    2    1    2    0    0  0.91262125826E+02 -0.23127661561E+02  0.48628188518E+03  0.50392893387E+03  0.92793503009E+02 0.  0.
          5    1    1    2  502    0 -0.34902998920E+02 -0.48978496721E+01  0.10583487552E+04  0.10589437040E+04  0.41800000000E+01 0.  1.
         -5    1    1    2    0  502 -0.56359126907E+02  0.28025511233E+02  0.21713601873E+03  0.22611347482E+03  0.41800000000E+01 0.  1.
        -11    1    3    3    0    0  0.23563283195E+02  0.35404351645E+02  0.16873293155E+03  0.17401005321E+03  0.00000000000E+00 0.  1.
         11    1    3    3    0    0  0.67698842632E+02 -0.58532013205E+02  0.31754895363E+03  0.32991888066E+03  0.00000000000E+00 0. -1.
</event>
<event>
 7    1  0.5831876E-006  0.1184551E+03  0.7561462E-02  0.1245668E+00
          3   -1    0    0  501    0  0.00000000000E+00  0.00000000000E+00  0.16180010088E+03  0.16180010088E+03  0.00000000000E+00 0. -1.
         -3   -1    0    0    0  501 -0.00000000000E+00 -0.00000000000E+00 -0.11809126443E+03  0.11809126443E+03  0.00000000000E+00 0.  1.
         23    2    1    2    0    0 -0.85470825624E+02 -0.90728659077E+01  0.10247030354E+02  0.12569562653E+03  0.91141702685E+02 0.  0.
          5    1    1    2  502    0  0.71247466373E+02 -0.51451751892E+02  0.15430101225E+02  0.89325498382E+02  0.41800000000E+01 0. -1.
         -5    1    1    2    0  502  0.14223359251E+02  0.60524617799E+02  0.18031704871E+02  0.64870240393E+02  0.41800000000E+01 0.  1.
        -11    1    3    3    0    0 -0.43589481333E+02 -0.10001094929E+02 -0.40192086359E+02  0.60128766731E+02  0.00000000000E+00 0.  1.
         11    1    3    3    0    0 -0.41881344290E+02  0.92822902160E+00  0.50439116713E+02  0.65566859796E+02  0.00000000000E+00 0. -1.
</event>
<event>
 7    1  0.5831876E-006  0.2090407E+03  0.7561462E-02  0.1142328E+00
         -2   -1    0    0    0  501 -0.00000000000E+00  0.00000000000E+00  0.53858039763E+02  0.53858039763E+02  0.00000000000E+00 0.  1.
          2   -1    0    0  501    0  0.00000000000E+00 -0.00000000000E+00 -0.95525003510E+03  0.95525003510E+03  0.00000000000E+00 0. -1.
         23    2    1    2    0    0  0.13922633545E+03 -0.13972337458E+03 -0.39301374119E+03  0.44964358252E+03  0.93877348936E+02 0.  0.
          5    1    1    2  502    0 -0.64484924983E+02  0.20437506314E+02 -0.30268682067E+03  0.31018185153E+03  0.41800000000E+01 0. -1.
         -5    1    1    2    0  502 -0.74741410463E+02  0.11928586827E+03 -0.20569143348E+03  0.24928264082E+03  0.41800000000E+01 0. -1.
        -11    1    3    3    0    0  0.14188894218E+03 -0.10973812257E+03 -0.37182746434E+03  0.41283240025E+03  0.00000000000E+00 0. -1.
         11    1    3    3    0    0 -0.26626067359E+01 -0.29985252014E+02 -0.21186276859E+02  0.36811182270E+02  0.00000000000E+00 0.  1.
</event>
<event>
 7    1  0.5831876E-006  0.3710301E+02  0.7561462E-02  0.1530681E+00
          1   -1    0    0  501    0  0.00000000000E+00  0.00000000000E+00  0.26027685473E+03  0.26027685473E+03  0.00000000000E+00 0. -1.
         -1   -1    0    0    0  501 -0.00000000000E+00 -0.00000000000E+00 -0.46598412446E+02  0.46598412446E+02  0.00000000000E+00 0.  1.
         23    2    1    2    0    0 -0.73741524564E+01 -0.25665177897E+02  0.49829399188E+02  0.98974314802E+02  0.81239562321E+02 0.  0.
          5    1    1    2  502    0 -0.59281530072E+01  0.14575844134E+02 -0.18522792511E+02  0.24660990911E+02  0.41800000000E+01 0. -1.
         -5    1    1    2    0  502  0.13302305464E+02  0.11089333763E+02  0.18237183561E+03  0.18323996147E+03  0.41800000000E+01 0. -1.
        -11    1    3    3    0    0 -0.16537439852E+02 -0.46428900414E+01 -0.19478911757E+02  0.25970586208E+02  0.00000000000E+00 0.  1.
         11    1    3    3    0    0  0.91632873952E+01 -0.21022287855E+02  0.69308310945E+02  0.73003728594E+02  0.00000000000E+00 0. -1.
</event>
<event>
 7    1  0.5831876E-006  0.2080696E+03  0.7561462E-02  0.1143104E+00
         -2   -1    0    0    0  501 -0.00000000000E+00  0.00000000000E+00  0.70587453801E+02  0.70587453801E+02  0.00000000000E+00 0.  1.
          2   -1    0    0  501    0  0.00000000000E+00 -0.00000000000E+00 -0.69264322561E+03  0.69264322561E+03  0.00000000000E+00 0. -1.
         23    2    1    2    0    0 -0.59102720383E+02 -0.17936183414E+03 -0.35393516570E+03  0.41223157335E+03  0.94873439084E+02 0.  0.
          5    1    1    2  502    0 -0.22639807514E+02 -0.34522748112E+01 -0.48241500545E+02  0.53564856581E+02  0.41800000000E+01 0. -1.
         -5    1    1    2    0  502  0.81742527897E+02  0.18281410896E+03 -0.21987910556E+03  0.29743424948E+03  0.41800000000E+01 0. -1.
        -11    1    3    3    0    0 -0.95708722240E+01 -0.88989792046E+02 -0.81858668448E+02  0.12129149304E+03  0.00000000000E+00 0.  1.
         11    1    3    3    0    0 -0.49531848159E+02 -0.90372042098E+02 -0.27207649725E+03  0.29094008031E+03  0.00000000000E+00 0. -1.
</event>
<event>
 7    1  0.5831876E-006  0.9312416E+02  0.7561462E-02  0.1295458E+00
          1   -1    0    0  501    0  0.00000000000E+00  0.00000000000E+00  0.28325053265E+03  0.28325053265E+03  0.00000000000E+00 0. -1.
         -1   -1    0    0    0  501 -0.00000000000E+00 -0.00000000000E+00 -0.44393424747E+02  0.44393424747E+02  0.00000000000E+00 0.  1.
         23    2    1    2    0    0 -0.24104724053E+02 -0.29390798272E+01  0.92461919826E+02  0.13356086392E+03  0.93271763368E+02 0.  0.
          5    1    1    2  502    0 -0.28361224641E+02 -0.46826941044E+02  0.66606162673E+02  0.86319029053E+02  0.41800000000E+01 0.  1.
         -5    1    1    2    0  502  0.52465948694E+02  0.49766020871E+02  0.79789025405E+02  0.10776406442E+03  0.41800000000E+01 0.  1.
        -11    1    3    3    0    0 -0.77610762984E+01  0.25199465826E+02 -0.83253710477E+01  0.27650663398E+02  0.00000000000E+00 0.  1.
         11    1    3    3    0    0 -0.16343647755E+02 -0.28138545654E+02  0.10078729087E+03  0.10591020052E+03  0.00000000000E+00 0. -1.
</event>
<event>
 7    1  0.5831876E-006  0.1368212E+03  0.7561462E-02  0.1217671E+00
         -2   -1    0    0    0  501 -0.00000000000E+00  0.00000000000E+00  0.23252811187E+02  0.23252811187E+02  0.00000000000E+00 0.  1.
          2   -1    0    0  501    0  0.00000000000E+00 -0.00000000000E+00 -0.88560811119E+03  0.88560811119E+03  0.00000000000E+00 0. -1.
         23    2    1    2    0    0 -0.84198379824E+02  0.10703144374E+02 -0.26535119863E+03  0.29301414835E+03  0.90786056521E+02 0.  0.
          5    1    1    2  502    0  0.79416864514E+02  0.47090501723E+02 -0.33903710696E+03  0.35140885877E+03  0.41800000000E+01 0. -1.
         -5    1    1    2    0  502  0.47815153106E+01 -0.57793646097E+02 -0.25796699441E+03  0.26443791525E+03  0.41800000000E+01 0. -1.
        -11    1    3    3    0    0 -0.72683433855E+02  0.45955130329E+02 -0.20308510391E+03  0.22054095989E+03  0.00000000000E+00 0. -1.
         11    1    3    3    0    0 -0.11514945970E+02 -0.35251985955E+02 -0.62266094716E+02  0.72473188461E+02  0.00000000000E+00 0.  1.
</event>
<event>
 7    1  0.5831876E-006  0.1043182E+03  0.7561462E-02  0.1271469E+00
         -1   -1    0    0    0  501 -0.00000000000E+00  0.00000000000E+00  0.37929772289E+02  0.37929772289E+02  0.00000000000E+00 0.  1.
          1   -1    0    0  501    0  0.00000000000E+00 -0.00000000000E+00 -0.46567614259E+03  0.46567614259E+03  0.00000000000E+00 0. -1.
         23    2    1    2    0    0 -0.92761911524E+01  0.44811177374E+02 -0.65214008176E+02  0.11738141035E+03  0.86205796168E+02 0.  0.
          5    1    1    2  502    0  0.47786134569E+02 -0.71507160187E+02 -0.22989203218E+03  0.24548850783E+03  0.41800000000E+01 0. -1.
         -5    1    1    2    0  502 -0.38509943417E+02  0.26695982813E+02 -0.13264032995E+03  0.14073599670E+03  0.41800000000E+01 0. -1.
        -11    1    3    3    0    0  0.25732206634E+02  0.19485179416E+02  0.71864741483E+01  0.33067568490E+02  0.00000000000E+00 0.  1.
         11    1    3    3    0    0 -0.35008397786E+02  0.25325997958E+02 -0.72400482324E+02  0.84313841858E+02  0.00000000000E+00 0. -1.
</event>
<event>
 7    1  0.5831876E-006  0.1457726E+03  0.7561462E-02  0.1205766E+00
          1   -1    0    0  501    0  0.00000000000E+00  0.00000000000E+00  0.32367837665E+03  0.32367837665E+03  0.00000000000E+00 0. -1.
         -1   -1    0    0    0  501 -0.00000000000E+00 -0.00000000000E+00 -0.13862218315E+03  0.13862218315E+03  0.00000000000E+00 0.  1.
         23    2    1    2    0    0 -0.51671358106E+02 -0.10891332051E+03 -0.64900422771E+02  0.15790399824E+03  0.78673802207E+02 0.  0.
          5    1    1    2  502    0 -0.34389446484E+02  0.24201933842E+02  0.25154597551E+02  0.49179200980E+02  0.41800000000E+01 0.  1.
         -5    1    1    2    0  502  0.86060804590E+02  0.84711386664E+02  0.22480201872E+03  0.25521736057E+03  0.41800000000E+01 0.  1.
        -11    1    3    3    0    0 -0.29788224082E+02 -0.17691370042E+02 -0.53032293559E+02  0.63346247150E+02  0.00000000000E+00 0.  1.
         11    1    3    3    0    0 -0.21883134025E+02 -0.91221950463E+02 -0.11868129212E+02  0.94557751095E+02  0.00000000000E+00 0. -1.
</event>
<event>
 7    1  0.5831876E-006  0.1513843E+03  0.7561462E-02  0.1198782E+00
          1   -1    0    0  501    0  0.00000000000E+00  0.00000000000E+00  0.91094390181E+02  0.91094390181E+02  0.00000000000E+00 0. -1.
         -1   -1    0    0    0  501 -0.00000000000E+00 -0.00000000000E+00 -0.27090956603E+03  0.27090956603E+03  0.00000000000E+00 0.  1.
         23    2    1    2    0    0 -0.52559714418E+02 -0.97732181236E+02 -0.11274107908E+03  0.18183669830E+03  0.89665662928E+02 0.  0.
          5    1    1    2  502    0  0.93189446946E+02  0.71721086481E+02 -0.37834172329E+02  0.12360050268E+03  0.41800000000E+01 0. -1.
         -5    1    1    2    0  502 -0.40629732528E+02  0.26011094755E+02 -0.29239924445E+02  0.56566755230E+02  0.41800000000E+01 0. -1.
        -11    1    3    3    0    0 -0.47138405707E+02 -0.92598136472E+01 -0.65992923283E+02  0.81626217386E+02  0.00000000000E+00 0.  1.
         11    1    3    3    0    0 -0.54213087116E+01 -0.88472367588E+02 -0.46748155797E+02  0.10021048092E+03  0.00000000000E+00 0. -1.
</event>
<event>
 7    1  0.5831876E-006  0.1323101E+03  0.7561462E-02  0.1224068E+00
         -2   -1    0    0    0  501 -0.00000000000E+00  0.00000000000E+00  0.20295353208E+02  0.20295353208E+02  0.00000000000E+00 0.  1.
          2   -1    0    0  501    0  0.00000000000E+00 -0.00000000000E+00 -0.11670491813E+04  0.11670491813E+04  0.00000000000E+00 0. -1.
         23    2    1    2    0    0 -0.40074428693E+02  0.95404737502E+02 -0.40742934004E+03  0.43040956087E+03  0.92442950986E+02 0.  0.
          5    1    1    2  502    0 -0.39036831003E+02 -0.36543713658E+01 -0.13845695139E+03  0.14396189910E+03  0.41800000000E+01 0.  1.
         -5    1    1    2    0  502  0.79111259696E+02 -0.91750366136E+02 -0.60086753667E+03  0.61297307455E+03  0.41800000000E+01 0.  1.
        -11    1    3    3    0    0 -0.37005396042E+02  0.78439800813E+02 -0.40351482000E+03  0.41273043461E+03  0.00000000000E+00 0. -1.
         11    1    3    3    0    0 -0.30690326506E+01  0.16964936689E+02 -0.39145200386E+01  0.17679126262E+02  0.00000000000E+00 0.  1.
</event>
<event>
 7    1  0.5831876E-006  0.1251867E+03  0.7561462E-02  0.1234778E+00
         -1   -1    0    0    0  501 -0.00000000000E+00  0.00000000000E+00  0.44133265255E+02  0.44133265255E+02  0.00000000000E+00 0.  1.
          1   -1    0    0  501    0  0.00000000000E+00 -0.00000000000E+00 -0.36530308722E+03  0.36530308722E+03  0.00000000000E+00 0. -1.
         23    2    1    2    0    0 -0.49430201384E+01 -0.64371709964E+02 -0.16726535074E+03  0.20088475085E+03  0.90602621791E+02 0.  0.
          5    1    1    2  502    0 -0.39434562635E+02  0.82730724290E+02 -0.11109853168E+03  0.14408266243E+03  0.41800000000E+01 0. -1.
         -5    1    1    2    0  502  0.44377582773E+02 -0.18359014325E+02 -0.42805939540E+02  0.64468939185E+02  0.41800000000E+01 0. -1.
        -11    1    3    3    0    0 -0.40705284567E+02 -0.48627871424E+01 -0.74251066116E+02  0.84816199572E+02  0.00000000000E+00 0. -1.
         11    1    3    3    0    0  0.35762264428E+02 -0.59508922822E+02 -0.93014284624E+02  0.11606855128E+03  0.00000000000E+00 0.  1.
</event>
<event>
 7    1  0.5831876E-006  0.1376520E+03  0.7561462E-02  0.1216524E+00
          3   -1    0    0  501    0  0.00000000000E+00  0.00000000000E+00  0.35263973322E+03  0.35263973322E+03  0.00000000000E+00 0. -1.
         -3   -1    0    0    0  501 -0.00000000000E+00 -0.00000000000E+00 -0.68321609777E+02  0.68321609777E+02  0.00000000000E+00 0.  1.
         23    2    1    2    0    0  0.75580834115E+02 -0.64542466693E+02  0.64930237114E+02  0.14956626887E+03  0.90972196856E+02 0.  0.
          5    1    1    2  502    0  0.26987270915E+02  0.38936307372E+02  0.35887311810E+02  0.59579529808E+02  0.41800000000E+01 0. -1.
         -5    1    1    2    0  502 -0.10256810503E+03  0.25606159322E+02  0.18350057452E+03  0.21181554432E+03  0.41800000000E+01 0. -1.
        -11    1    3    3    0    0  0.68913082236E+02 -0.13190971030E+02  0.49687426068E+01  0.70339910599E+02  0.00000000000E+00 0.  1.
         11    1    3    3    0    0  0.66677518790E+01 -0.51351495663E+02  0.59961494507E+02  0.79226358275E+02  0.00000000000E+00 0. -1.
</event>
<event>
 7    1  0.5831876E-006  0.8019121E+02  0.7561462E-02  0.1328510E+00
          4   -1    0    0  501    0  0.00000000000E+00  0.00000000000E+00  0.53225464266E+03  0.53225464266E+03  0.00000000000E+00 0. -1.
         -4   -1    0    0    0  501 -0.00000000000E+00 -0.00000000000E+00 -0.26408149460E+02  0.26408149460E+02  0.00000000000E+00 0.  1.
         23    2    1    2    0    0  0.34262326138E+02 -0.19228975906E+02  0.13550864473E+03  0.16579889040E+03  0.87080530277E+02 0.  0.
          5    1    1    2  502    0  0.29101904990E+02  0.81090165973E+01  0.28123850090E+03  0.28288733414E+03  0.41800000000E+01 0. -1.
         -5    1    1    2    0  502 -0.63364231128E+02  0.11119959309E+02  0.89099347566E+02  0.10997656759E+03  0.41800000000E+01 0. -1.
        -11    1    3    3    0    0  0.43586074614E+02  0.50623741846E+00  0.19495170101E+02  0.47750013968E+02  0.00000000000E+00 0.  1.
         11    1    3    3    0    0 -0.93237484765E+01 -0.19735213325E+02  0.11601347463E+03  0.11804887643E+03  0.00000000000E+00 0. -1.
</event>
<event>
 7    1  0.5831876E-006  0.1475423E+03  0.7561462E-02  0.1203526E+00
          2   -1    0    0  501    0  0.00000000000E+00  0.00000000000E+00  0.55649396930E+03  0.55649396930E+03  0.00000000000E+00 0. -1.
         -2   -1    0    0    0  501 -0.00000000000E+00 -0.00000000000E+00 -0.48348065715E+02  0.48348065715E+02  0.00000000000E+00 0.  1.
         23    2    1    2    0    0 -0.55017827363E+02  0.10786812972E+03  0.20457684909E+03  0.25489207593E+03  0.91955361175E+02 0.  0.
          5    1    1    2  502    0 -0.40266965400E+02 -0.24842579016E+02  0.89500956926E+02  0.10132361978E+03  0.41800000000E+01 0. -1.
         -5    1    1    2    0  502  0.95284792763E+02 -0.83025550704E+02  0.21406809756E+03  0.24862633930E+03  0.41800000000E+01 0. -1.
        -11    1    3    3    0    0 -0.21137527480E+02  0.37891353803E+02  0.15890614500E+03  0.16472313948E+03  0.00000000000E+00 0. -1.
         11    1    3    3    0    0 -0.33880299883E+02  0.69976775917E+02  0.45670704092E+02  0.90168936448E+02  0.00000000000E+00 0.  1.
</event>
<event>
 7    1  0.5831876E-006  0.9673999E+02  0.7561462E-02  0.1287305E+00
          2   -1    0    0  501    0  0.00000000000E+00  0.00000000000E+00  0.45361041387E+03  0.45361041387E+03  0.00000000000E+00 0. -1.
         -2   -1    0    0    0  501 -0.00000000000E+00 -0.00000000000E+00 -0.34631228696E+02  0.34631228696E+02  0.00000000000E+00 0.  1.
         23    2    1    2    0    0 -0.37767994587E+02  0.53225013963E+02  0.16375075922E+03  0.19661209046E+03  0.87078581992E+02 0.  0.
          5    1    1    2  502    0  0.47835846806E+02 -0.24378252714E+02  0.25047412381E+02  0.59392025660E+02  0.41800000000E+01 0.  1.
         -5    1    1    2    0  502 -0.10067852219E+02 -0.28846761250E+02  0.23018101356E+03  0.23223752644E+03  0.41800000000E+01 0.  1.
        -11    1    3    3    0    0  0.24280744533E+02  0.37676958031E+02  0.69778428946E+02  0.82934533626E+02  0.00000000000E+00 0.  1.
         11    1    3    3    0    0 -0.62048739120E+02  0.15548055932E+02  0.93972330279E+02  0.11367755683E+03  0.00000000000E+00 0. -1.
</event>
<event>
 7    1  0.5831876E-006  0.1240222E+03  0.7561462E-02  0.1236605E+00
          1   -1    0    0  501    0  0.00000000000E+00  0.00000000000E+00  0.27593308309E+03  0.27593308309E+03  0.00000000000E+00 0. -1.
         -1   -1    0    0    0  501 -0.00000000000E+00 -0.00000000000E+00 -0.62945073739E+02  0.62945073739E+02  0.00000000000E+00 0.  1.
         23    2    1    2    0    0 -0.13028967672E+02 -0.66955289101E+02  0.58961657469E+02  0.12905755591E+03  0.92339649927E+02 0.  0.
          5    1    1    2  502    0 -0.50932235219E+02  0.34509515068E+01  0.43963929096E+02  0.67500378608E+02  0.41800000000E+01 0. -1.
         -5    1    1    2    0  502  0.63961202891E+02  0.63504337595E+02  0.11006242278E+03  0.14232022231E+03  0.41800000000E+01 0. -1.
        -11    1    3    3    0    0 -0.44532524404E+02 -0.17269472097E+02  0.29948951444E+01  0.47857599117E+02  0.00000000000E+00 0.  1.
         11    1    3    3    0    0  0.31503556732E+02 -0.49685817004E+02  0.55966762325E+02  0.81199956793E+02  0.00000000000E+00 0. -1.
</event>
<event>
 6    1  0.5831876E-006  0.6515218E+02  0.7561462E-02  0.1377400E+00
          2   -1    0    0  501    0  0.00000000000E+00  0.00000000000E+00  0.26486395666E+03  0.26486395666E+03  0.00000000000E+00 0. -1.
         -2   -1    0    0    0  501 -0.00000000000E+00 -0.00000000000E+00 -0.25894546045E+02  0.25894546045E+02  0.00000000000E+00 0.  1.
          5    1    1    2  502    0  0.38142074135E+02  0.16627375217E+02  0.16158181755E+03  0.16690549299E+03  0.41800000000E+01 0. -1.
         -5    1    1    2    0  502 -0.30170993685E+02 -0.43071405542E+02  0.21538337728E+02  0.56980761906E+02  0.41800000000E+01 0.  1.
        -11    1    1    2    0    0 -0.13448897620E+02  0.62888894958E+01  0.15656267257E+02  0.21576414964E+02  0.00000000000E+00 0.  1.
         11    1    1    2    0    0  0.54778171700E+01  0.20155140829E+02  0.40192988079E+02  0.45295832849E+02  0.00000000000E+00 0. -1.
</event>
<event>
 7    1  0.5831876E-006  0.2040472E+03  0.7561462E-02  0.1146369E+00
          1   -1    0    0  501    0  0.00000000000E+00  0.00000000000E+00  0.45783710109E+03  0.45783710109E+03  0.00000000000E+00 0. -1.
         -1   -1    0    0    0  501 -0.00000000000E+00 -0.00000000000E+00 -0.12007162597E+03  0.12007162597E+03  0.00000000000E+00 0.  1.
         23    2    1    2    0    0 -0.20000983718E+03 -0.50455716231E+01  0.23052317770E+03  0.31872642477E+03  0.91739880232E+02 0.  0.
          5    1    1    2  502    0  0.16713046856E+03  0.23839039287E+02  0.27896337640E+02  0.17116241226E+03  0.41800000000E+01 0.  1.
         -5    1    1    2    0  502  0.32879368623E+02 -0.18793467664E+02  0.79345959780E+02  0.88019890032E+02  0.41800000000E+01 0.  1.
        -11    1    3    3    0    0 -0.11267744120E+03 -0.13002022918E+02  0.63271543997E+02  0.12987896918E+03  0.00000000000E+00 0.  1.
         11    1    3    3    0    0 -0.87332395981E+02  0.79564512952E+01  0.16725163370E+03  0.18884745559E+03  0.00000000000E+00 0. -1.
</event>
<event>
 7    1  0.5831876E-006  0.2854002E+03  0.7561462E-02  0.1092775E+00
          1   -1    0    0  501    0  0.00000000000E+00  0.00000000000E+00  0.38395325595E+03  0.38395325595E+03  0.00000000000E+00 0. -1.
         -1   -1    0    0    0  501 -0.00000000000E+00 -0.00000000000E+00 -0.29351816664E+03  0.29351816664E+03  0.00000000000E+00 0.  1.
         23    2    1    2    0    0  0.11773508644E+02  0.26527297294E+03 -0.13156626345E+03  0.30944933265E+03  0.89111402882E+02 0.  0.
          5    1    1    2  502    0  0.54827617054E+02 -0.84396136890E+02  0.76267415169E+02  0.12634463396E+03  0.41800000000E+01 0. -1.
         -5    1    1    2    0  502 -0.66601125698E+02 -0.18087683605E+03  0.14573393759E+03  0.24167745598E+03  0.41800000000E+01 0. -1.
        -11    1    3    3    0    0 -0.34162125286E+02  0.13021365262E+03 -0.85768135310E+02  0.15962086069E+03  0.00000000000E+00 0.  1.
         11    1    3    3    0    0  0.45935633930E+02  0.13505932032E+03 -0.45798128136E+02  0.14982847196E+03  0.00000000000E+00 0. -1.
</event>
<event>
 7    1  0.5831876E-006  0.9431461E+02  0.7561462E-02  0.1292727E+00
         -1   -1    0    0    0  501 -0.00000000000E+00  0.00000000000E+00  0.24198591926E+03  0.24198591926E+03  0.00000000000E+00 0.  1.
          1   -1    0    0  501    0  0.00000000000E+00 -0.00000000000E+00 -0.55561612981E+02  0.55561612981E+02  0.00000000000E+00 0. -1.
         23    2    1    2    0    0  0.14751177685E+02  0.32471184990E+02  0.10966754981E+03  0.14651204745E+03  0.90370534304E+02 0.  0.
          5    1    1    2  502    0  0.45665742238E+02  0.17990886242E+01 -0.20075241017E+01  0.45935817039E+02  0.41800000000E+01 0.  1.
         -5    1    1    2    0  502 -0.60416919923E+02 -0.34270273614E+02  0.78764280573E+02  0.10509966775E+03  0.41800000000E+01 0.  1.
        -11    1    3    3    0    0  0.29465082298E+02 -0.76296164154E+01  0.17944262941E+01  0.30489704610E+02  0.00000000000E+00 0. -1.
         11    1    3    3    0    0 -0.14713904613E+02  0.40100801406E+02  0.10787312351E+03  0.11602234284E+03  0.00000000000E+00 0.  1.
</event>
<event>
 7    1  0.5831876E-006  0.9488835E+02  0.7561462E-02  0.1291428E+00
         -2   -1    0    0    0  501 -0.00000000000E+00  0.00000000000E+00  0.25521427161E+03  0.25521427161E+03  0.00000000000E+00 0.  1.
          2   -1    0    0  501    0  0.00000000000E+00 -0.00000000000E+00 -0.56450609914E+02  0.56450609914E+02  0.00000000000E+00 0. -1.
         23    2    1    2    0    0 -0.57812223099E+02 -0.22270221673E+02  0.86659917384E+02  0.13262308045E+03  0.78998254876E+02 0.  0.
          5    1    1    2  502    0  0.20607804621E+02  0.42124226739E+02 -0.11424241542E+02  0.48447061670E+02  0.41800000000E+01 0. -1.
         -5    1    1    2    0  502  0.37204418477E+02 -0.19854005066E+02  0.12352798586E+03  0.13059473941E+03  0.41800000000E+01 0. -1.
        -11    1    3    3    0    0  0.18530180433E+02  0.50983768703E+01  0.18662791863E+02  0.26789192480E+02  0.00000000000E+00 0.  1.
         11    1    3    3    0    0 -0.76342403532E+02 -0.27368598543E+02  0.67997125521E+02  0.10583388797E+03  0.00000000000E+00 0. -1.
</event>
<event>
 7    1  0.5831876E-006  0.1681540E+03  0.7561462E-02  0.1179787E+00
         -1   -1    0    0    0  501 -0.00000000000E+00  0.00000000000E+00  0.72325420173E+02  0.72325420173E+02  0.00000000000E+00 0.  1.
          1   -1    0    0  501    0  0.00000000000E+00 -0.00000000000E+00 -0.46746993339E+03  0.46746993339E+03  0.00000000000E+00 0. -1.
         23    2    1    2    0    0  0.10805975270E+03 -0.97420227171E+02 -0.15771315154E+03  0.23452669664E+03  0.94666374459E+02 0.  0.
          5    1    1    2  502    0 -0.76217597490E+02 -0.97472535348E+01 -0.70817785267E+02  0.10457897604E+03  0.41800000000E+01 0. -1.
         -5    1    1    2    0  502 -0.31842155214E+02  0.10716748071E+03 -0.16661357641E+03  0.20068968089E+03  0.41800000000E+01 0. -1.
        -11    1    3    3    0    0  0.58246545317E+02 -0.68360482545E+02 -0.30492454307E+02  0.94845165321E+02  0.00000000000E+00 0.  1.
         11    1    3    3    0    0  0.49813207386E+02 -0.29059744626E+02 -0.12722069723E+03  0.13968153132E+03  0.00000000000E+00 0. -1.
</event>
<event>
 7    1  0.5831876E-006  0.1026858E+03  0.7561462E-02  0.1274747E+00
          2   -1    0    0  501    0  0.00000000000E+00  0.00000000000E+00  0.42824517585E+03  0.42824517585E+03  0.00000000000E+00 0. -1.
         -2   -1    0    0    0  501 -0.00000000000E+00 -0.00000000000E+00 -0.30402535333E+02  0.30402535333E+02  0.00000000000E+00 0.  1.
         23    2    1    2    0    0 -0.25877912565E+02  0.17588634551E+02  0.14065885319E+03  0.17094955850E+03  0.91977237098E+02 0.  0.
          5    1    1    2  502    0 -0.47851284166E+02 -0.86496444505E+01  0.62579309170E+02  0.79361225303E+02  0.41800000000E+01 0. -1.
         -5    1    1    2    0  502  0.73729196730E+02 -0.89389901000E+01  0.19460447815E+03  0.20833692738E+03  0.41800000000E+01 0. -1.
        -11    1    3    3    0    0 -0.29075821625E+02 -0.25679780962E+02  0.11305745871E+03  0.11952758478E+03  0.00000000000E+00 0. -1.
         11    1    3    3    0    0  0.31979090606E+01  0.43268415513E+02  0.27601394484E+02  0.51421973716E+02  0.00000000000E+00 0.  1.
</event>
<event>
 7    1  0.5831876E-006  0.1169496E+03  0.7561462E-02  0.1248216E+00
         -3   -1    0    0    0  501 -0.00000000000E+00  0.00000000000E+00  0.20723065479E+03  0.20723065479E+03  0.00000000000E+00 0.  1.
          3   -1    0    0  501    0  0.00000000000E+00 -0.00000000000E+00 -0.91467798794E+02  0.91467798794E+02  0.00000000000E+00 0. -1.
         23    2    1    2    0    0  0.45357685451E+02  0.71442250613E+02  0.52041874114E+02  0.13477968833E+03  0.91081792486E+02 0.  0.
          5    1    1    2  502    0 -0.31049986619E+02 -0.10625702322E+03  0.34319266224E+02  0.11597388105E+03  0.41800000000E+01 0.  1.
         -5    1    1    2    0  502 -0.14307698832E+02  0.34814772607E+02  0.29401715660E+02  0.47944884203E+02  0.41800000000E+01 0.  1.
        -11    1    3    3    0    0  0.18389841130E+02  0.20026649564E+02 -0.25926516721E+02  0.37569099255E+02  0.00000000000E+00 0. -1.
         11    1    3    3    0    0  0.26967844321E+02  0.51415601050E+02  0.77968390835E+02  0.97210589074E+02  0.00000000000E+00 0.  1.
</event>
<event>
 7    1  0.5831876E-006  0.1097868E+03  0.7561462E-02  0.1260965E+00
         -2   -1    0    0    0  501 -0.00000000000E+00  0.00000000000E+00  0.19306351272E+02  0.19306351272E+02  0.00000000000E+00 0.  1.
          2   -1    0    0  501    0  0.00000000000E+00 -0.00000000000E+00 -0.91046225380E+03  0.91046225380E+03  0.00000000000E+00 0. -1.
         23    2    1    2    0    0 -0.11911666779E+02  0.45575489757E+02 -0.38474540613E+03  0.39927291193E+03  0.95764385820E+02 0.  0.
          5    1    1    2  502    0  0.28858754366E+02 -0.74423279033E+02 -0.48270656064E+03  0.48927982612E+03  0.41800000000E+01 0. -1.
         -5    1    1    2    0  502 -0.16947087587E+02  0.28847789276E+02 -0.23703935764E+02  0.41215867023E+02  0.41800000000E+01 0.  1.
        -11    1    3    3    0    0 -0.23226449968E+02  0.72814125976E+02 -0.25443888392E+03  0.26566992786E+03  0.00000000000E+00 0. -1.
         11    1    3    3    0    0  0.11314783188E+02 -0.27238636219E+02 -0.13030652221E+03  0.13360298407E+03  0.00000000000E+00 0.  1.
</event>
<event>
 7    1  0.5831876E-006  0.1816275E+03  0.7561462E-02  0.1166237E+00
          1   -1    0    0  501    0  0.00000000000E+00  0.00000000000E+00  0.14087765049E+04  0.14087765049E+04  0.00000000000E+00 0. -1.
         -1   -1    0    0    0  501 -0.00000000000E+00 -0.00000000000E+00 -0.30499340526E+02  0.30499340526E+02  0.00000000000E+00 0.  1.
         23    2    1    2    0    0  0.12109693029E+03 -0.12106224096E+03  0.52202554556E+03  0.55715607940E+03  0.92691390556E+02 0.  0.
          5    1    1    2  502    0 -0.26660035677E+02  0.74387890773E+02  0.59747510622E+03  0.60269253417E+03  0.41800000000E+01 0. -1.
         -5    1    1    2    0  502 -0.94436894610E+02  0.46674350188E+02  0.25877651257E+03  0.27942723182E+03  0.41800000000E+01 0. -1.
        -11    1    3    3    0    0  0.83744430989E+02 -0.47702793281E+02  0.16796697903E+03  0.19365327845E+03  0.00000000000E+00 0.  1.
         11    1    3    3    0    0  0.37352499297E+02 -0.73359447680E+02  0.35405856652E+03  0.36350280095E+03  0.00000000000E+00 0. -1.
</event>
<event>
 7    1  0.1131993E-005  0.1499174E+03  0.7561462E-02  0.1200575E+00
          2   -1    0    0  501    0  0.00000000000E+00  0.00000000000E+00  0.16702800400E+03  0.16702800400E+03  0.00000000000E+00 0. -1.
         -2   -1    0    0    0  501 -0.00000000000E+00 -0.00000000000E+00 -0.20666750050E+03  0.20666750050E+03  0.00000000000E+00 0.  1.
         23    2    1    2    0    0 -0.11380495191E+03  0.95210164079E+02 -0.43888898070E+02  0.17957704321E+03  0.91132522465E+02 0.  0.
          5    1    1    2  502    0  0.54159174714E+02 -0.26895715741E+02 -0.58117907616E+02  0.83974754043E+02  0.41800000000E+01 0. -1.
         -5    1    1    2    0  502  0.59645777200E+02 -0.68314448338E+02  0.62367309192E+02  0.11014370724E+03  0.41800000000E+01 0. -1.
        -11    1    3    3    0    0 -0.54765064353E+02  0.43170179211E+02 -0.67863386294E+02  0.97305271419E+02  0.00000000000E+00 0.  1.
         11    1    3    3    0    0 -0.59039887562E+02  0.52039984868E+02  0.23974488224E+02  0.82271771793E+02  0.00000000000E+00 0. -1.
</event>
<event>
 7    1  0.5831876E-006  0.7933455E+02  0.7561462E-02  0.1330951E+00
          2   -1    0    0  501    0  0.00000000000E+00  0.00000000000E+00  0.17805918326E+03  0.17805918326E+03  0.00000000000E+00 0. -1.
         -2   -1    0    0    0  501 -0.00000000000E+00 -0.00000000000E+00 -0.88796161574E+02  0.88796161574E+02  0.00000000000E+00 0.  1.
         23    2    1    2    0    0 -0.15090662735E+02  0.50640809921E+02  0.85370893041E+01  0.10888081608E+03  0.94815243952E+02 0.  0.
          5    1    1    2  502    0  0.39358233206E+00  0.25311580825E+02 -0.18829748513E+02  0.31825506437E+02  0.41800000000E+01 0.  1.
         -5    1    1    2    0  502  0.14697080403E+02 -0.75952390747E+02  0.99555680896E+02  0.12614902232E+03  0.41800000000E+01 0.  1.
        -11    1    3    3    0    0 -0.14816036663E+02  0.19972363928E+02  0.50859763664E+02  0.56613830671E+02  0.00000000000E+00 0. -1.
         11    1    3    3    0    0 -0.27462607213E+00  0.30668445993E+02 -0.42322674360E+02  0.52266985412E+02  0.00000000000E+00 0.  1.
</event>
<event>
 7    1  0.5831876E-006  0.1108786E+03  0.7561462E-02  0.1258951E+00
         -1   -1    0    0    0  501 -0.00000000000E+00  0.00000000000E+00  0.19546903364E+03  0.19546903364E+03  0.00000000000E+00 0.  1.
          1   -1    0    0  501    0  0.00000000000E+00 -0.00000000000E+00 -0.99716161646E+02  0.99716161646E+02  0.00000000000E+00 0. -1.
         23    2    1    2    0    0 -0.81177343868E+02 -0.66843018558E+01  0.27454518304E+02  0.13103107811E+03  0.98898694662E+02 0.  0.
          5    1    1    2  502    0  0.46859919853E+02  0.26448757965E+02  0.99746565560E+02  0.11341180991E+03  0.41800000000E+01 0.  1.
         -5    1    1    2    0  502  0.34317424015E+02 -0.19764456110E+02 -0.31448211873E+02  0.50742307263E+02  0.41800000000E+01 0.  1.
        -11    1    3    3    0    0 -0.62302917120E+02 -0.50536839985E+02  0.20352545805E+02  0.82763831461E+02  0.00000000000E+00 0.  1.
         11    1    3    3    0    0 -0.18874426748E+02  0.43852538129E+02  0.71019724983E+01  0.48267246646E+02  0.00000000000E+00 0. -1.
</event>
<event>
 7    1  0.5831876E-006  0.2705193E+03  0.7561462E-02  0.1100983E+00
         -1   -1    0    0    0  501 -0.00000000000E+00  0.00000000000E+00  0.18898063931E+03  0.18898063931E+03  0.00000000000E+00 0.  1.
          1   -1    0    0  501    0  0.00000000000E+00 -0.00000000000E+00 -0.44774141598E+03  0.44774141598E+03  0.00000000000E+00 0. -1.
         23    2    1    2    0    0  0.12097725933E+03 -0.22187844005E+03 -0.23027787113E+02  0.26918585414E+03  0.89806490034E+02 0.  0.
          5    1    1    2  502    0  0.19744625735E+01  0.11987808892E+03 -0.12404857015E+03  0.17256933349E+03  0.41800000000E+01 0.  1.
         -5    1    1    2    0  502 -0.12295172191E+03  0.10200035113E+03 -0.11168441940E+03  0.19496686767E+03  0.41800000000E+01 0.  1.
        -11    1    3    3    0    0  0.83247807046E+02 -0.83794166800E+02  0.19811390083E+02  0.11976706953E+03  0.00000000000E+00 0.  1.
         11    1    3    3    0    0  0.37729452287E+02 -0.13808427325E+03 -0.42839177196E+02  0.14941878460E+03  0.00000000000E+00 0. -1.
</event>
<event>
 7    1  0.5831876E-006  0.1330267E+03  0.7561462E-02  0.1223032E+00
          2   -1    0    0  501    0  0.00000000000E+00  0.00000000000E+00  0.32671451100E+03  0.32671451100E+03  0.00000000000E+00 0. -1.
         -2   -1    0    0    0  501 -0.00000000000E+00 -0.00000000000E+00 -0.70428116308E+02  0.70428116308E+02  0.00000000000E+00 0.  1.
         23    2    1    2    0    0 -0.32617954695E+02 -0.79836838924E+02  0.39546561230E+02  0.13245116906E+03  0.92420397443E+02 0.  0.
          5    1    1    2  502    0  0.74856843435E+02  0.76300717434E+02  0.17468507209E+03  0.20483577154E+03  0.41800000000E+01 0.  1.
         -5    1    1    2    0  502 -0.42238888740E+02  0.35361214905E+01  0.42054761372E+02  0.59855686708E+02  0.41800000000E+01 0.  1.
        -11    1    3    3    0    0  0.17678770289E+02 -0.59784296051E+02 -0.47070673424E+01  0.62520856170E+02  0.00000000000E+00 0.  1.
         11    1    3    3    0    0 -0.50296724983E+02 -0.20052542873E+02  0.44253628572E+02  0.69930312895E+02  0.00000000000E+00 0. -1.
</event>
<event>
 7    1  0.5831876E-006  0.9429165E+02  0.7561462E-02  0.1292779E+00
         -2   -1    0    0    0  501 -0.00000000000E+00  0.00000000000E+00  0.36128272154E+02  0.36128272154E+02  0.00000000000E+00 0.  1.
          2   -1    0    0  501    0  0.00000000000E+00 -0.00000000000E+00 -0.77751940932E+03  0.77751940932E+03  0.00000000000E+00 0. -1.
         23    2    1    2    0    0  0.43965370242E+02 -0.83494459492E+00 -0.57379856236E+02  0.11690360833E+03  0.91871403746E+02 0.  0.
          5    1    1    2  502    0 -0.86429311053E+02  0.76391708620E+01 -0.51627730973E+03  0.52353425455E+03  0.41800000000E+01 0. -1.
         -5    1    1    2    0  502  0.42463940811E+02 -0.68042262671E+01 -0.16773397120E+03  0.17320981860E+03  0.41800000000E+01 0. -1.
        -11    1    3    3    0    0  0.26115050192E+02 -0.19567548103E+02 -0.77523486113E+02  0.84111685778E+02  0.00000000000E+00 0. -1.
         11    1    3    3    0    0  0.17850320050E+02  0.18732603508E+02  0.20143629877E+02  0.32791922553E+02  0.00000000000E+00 0.  1.
</event>
<event>
 7    1  0.5831876E-006  0.8454124E+02  0.7561462E-02  0.1316637E+00
          1   -1    0    0  501    0  0.00000000000E+00  0.00000000000E+00  0.77109502132E+02  0.77109502132E+02  0.00000000000E+00 0. -1.
         -1   -1    0    0    0  501 -0.00000000000E+00 -0.00000000000E+00 -0.17162832290E+03  0.17162832290E+03  0.00000000000E+00 0.  1.
         23    2    1    2    0    0  0.17888491769E+02 -0.25047324441E+00 -0.75477736739E+02  0.12094823174E+03  0.92798303556E+02 0.  0.
          5    1    1    2  502    0  0.17006510399E+02 -0.47815981865E+02  0.22000369055E+02  0.55471417471E+02  0.41800000000E+01 0.  1.
         -5    1    1    2    0  502 -0.34895002168E+02  0.48066455110E+02 -0.41041453087E+02  0.72318175825E+02  0.41800000000E+01 0.  1.
        -11    1    3    3    0    0  0.35602334581E+02  0.11436721422E+02 -0.88481684183E+02  0.96059009262E+02  0.00000000000E+00 0.  1.
         11    1    3    3    0    0 -0.17713842813E+02 -0.11687194667E+02  0.13003947444E+02  0.24889222477E+02  0.00000000000E+00 0. -1.
</event>
<event>
 7    1  0.5831876E-006  0.1172184E+03  0.7561462E-02  0.1247758E+00
          3   -1    0    0  501    0  0.00000000000E+00  0.00000000000E+00  0.26316991176E+02  0.26316991176E+02  0.00000000000E+00 0. -1.
         -3   -1    0    0    0  501 -0.00000000000E+00 -0.00000000000E+00 -0.73226613498E+03  0.73226613498E+03  0.00000000000E+00 0.  1.
         23    2    1    2    0    0 -0.23470243952E+02  0.78727693368E+02 -0.39664413256E+03  0.41497639994E+03  0.90166194105E+02 0.  0.
          5    1    1    2  502    0  0.51270646844E+02  0.39168138900E+01 -0.18255175023E+03  0.18970143534E+03  0.41800000000E+01 0.  1.
         -5    1    1    2    0  502 -0.27800402892E+02 -0.82644507258E+02 -0.12675326102E+03  0.15390529087E+03  0.41800000000E+01 0.  1.
        -11    1    3    3    0    0 -0.27643762334E+02  0.14550583991E+02 -0.32059335952E+02  0.44762686606E+02  0.00000000000E+00 0.  1.
         11    1    3    3    0    0  0.41735183822E+01  0.64177109377E+02 -0.36458479661E+03  0.37021371333E+03  0.00000000000E+00 0. -1.
</event>
<event>
 7    1  0.5831876E-006  0.2082583E+03  0.7561462E-02  0.1142953E+00
          1   -1    0    0  501    0  0.00000000000E+00  0.00000000000E+00  0.50011713008E+03  0.50011713008E+03  0.00000000000E+00 0. -1.
         -1   -1    0    0    0  501 -0.00000000000E+00 -0.00000000000E+00 -0.13055101577E+03  0.13055101577E+03  0.00000000000E+00 0.  1.
         23    2    1    2    0    0  0.53993821701E+01 -0.18374991826E+03  0.23974193236E+02  0.21972483952E+03  0.11794514561E+03 0.  0.
          5    1    1    2  502    0  0.37125397241E+02  0.42898379142E+02  0.18293375036E+03  0.19157451677E+03  0.41800000000E+01 0.  1.
         -5    1    1    2    0  502 -0.42524779411E+02  0.14085153912E+03  0.16265817071E+03  0.21936878956E+03  0.41800000000E+01 0.  1.
        -11    1    3    3    0    0 -0.46517422015E+02 -0.12833157359E+03  0.39736555638E+02  0.14216841135E+03  0.00000000000E+00 0. -1.
         11    1    3    3    0    0  0.51916804185E+02 -0.55418344667E+02 -0.15762362402E+02  0.77556428173E+02  0.00000000000E+00 0.  1.
</event>
<event>
 7    1  0.5831876E-006  0.1192295E+03  0.7561462E-02  0.1244374E+00
         -1   -1    0    0    0  501 -0.00000000000E+00  0.00000000000E+00  0.12761076055E+02  0.12761076055E+02  0.00000000000E+00 0.  1.
          1   -1    0    0  501    0  0.00000000000E+00 -0.00000000000E+00 -0.13669513746E+04  0.13669513746E+04  0.00000000000E+00 0. -1.
         23    2    1    2    0    0 -0.60567091680E+02  0.55017314116E+01 -0.34637998115E+03  0.36234942167E+03  0.87289005071E+02 0.  0.
          5    1    1    2  502    0  0.15517765895E+02 -0.63457659048E+02 -0.49437950639E+03  0.49869454006E+03  0.41800000000E+01 0.  1.
         -5    1    1    2    0  502  0.45049325785E+02  0.57955927636E+02 -0.51343081100E+03  0.51866848891E+03  0.41800000000E+01 0.  1.
        -11    1    3    3    0    0 -0.55606601929E+01  0.36102653407E+02 -0.70750087174E+02  0.79623472418E+02  0.00000000000E+00 0.  1.
         11    1    3    3    0    0 -0.55006431487E+02 -0.30600921996E+02 -0.27562989397E+03  0.28272594926E+03  0.00000000000E+00 0. -1.
</event>
<event>
 7    1  0.5831876E-006  0.1275682E+03  0.7561462E-02  0.1231109E+00
          2   -1    0    0  501    0  0.00000000000E+00  0.00000000000E+00  0.69701549774E+02  0.69701549774E+02  0.00000000000E+00 0. -1.
         -2   -1    0    0    0  501 -0.00000000000E+00 -0.00000000000E+00 -0.38356453588E+03  0.38356453588E+03  0.00000000000E+00 0.  1.
         23    2    1    2    0    0  0.62413874064E+02 -0.48740521361E+02 -0.23754513637E+03  0.26580082640E+03  0.89169823397E+02 0.  0.
          5    1    1    2  502    0 -0.10832618137E+03  0.18266681079E+02 -0.26550860362E+02  0.11309577267E+03  0.41800000000E+01 0. -1.
         -5    1    1    2    0  502  0.45912307311E+02  0.30473840282E+02 -0.49766989380E+02  0.74369486593E+02  0.41800000000E+01 0.  1.
        -11    1    3    3    0    0  0.11630434399E+02  0.77502254606E+01  0.23447643108E+01  0.14171482586E+02  0.00000000000E+00 0. -1.
         11    1    3    3    0    0  0.50783439664E+02 -0.56490746822E+02 -0.23988990068E+03  0.25162934381E+03  0.00000000000E+00 0.  1.
</event>
<event>
 7    1  0.5831876E-006  0.8941664E+02  0.7561462E-02  0.1304271E+00
         -1   -1    0    0    0  501 -0.00000000000E+00  0.00000000000E+00  0.30723577571E+03  0.30723577571E+03  0.00000000000E+00 0.  1.
          1   -1    0    0  501    0  0.00000000000E+00 -0.00000000000E+00 -0.59122387121E+02  0.59122387121E+02  0.00000000000E+00 0. -1.
         23    2    1    2    0    0  0.45429722892E+02  0.61121080225E+02  0.14621045171E+03  0.18794561091E+03  0.90257466730E+02 0.  0.
          5    1    1    2  502    0 -0.18394693948E+02  0.12683686851E+02  0.96912799000E+02  0.99542974074E+02  0.41800000000E+01 0. -1.
         -5    1    1    2    0  502 -0.27035028944E+02 -0.73804767076E+02  0.49901378744E+01  0.78869577843E+02  0.41800000000E+01 0. -1.
        -11    1    3    3    0    0  0.16981388911E+02  0.34388304191E+02  0.18469526688E+01  0.38397060677E+02  0.00000000000E+00 0.  1.
         11    1    3    3    0    0  0.28448333980E+02  0.26732776034E+02  0.14436349904E+03  0.14954855023E+03  0.00000000000E+00 0. -1.
</event>
<event>
 7    1  0.5831876E-006  0.1397203E+03  0.7561462E-02  0.1213706E+00
         -2   -1    0    0    0  501 -0.00000000000E+00  0.00000000000E+00  0.21074363031E+02  0.21074363031E+02  0.00000000000E+00 0.  1.
          2   -1    0    0  501    0  0.00000000000E+00 -0.00000000000E+00 -0.11503089232E+04  0.11503089232E+04  0.00000000000E+00 0. -1.
         23    2    1    2    0    0 -0.96160152740E+02  0.39798922076E+02 -0.36619584862E+03  0.39118693124E+03  0.89983812201E+02 0.  0.
          5    1    1    2  502    0  0.20610815194E+02  0.41236309476E+02 -0.32810856831E+03  0.33135772802E+03  0.41800000000E+01 0.  1.
         -5    1    1    2    0  502  0.75549337547E+02 -0.81035231552E+02 -0.43493014328E+03  0.44883862701E+03  0.41800000000E+01 0.  1.
        -11    1    3    3    0    0 -0.82313099436E+02  0.23403956000E+01 -0.14799778496E+03  0.16936430599E+03  0.00000000000E+00 0.  1.
         11    1    3    3    0    0 -0.13847053304E+02  0.37458526476E+02 -0.21819806366E+03  0.22182262525E+03  0.00000000000E+00 0. -1.
</event>
<event>
 7    1  0.5831876E-006  0.1059116E+03  0.7561462E-02  0.1268334E+00
         -2   -1    0    0    0  501 -0.00000000000E+00  0.00000000000E+00  0.96239460337E+01  0.96239460337E+01  0.00000000000E+00 0. -1.
          2   -1    0    0  501    0  0.00000000000E+00 -0.00000000000E+00 -0.16002734281E+04  0.16002734281E+04  0.00000000000E+00 0.  1.
         23    2    1    2    0    0  0.20376500887E+02  0.23928352114E+02 -0.36164988176E+03  0.37414856057E+03  0.90602100287E+02 0.  0.
          5    1    1    2  502    0 -0.57123895909E+02 -0.47877967394E+02 -0.51399675040E+03  0.51938961394E+03  0.41800000000E+01 0.  1.
         -5    1    1    2    0  502  0.36747395022E+02  0.23949615280E+02 -0.71500284995E+03  0.71635919967E+03  0.41800000000E+01 0.  1.
        -11    1    3    3    0    0  0.55019081786E+02  0.10838659433E+02 -0.25958407709E+03  0.26557196572E+03  0.00000000000E+00 0.  1.
         11    1    3    3    0    0 -0.34642580899E+02  0.13089692681E+02 -0.10206580466E+03  0.10857659484E+03  0.00000000000E+00 0. -1.
</event>
<event>
 7    1  0.5831876E-006  0.7628030E+02  0.7561462E-02  0.1339952E+00
          2   -1    0    0  501    0  0.00000000000E+00  0.00000000000E+00  0.47686298296E+03  0.47686298296E+03  0.00000000000E+00 0. -1.
         -2   -1    0    0    0  501 -0.00000000000E+00 -0.00000000000E+00 -0.28143209912E+02  0.28143209912E+02  0.00000000000E+00 0.  1.
         23    2    1    2    0    0  0.41415879273E+02  0.33082090847E+01  0.18519366121E+03  0.21035495280E+03  0.90698923454E+02 0.  0.
          5    1    1    2  502    0 -0.50015420346E+02  0.48468505293E+01  0.27380916538E+03  0.27841330011E+03  0.41800000000E+01 0.  1.
         -5    1    1    2    0  502  0.85995410736E+01 -0.81550596140E+01 -0.10283053537E+02  0.16237939957E+02  0.41800000000E+01 0.  1.
        -11    1    3    3    0    0 -0.12757299904E+02 -0.25280040118E+02  0.21433103186E+02  0.35513476897E+02  0.00000000000E+00 0.  1.
         11    1    3    3    0    0  0.54173179176E+02  0.28588249202E+02  0.16376055802E+03  0.17484147591E+03  0.00000000000E+00 0. -1.
</event>
<event>
 7    1  0.5831876E-006  0.2023076E+03  0.7561462E-02  0.1147807E+00
         -2   -1    0    0    0  501 -0.00000000000E+00  0.00000000000E+00  0.54997044472E+02  0.54997044472E+02  0.00000000000E+00 0.  1.
          2   -1    0    0  501    0  0.00000000000E+00 -0.00000000000E+00 -0.91486347589E+03  0.91486347589E+03  0.00000000000E+00 0. -1.
         23    2    1    2    0    0  0.14934957068E+03 -0.82887607809E+02 -0.20509866933E+03  0.28171506169E+03  0.90123593078E+02 0.  0.
          5    1    1    2  502    0 -0.10957837604E+03 -0.10336974781E+02 -0.32873434242E+03  0.34669585205E+03  0.41800000000E+01 0.  1.
         -5    1    1    2    0  502 -0.39771194641E+02  0.93224582590E+02 -0.32603341967E+03  0.34144960662E+03  0.41800000000E+01 0.  1.
        -11    1    3    3    0    0  0.78150382328E+02 -0.92602420760E+02 -0.13300642874E+03  0.17992609781E+03  0.00000000000E+00 0. -1.
         11    1    3    3    0    0  0.71199188356E+02  0.97148129511E+01 -0.72092240595E+02  0.10178896388E+03  0.00000000000E+00 0.  1.
</event>
<event>
 7    1  0.5831876E-006  0.7540030E+02  0.7561462E-02  0.1342636E+00
          2   -1    0    0  501    0  0.00000000000E+00  0.00000000000E+00  0.34471163671E+03  0.34471163671E+03  0.00000000000E+00 0.  1.
         -2   -1    0    0    0  501 -0.00000000000E+00 -0.00000000000E+00 -0.37192769797E+02  0.37192769797E+02  0.00000000000E+00 0. -1.
         23    2    1    2    0    0  0.23929266835E+01  0.25418760723E+02  0.90176166812E+02  0.12983535102E+03  0.89853424083E+02 0.  0.
          5    1    1    2  502    0  0.34787703319E+02 -0.83375137060E+01  0.56970642709E+01  0.36464055977E+02  0.41800000000E+01 0.  1.
         -5    1    1    2    0  502 -0.37180630002E+02 -0.17081247017E+02  0.21164563583E+03  0.21560499950E+03  0.41800000000E+01 0.  1.
        -11    1    3    3    0    0 -0.36257927466E+01  0.49093371977E+02  0.93019977334E+02  0.10524268016E+03  0.00000000000E+00 0.  1.
         11    1    3    3    0    0  0.60187194301E+01 -0.23674611254E+02 -0.28438105215E+01  0.24592670858E+02  0.00000000000E+00 0. -1.
</event>
<event>
 7    1  0.5831876E-006  0.1311020E+03  0.7561462E-02  0.1225830E+00
         -1   -1    0    0    0  501 -0.00000000000E+00  0.00000000000E+00  0.51150781982E+02  0.51150781982E+02  0.00000000000E+00 0.  1.
          1   -1    0    0  501    0  0.00000000000E+00 -0.00000000000E+00 -0.78198581942E+03  0.78198581942E+03  0.00000000000E+00 0. -1.
         23    2    1    2    0    0 -0.79747847748E+02 -0.77227733151E+02 -0.87292801558E+02  0.16821697121E+03  0.91395154195E+02 0.  0.
          5    1    1    2  502    0  0.33005641947E+02 -0.22843493932E+02 -0.69791237230E+02  0.80619394747E+02  0.41800000000E+01 0. -1.
         -5    1    1    2    0  502  0.46742205801E+02  0.10007122708E+03 -0.57375099865E+03  0.58430023545E+03  0.41800000000E+01 0. -1.
        -11    1    3    3    0    0 -0.26038484490E+02 -0.19984679266E+02 -0.83398626173E+02  0.89625447991E+02  0.00000000000E+00 0. -1.
         11    1    3    3    0    0 -0.53709363257E+02 -0.57243053885E+02 -0.38941753851E+01  0.78591523217E+02  0.00000000000E+00 0.  1.
</event>
<event>
 7    1  0.5831876E-006  0.1199532E+03  0.7561462E-02  0.1243174E+00
         -2   -1    0    0    0  501 -0.00000000000E+00  0.00000000000E+00  0.83166108909E+03  0.83166108909E+03  0.00000000000E+00 0.  1.
          2   -1    0    0  501    0  0.00000000000E+00 -0.00000000000E+00 -0.19525432363E+02  0.19525432363E+02  0.00000000000E+00 0. -1.
         23    2    1    2    0    0  0.44851845649E+02 -0.33734072375E+02  0.49004459115E+03  0.50112882232E+03  0.88525248074E+02 0.  0.
          5    1    1    2  502    0 -0.50169467950E+02  0.76683003368E+02  0.24408425106E+03  0.26075247369E+03  0.41800000000E+01 0.  1.
         -5    1    1    2    0  502  0.53176223013E+01 -0.42948930993E+02  0.78006814521E+02  0.89305225447E+02  0.41800000000E+01 0.  1.
        -11    1    3    3    0    0 -0.23023613009E+02  0.87400063585E+01  0.12572883226E+03  0.12811796802E+03  0.00000000000E+00 0. -1.
         11    1    3    3    0    0  0.67875458658E+02 -0.42474078733E+02  0.36431575888E+03  0.37301085430E+03  0.00000000000E+00 0.  1.
</event>
<event>
 7    1  0.5831876E-006  0.8963163E+02  0.7561462E-02  0.1303746E+00
         -2   -1    0    0    0  501 -0.00000000000E+00  0.00000000000E+00  0.32740181511E+02  0.32740181511E+02  0.00000000000E+00 0. -1.
          2   -1    0    0  501    0  0.00000000000E+00 -0.00000000000E+00 -0.18753618271E+04  0.18753618271E+04  0.00000000000E+00 0.  1.
         23    2    1    2    0    0  0.43348306190E+02 -0.17257406889E+02 -0.61864764735E+02  0.12286430916E+03  0.95349334593E+02 0.  0.
          5    1    1    2  502    0 -0.44366676008E+02  0.48223150677E+02 -0.52478387676E+03  0.52887566016E+03  0.41800000000E+01 0. -1.
         -5    1    1    2    0  502  0.10183698184E+01 -0.30965743788E+02 -0.12559730041E+04  0.12563620393E+04  0.41800000000E+01 0.  1.
        -11    1    3    3    0    0  0.61841374622E+02 -0.10971798995E+02 -0.53094450953E+01  0.63031152580E+02  0.00000000000E+00 0. -1.
         11    1    3    3    0    0 -0.18493068433E+02 -0.62856078940E+01 -0.56555319639E+02  0.59833156579E+02  0.00000000000E+00 0.  1.
</event>
<event>
 7    1  0.5831876E-006  0.9710777E+02  0.7561462E-02  0.1286498E+00
         -2   -1    0    0    0  501 -0.00000000000E+00  0.00000000000E+00  0.56728657283E+02  0.56728657283E+02  0.00000000000E+00 0. -1.
          2   -1    0    0  501    0  0.00000000000E+00 -0.00000000000E+00 -0.66439159917E+03  0.66439159917E+03  0.00000000000E+00 0.  1.
         23    2    1    2    0    0  0.38830562099E+01 -0.84370692439E+02 -0.36680567045E+02  0.13052321881E+03  0.92505971597E+02 0.  0.
          5    1    1    2  502    0  0.27139810892E+02  0.63204537734E+02 -0.53148899812E+03  0.53593787928E+03  0.41800000000E+01 0. -1.
         -5    1    1    2    0  502 -0.31022867102E+02  0.21166154705E+02 -0.39493376725E+02  0.54659158367E+02  0.41800000000E+01 0. -1.
        -11    1    3    3    0    0 -0.85957726381E+01 -0.54028512518E+02 -0.66553164710E+02  0.86152720242E+02  0.00000000000E+00 0.  1.
         11    1    3    3    0    0  0.12478828848E+02 -0.30342179921E+02  0.29872597665E+02  0.44370498566E+02  0.00000000000E+00 0. -1.
</event>
<event>
 7    1  0.5831876E-006  0.1001918E+03  0.7561462E-02  0.1279893E+00
         -2   -1    0    0    0  501 -0.00000000000E+00  0.00000000000E+00  0.11226272767E+02  0.11226272767E+02  0.00000000000E+00 0.  1.
          2   -1    0    0  501    0  0.00000000000E+00 -0.00000000000E+00 -0.14160733227E+04  0.14160733227E+04  0.00000000000E+00 0. -1.
         23    2    1    2    0    0  0.25327094477E+02 -0.19076698128E+02 -0.30772224210E+03  0.32261156883E+03  0.91541596750E+02 0.  0.
          5    1    1    2  502    0  0.29824565552E+02 -0.26540009319E+02 -0.69954336519E+03  0.70069413369E+03  0.41800000000E+01 0. -1.
         -5    1    1    2    0  502 -0.55151660028E+02  0.45616707447E+02 -0.39758144261E+03  0.40399389291E+03  0.41800000000E+01 0. -1.
        -11    1    3    3    0    0  0.29544930388E+02 -0.49600987329E+02 -0.25579851354E+03  0.26223279807E+03  0.00000000000E+00 0. -1.
         11    1    3    3    0    0 -0.42178359115E+01  0.30524289201E+02 -0.51923728566E+02  0.60378770766E+02  0.00000000000E+00 0.  1.
</event>
<event>
 7    1  0.5831876E-006  0.1179218E+03  0.7561462E-02  0.1246565E+00
          1   -1    0    0  501    0  0.00000000000E+00  0.00000000000E+00  0.24752592250E+03  0.24752592250E+03  0.00000000000E+00 0. -1.
         -1   -1    0    0    0  501 -0.00000000000E+00 -0.00000000000E+00 -0.71352444264E+02  0.71352444264E+02  0.00000000000E+00 0.  1.
         23    2    1    2    0    0  0.27222520413E+02 -0.51225912707E+02  0.50266273600E+02  0.13215390627E+03  0.10757693493E+03 0.  0.
          5    1    1    2  502    0 -0.23225126506E+02  0.80881796122E+02  0.13132412845E+03  0.15602810823E+03  0.41800000000E+01 0.  1.
         -5    1    1    2    0  502 -0.39973939072E+01 -0.29655883414E+02 -0.54169238112E+01  0.30696352270E+02  0.41800000000E+01 0.  1.
        -11    1    3    3    0    0  0.64466413633E+02 -0.53906656464E+02  0.27496862270E+02  0.88419022459E+02  0.00000000000E+00 0.  1.
         11    1    3    3    0    0 -0.37243893220E+02  0.26807437568E+01  0.22769411331E+02  0.43734883807E+02  0.00000000000E+00 0. -1.
</event>
<event>
 7    1  0.5831876E-006  0.2665125E+03  0.7561462E-02  0.1103292E+00
         -1   -1    0    0    0  501 -0.00000000000E+00  0.00000000000E+00  0.24482714503E+03  0.24482714503E+03  0.00000000000E+00 0.  1.
          1   -1    0    0  501    0  0.00000000000E+00 -0.00000000000E+00 -0.47759009190E+03  0.47759009190E+03  0.00000000000E+00 0. -1.
         23    2    1    2    0    0  0.17834688695E+03  0.17144440284E+03  0.99245014261E+02  0.28989186506E+03  0.11396019139E+03 0.  0.
          5    1    1    2  502    0 -0.67221691488E+02  0.61905652976E+01 -0.82494723290E+02  0.10667675790E+03  0.41800000000E+01 0.  1.
         -5    1    1    2    0  502 -0.11112519547E+03 -0.17763496814E+03 -0.24951323783E+03  0.32584861397E+03  0.41800000000E+01 0.  1.
        -11    1    3    3    0    0  0.87072360438E+02  0.40075006260E+02 -0.97146167158E+01  0.96343011458E+02  0.00000000000E+00 0. -1.
         11    1    3    3    0    0  0.91274526516E+02  0.13136939658E+03  0.10895963098E+03  0.19354885360E+03  0.00000000000E+00 0.  1.
</event>
<event>
 7    1  0.5831876E-006  0.7585168E+02  0.7561462E-02  0.1341254E+00
          2   -1    0    0  501    0  0.00000000000E+00  0.00000000000E+00  0.22812209589E+03  0.22812209589E+03  0.00000000000E+00 0. -1.
         -2   -1    0    0    0  501 -0.00000000000E+00 -0.00000000000E+00 -0.55686762003E+02  0.55686762003E+02  0.00000000000E+00 0.  1.
         23    2    1    2    0    0 -0.21069119312E+01  0.32831898400E+02  0.73990892560E+02  0.12126194615E+03  0.90263141823E+02 0.  0.
          5    1    1    2  502    0 -0.85127864912E+01  0.13579213644E+02 -0.25104366058E+02  0.30075973338E+02  0.41800000000E+01 0. -1.
         -5    1    1    2    0  502  0.10619698422E+02 -0.46411112044E+02  0.12354880739E+03  0.13247093841E+03  0.41800000000E+01 0. -1.
        -11    1    3    3    0    0 -0.37626073828E+02  0.35496758410E+02  0.67524804501E+02  0.85060804794E+02  0.00000000000E+00 0. -1.
         11    1    3    3    0    0  0.35519161896E+02 -0.26648600094E+01  0.64660880584E+01  0.36201141356E+02  0.00000000000E+00 0.  1.
</event>
<event>
 7    1  0.5831876E-006  0.1063462E+03  0.7561462E-02  0.1267490E+00
          1   -1    0    0  501    0  0.00000000000E+00  0.00000000000E+00  0.53909326788E+03  0.53909326788E+03  0.00000000000E+00 0. -1.
         -1   -1    0    0    0  501 -0.00000000000E+00 -0.00000000000E+00 -0.26408707840E+02  0.26408707840E+02  0.00000000000E+00 0.  1.
         23    2    1    2    0    0 -0.10836574309E+02  0.26170235245E+02  0.20204892637E+03  0.22942578633E+03  0.10492907237E+03 0.  0.
          5    1    1    2  502    0  0.48776127774E+02  0.31635683890E+02  0.15968753632E+03  0.16999267276E+03  0.41800000000E+01 0. -1.
         -5    1    1    2    0  502 -0.37939553465E+02 -0.57805919135E+02  0.15094809735E+03  0.16608351663E+03  0.41800000000E+01 0. -1.
        -11    1    3    3    0    0 -0.37840773686E+02 -0.10800427531E+02  0.25158787942E+02  0.46706937373E+02  0.00000000000E+00 0.  1.
         11    1    3    3    0    0  0.27004199377E+02  0.36970662776E+02  0.17689013843E+03  0.18271884895E+03  0.00000000000E+00 0. -1.
</event>
<event>
 7    1  0.5831876E-006  0.1086531E+03  0.7561462E-02  0.1263085E+00
         -2   -1    0    0    0  501 -0.00000000000E+00  0.00000000000E+00  0.70639704054E+02  0.70639704054E+02  0.00000000000E+00 0.  1.
          2   -1    0    0  501    0  0.00000000000E+00 -0.00000000000E+00 -0.32559087293E+03  0.32559087293E+03  0.00000000000E+00 0. -1.
         23    2    1    2    0    0  0.60458863516E+02 -0.26594570821E+02 -0.11298005154E+02  0.11449275954E+03  0.92835347211E+02 0.  0.
          5    1    1    2  502    0 -0.78064809288E+02 -0.28385734592E+02 -0.13309952459E+03  0.15694846359E+03  0.41800000000E+01 0. -1.
         -5    1    1    2    0  502  0.17605945773E+02  0.54980305414E+02 -0.11055363913E+03  0.12478935385E+03  0.41800000000E+01 0. -1.
        -11    1    3    3    0    0  0.11824648375E+02  0.99226431715E+01 -0.43157816734E+02  0.45835339008E+02  0.00000000000E+00 0. -1.
         11    1    3    3    0    0  0.48634215141E+02 -0.36517213993E+02  0.31859811580E+02  0.68657420532E+02  0.00000000000E+00 0.  1.
</event>
<event>
 7    1  0.5831876E-006  0.1943278E+03  0.7561462E-02  0.1154615E+00
          1   -1    0    0  501    0  0.00000000000E+00  0.00000000000E+00  0.39845054566E+03  0.39845054566E+03  0.00000000000E+00 0. -1.
         -1   -1    0    0    0  501 -0.00000000000E+00 -0.00000000000E+00 -0.10570639900E+03  0.10570639900E+03  0.00000000000E+00 0.  1.
         23    2    1    2    0    0  0.12817674214E+03  0.11190127251E+03  0.95656419224E+02  0.21529369904E+03  0.90829809492E+02 0.  0.
          5    1    1    2  502    0  0.10564638678E+02  0.97338880026E+01 -0.44299003782E+01  0.15603095315E+02  0.41800000000E+01 0.  1.
         -5    1    1    2    0  502 -0.13874138082E+03 -0.12163516052E+03  0.20151762782E+03  0.27326015031E+03  0.41800000000E+01 0.  1.
        -11    1    3    3    0    0 -0.60794561420E+01  0.32698415380E+02  0.17279057549E+01  0.33303630637E+02  0.00000000000E+00 0.  1.
         11    1    3    3    0    0  0.13425619828E+03  0.79202857133E+02  0.93928513469E+02  0.18199006840E+03  0.00000000000E+00 0. -1.
</event>
<event>
 7    1  0.5831876E-006  0.8941356E+02  0.7561462E-02  0.1304278E+00
          1   -1    0    0  501    0  0.00000000000E+00  0.00000000000E+00  0.11231860775E+03  0.11231860775E+03  0.00000000000E+00 0. -1.
         -1   -1    0    0    0  501 -0.00000000000E+00 -0.00000000000E+00 -0.11219281820E+03  0.11219281820E+03  0.00000000000E+00 0.  1.
         23    2    1    2    0    0  0.57428348223E+01 -0.10121824734E+02 -0.31140636304E+02  0.95047696957E+02  0.89044337157E+02 0.  0.
          5    1    1    2  502    0  0.22919965404E+02 -0.43467588598E+02 -0.16551321859E+02  0.52020906643E+02  0.41800000000E+01 0. -1.
         -5    1    1    2    0  502 -0.28662800226E+02  0.53589413333E+02  0.47817747714E+02  0.77442822357E+02  0.41800000000E+01 0. -1.
        -11    1    3    3    0    0 -0.28174089155E+02  0.91004936865E+01  0.16176938258E+02  0.33738577570E+02  0.00000000000E+00 0. -1.
         11    1    3    3    0    0  0.33916923978E+02 -0.19222318421E+02 -0.47317574561E+02  0.61309119387E+02  0.00000000000E+00 0.  1.
</event>
<event>
 7    1  0.5831876E-006  0.1038814E+03  0.7561462E-02  0.1272339E+00
         -4   -1    0    0    0  501 -0.00000000000E+00  0.00000000000E+00  0.74483071149E+02  0.74483071149E+02  0.00000000000E+00 0.  1.
          4   -1    0    0  501    0  0.00000000000E+00 -0.00000000000E+00 -0.20027908831E+03  0.20027908831E+03  0.00000000000E+00 0. -1.
         23    2    1    2    0    0 -0.90333945550E+01  0.38165598594E+02 -0.12178498661E+02  0.10128660432E+03  0.92587500511E+02 0.  0.
          5    1    1    2  502    0  0.10390493444E+02 -0.73803971098E+02 -0.26441177005E+02  0.79193413522E+02  0.41800000000E+01 0.  1.
         -5    1    1    2    0  502 -0.13570988895E+01  0.35638372504E+02 -0.87176341491E+02  0.94282141617E+02  0.41800000000E+01 0.  1.
        -11    1    3    3    0    0 -0.28432068732E+02  0.60965829726E+02 -0.20304757598E+02  0.70267333147E+02  0.00000000000E+00 0. -1.
         11    1    3    3    0    0  0.19398674177E+02 -0.22800231132E+02  0.81262589364E+01  0.31019271168E+02  0.00000000000E+00 0.  1.
</event>
<event>
 7    1  0.5831876E-006  0.1421634E+03  0.7561462E-02  0.1210447E+00
         -2   -1    0    0    0  501 -0.00000000000E+00  0.00000000000E+00  0.36863247611E+02  0.36863247611E+02  0.00000000000E+00 0.  1.
          2   -1    0    0  501    0  0.00000000000E+00 -0.00000000000E+00 -0.75960976936E+03  0.75960976936E+03  0.00000000000E+00 0. -1.
         23    2    1    2    0    0  0.42669251836E+02  0.12204232290E+03 -0.30500121287E+03  0.34163878477E+03  0.83524402293E+02 0.  0.
          5    1    1    2  502    0 -0.38356161210E+02 -0.11437178052E+03 -0.42555870696E+03  0.44234577510E+03  0.41800000000E+01 0.  1.
         -5    1    1    2    0  502 -0.43130906258E+01 -0.76705423813E+01  0.78133980762E+01  0.12488457097E+02  0.41800000000E+01 0.  1.
        -11    1    3    3    0    0  0.66910598068E+02  0.72091308256E+02 -0.19119283839E+03  0.21500903774E+03  0.00000000000E+00 0.  1.
         11    1    3    3    0    0 -0.24241346232E+02  0.49951014646E+02 -0.11380837448E+03  0.12662974703E+03  0.00000000000E+00 0. -1.
</event>
<event>
 7    1  0.5831876E-006  0.5116740E+02  0.7561462E-02  0.1439145E+00
         -3   -1    0    0    0  501 -0.00000000000E+00  0.00000000000E+00  0.17920236297E+03  0.17920236297E+03  0.00000000000E+00 0.  1.
          3   -1    0    0  501    0  0.00000000000E+00 -0.00000000000E+00 -0.72975068833E+02  0.72975068833E+02  0.00000000000E+00 0. -1.
         23    2    1    2    0    0  0.98645840987E+01 -0.10871301612E+02  0.83628977726E+02  0.12422171194E+03  0.90673770103E+02 0.  0.
          5    1    1    2  502    0 -0.18506399572E+02  0.11519315058E+01 -0.50308825740E+02  0.53779774252E+02  0.41800000000E+01 0. -1.
         -5    1    1    2    0  502  0.86418154729E+01  0.97193701065E+01  0.72907142155E+02  0.74175945610E+02  0.41800000000E+01 0. -1.
        -11    1    3    3    0    0  0.88203276091E+01  0.28728904183E+02  0.78773352744E+02  0.84311263881E+02  0.00000000000E+00 0.  1.
         11    1    3    3    0    0  0.10442564896E+01 -0.39600205795E+02  0.48556249823E+01  0.39910448063E+02  0.00000000000E+00 0. -1.
</event>
<event>
 7    1  0.5831876E-006  0.1194270E+03  0.7561462E-02  0.1244045E+00
          2   -1    0    0  501    0  0.00000000000E+00  0.00000000000E+00  0.37600974856E+03  0.37600974856E+03  0.00000000000E+00 0. -1.
         -2   -1    0    0    0  501 -0.00000000000E+00 -0.00000000000E+00 -0.70646977490E+02  0.70646977490E+02  0.00000000000E+00 0.  1.
         23    2    1    2    0    0 -0.56661914651E+02  0.53003636371E+02  0.10383757076E+02  0.11941991385E+03  0.90185006361E+02 0.  0.
          5    1    1    2  502    0  0.14594311748E+02  0.28912880504E+02  0.22684223852E+02  0.39761727908E+02  0.41800000000E+01 0. -1.
         -5    1    1    2    0  502  0.42067602903E+02 -0.81916516875E+02  0.27229479014E+03  0.28747508429E+03  0.41800000000E+01 0.  1.
        -11    1    3    3    0    0 -0.75115839861E+02  0.57995130065E+02 -0.47795924837E+01  0.95019308635E+02  0.00000000000E+00 0. -1.
         11    1    3    3    0    0  0.18453925210E+02 -0.49914936933E+01  0.15163349560E+02  0.24400605214E+02  0.00000000000E+00 0.  1.
</event>
<event>
 6    1  0.5831876E-006  0.6913513E+02  0.7561462E-02  0.1363059E+00
          1   -1    0    0  501    0  0.00000000000E+00  0.00000000000E+00  0.24001960666E+03  0.24001960666E+03  0.00000000000E+00 0. -1.
         -1   -1    0    0    0  501 -0.00000000000E+00 -0.00000000000E+00 -0.78312204943E+02  0.78312204943E+02  0.00000000000E+00 0.  1.
          5    1    1    2  502    0 -0.16916455787E+02 -0.38336402659E+02 -0.25335596802E+02  0.49144797390E+02  0.41800000000E+01 0.  1.
         -5    1    1    2    0  502  0.12915113933E+02 -0.17659859763E+01  0.10217930677E+03  0.10309220148E+03  0.41800000000E+01 0.  1.
        -11    1    1    2    0    0  0.15039691866E+02  0.58835322194E+02  0.11434044846E+03  0.12946631077E+03  0.00000000000E+00 0. -1.
         11    1    1    2    0    0 -0.11038350011E+02 -0.18732933559E+02 -0.29476756706E+02  0.36628501971E+02  0.00000000000E+00 0.  1.
</event>
<event>
 6    1  0.5831876E-006  0.6579345E+02  0.7561462E-02  0.1375011E+00
          2   -1    0    0  501    0  0.00000000000E+00  0.00000000000E+00  0.43914720789E+03  0.43914720789E+03  0.00000000000E+00 0. -1.
         -2   -1    0    0    0  501 -0.00000000000E+00 -0.00000000000E+00 -0.15881227833E+02  0.15881227833E+02  0.00000000000E+00 0.  1.
          5    1    1    2  502    0  0.37346955755E+02 -0.45652211135E+02  0.32528349040E+03  0.33061418755E+03  0.41800000000E+01 0. -1.
         -5    1    1    2    0  502 -0.39987483500E+02  0.24547314770E+02  0.42696195362E+02  0.63576780333E+02  0.41800000000E+01 0.  1.
        -11    1    1    2    0    0  0.81047926919E+01  0.92634272572E+01  0.25150344308E+02  0.28000688705E+02  0.00000000000E+00 0. -1.
         11    1    1    2    0    0 -0.54642649469E+01  0.11841469107E+02  0.30135949988E+02  0.32836779131E+02  0.00000000000E+00 0.  1.
</event>
<event>
 6    1  0.5831876E-006  0.1552577E+03  0.7561462E-02  0.1194157E+00
          1   -1    0    0  501    0  0.00000000000E+00  0.00000000000E+00  0.26509845515E+03  0.26509845515E+03  0.00000000000E+00 0. -1.
         -1   -1    0    0    0  501 -0.00000000000E+00 -0.00000000000E+00 -0.15437012083E+03  0.15437012083E+03  0.00000000000E+00 0.  1.
          5    1    1    2  502    0  0.52843118982E+02  0.12278555092E+03  0.12706988236E+03  0.18448011855E+03  0.41800000000E+01 0.  1.
         -5    1    1    2    0  502 -0.98217982333E+00  0.90964285725E+01 -0.27416290835E+02  0.29203340444E+02  0.41800000000E+01 0.  1.
        -11    1    1    2    0    0  0.19015865809E+02 -0.70293501930E+02 -0.54756279182E+02  0.91109986697E+02  0.00000000000E+00 0.  1.
         11    1    1    2    0    0 -0.70876804967E+02 -0.61588477566E+02  0.65831021984E+02  0.11467513029E+03  0.00000000000E+00 0. -1.
</event>
<event>
 7    1  0.5831876E-006  0.1619850E+03  0.7561462E-02  0.1186474E+00
         -2   -1    0    0    0  501 -0.00000000000E+00  0.00000000000E+00  0.95849756712E+03  0.95849756712E+03  0.00000000000E+00 0.  1.
          2   -1    0    0  501    0  0.00000000000E+00 -0.00000000000E+00 -0.43290415290E+02  0.43290415290E+02  0.00000000000E+00 0. -1.
         23    2    1    2    0    0  0.12957584316E+03  0.32398683313E+02  0.70193710756E+03  0.72076969307E+03  0.94623853574E+02 0.  0.
          5    1    1    2  502    0 -0.75971818002E+02 -0.63661885474E+02  0.19050307118E+03  0.21478697661E+03  0.41800000000E+01 0.  1.
         -5    1    1    2    0  502 -0.53604025153E+02  0.31263202161E+02  0.22766973082E+02  0.66231312725E+02  0.41800000000E+01 0.  1.
        -11    1    3    3    0    0  0.21378734946E+02  0.48665763701E+02  0.27066642764E+03  0.27583640427E+03  0.00000000000E+00 0.  1.
         11    1    3    3    0    0  0.10819710821E+03 -0.16267080388E+02  0.43127067992E+03  0.44493328881E+03  0.00000000000E+00 0. -1.
</event>
<event>
 7    1  0.5831876E-006  0.1171319E+03  0.7561462E-02  0.1247905E+00
         -2   -1    0    0    0  501 -0.00000000000E+00  0.00000000000E+00  0.19595937766E+02  0.19595937766E+02  0.00000000000E+00 0.  1.
          2   -1    0    0  501    0  0.00000000000E+00 -0.00000000000E+00 -0.10527126989E+04  0.10527126989E+04  0.00000000000E+00 0. -1.
         23    2    1    2    0    0  0.59085502099E+02  0.43433138739E+02 -0.25222775341E+03  0.27807165845E+03  0.91254991875E+02 0.  0.
          5    1    1    2  502    0 -0.57177623622E+02 -0.73566161323E+02 -0.72129567699E+03  0.72730061651E+03  0.41800000000E+01 0.  1.
         -5    1    1    2    0  502 -0.19078784761E+01  0.30133022584E+02 -0.59593330714E+02  0.66936361687E+02  0.41800000000E+01 0.  1.
        -11    1    3    3    0    0  0.54421884674E+02 -0.11301200631E+02 -0.80911814410E+02  0.98164048299E+02  0.00000000000E+00 0.  1.
         11    1    3    3    0    0  0.46636174243E+01  0.54734339370E+02 -0.17131593900E+03  0.17990761015E+03  0.00000000000E+00 0. -1.
</event>
<event>
 7    1  0.5831876E-006  0.9771688E+02  0.7561462E-02  0.1285172E+00
          1   -1    0    0  501    0  0.00000000000E+00  0.00000000000E+00  0.36561417333E+03  0.36561417333E+03  0.00000000000E+00 0. -1.
         -1   -1    0    0    0  501 -0.00000000000E+00 -0.00000000000E+00 -0.34522875567E+02  0.34522875567E+02  0.00000000000E+00 0.  1.
         23    2    1    2    0    0 -0.14949906057E+00  0.30404084313E+02  0.15680349708E+03  0.18344775165E+03  0.90229209211E+02 0.  0.
          5    1    1    2  502    0  0.52352384573E+02 -0.36287355063E+02  0.48067861947E+02  0.79909549243E+02  0.41800000000E+01 0. -1.
         -5    1    1    2    0  502 -0.52202885513E+02  0.58832707505E+01  0.12621993873E+03  0.13677974800E+03  0.41800000000E+01 0. -1.
        -11    1    3    3    0    0  0.35508903528E+02  0.23491646100E+02  0.31434877701E+02  0.52923446622E+02  0.00000000000E+00 0. -1.
         11    1    3    3    0    0 -0.35658402589E+02  0.69124382133E+01  0.12536861938E+03  0.13052430503E+03  0.00000000000E+00 0.  1.
</event>
<event>
 7    1  0.5831876E-006  0.1098841E+03  0.7561462E-02  0.1260785E+00
         -1   -1    0    0    0  501 -0.00000000000E+00  0.00000000000E+00  0.41979606451E+02  0.41979606451E+02  0.00000000000E+00 0.  1.
          1   -1    0    0  501    0  0.00000000000E+00 -0.00000000000E+00 -0.30657587674E+03  0.30657587674E+03  0.00000000000E+00 0. -1.
         23    2    1    2    0    0  0.21435096962E+02  0.22223426724E+02 -0.87719546367E+02  0.12972726906E+03  0.90449441375E+02 0.  0.
          5    1    1    2  502    0 -0.43979655417E+02 -0.63755964711E+02 -0.82738489274E+02  0.11341147708E+03  0.41800000000E+01 0. -1.
         -5    1    1    2    0  502  0.22544558456E+02  0.41532537987E+02 -0.94138234643E+02  0.10541673705E+03  0.41800000000E+01 0. -1.
        -11    1    3    3    0    0 -0.33056862360E+02  0.22986642872E+02 -0.29032115237E+02  0.49638751140E+02  0.00000000000E+00 0. -1.
         11    1    3    3    0    0  0.54491959321E+02 -0.76321614784E+00 -0.58687431130E+02  0.80088517917E+02  0.00000000000E+00 0.  1.
</event>
<event>
 7    1  0.5831876E-006  0.1386709E+03  0.7561462E-02  0.1215129E+00
          1   -1    0    0  501    0  0.00000000000E+00  0.00000000000E+00  0.54719230554E+03  0.54719230554E+03  0.00000000000E+00 0. -1.
         -1   -1    0    0    0  501 -0.00000000000E+00 -0.00000000000E+00 -0.41822561623E+02  0.41822561623E+02  0.00000000000E+00 0.  1.
         23    2    1    2    0    0  0.74217105506E+02  0.67632101444E+02  0.12065618795E+03  0.17220697816E+03  0.70817001774E+02 0.  0.
          5    1    1    2  502    0 -0.89601737588E+02 -0.92203380927E+02  0.28112489124E+03  0.30915790740E+03  0.41800000000E+01 0.  1.
         -5    1    1    2    0  502  0.15384632082E+02  0.24571279484E+02  0.10358866473E+03  0.10764998161E+03  0.41800000000E+01 0.  1.
        -11    1    3    3    0    0  0.22448055661E+02  0.63650564852E+02  0.47643254693E+02  0.82614704058E+02  0.00000000000E+00 0.  1.
         11    1    3    3    0    0  0.51769049845E+02  0.39815365917E+01  0.73012933257E+02  0.89592274100E+02  0.00000000000E+00 0. -1.
</event>
<event>
 7    1  0.5831876E-006  0.9794859E+02  0.7561462E-02  0.1284670E+00
          3   -1    0    0  501    0  0.00000000000E+00  0.00000000000E+00  0.16536462246E+03  0.16536462246E+03  0.00000000000E+00 0. -1.
         -3   -1    0    0    0  501 -0.00000000000E+00 -0.00000000000E+00 -0.75856106949E+02  0.75856106949E+02  0.00000000000E+00 0.  1.
         23    2    1    2    0    0  0.63285452250E+01 -0.62075418515E+00  0.79842645118E+01  0.91775759611E+02  0.91206390960E+02 0.  0.
          5    1    1    2  502    0  0.29637910314E+02 -0.43510516848E+02  0.75368497783E+02  0.92029634696E+02  0.41800000000E+01 0.  1.
         -5    1    1    2    0  502 -0.35966455539E+02  0.44131271034E+02  0.61557532127E+01  0.57415335100E+02  0.41800000000E+01 0.  1.
        -11    1    3    3    0    0 -0.38467772283E+02 -0.11017487823E+02 -0.11793464575E+02  0.41716188093E+02  0.00000000000E+00 0.  1.
         11    1    3    3    0    0  0.44796317508E+02  0.10396733638E+02  0.19777729087E+02  0.50059571517E+02  0.00000000000E+00 0. -1.
</event>
<event>
 7    1  0.5831876E-006  0.9015537E+02  0.7561462E-02  0.1302476E+00
          1   -1    0    0  501    0  0.00000000000E+00  0.00000000000E+00  0.43994856245E+03  0.43994856245E+03  0.00000000000E+00 0. -1.
         -1   -1    0    0    0  501 -0.00000000000E+00 -0.00000000000E+00 -0.35301138533E+02  0.35301138533E+02  0.00000000000E+00 0.  1.
         23    2    1    2    0    0 -0.31734566067E+02  0.18125901489E+02  0.84276096133E+02  0.12938952812E+03  0.91123864159E+02 0.  0.
          5    1    1    2  502    0  0.61637323708E+02  0.14898157353E+02  0.84217044099E+02  0.10550401738E+03  0.41800000000E+01 0.  1.
         -5    1    1    2    0  502 -0.29902757641E+02 -0.33024058842E+02  0.23615428369E+03  0.24035615549E+03  0.41800000000E+01 0.  1.
        -11    1    3    3    0    0  0.92637139446E+01  0.28295870903E+02  0.81829646741E+02  0.87077917935E+02  0.00000000000E+00 0. -1.
         11    1    3    3    0    0 -0.40998280012E+02 -0.10169969414E+02  0.24464493925E+01  0.42311610185E+02  0.00000000000E+00 0.  1.
</event>
<event>
 7    1  0.5831876E-006  0.1527508E+03  0.7561462E-02  0.1197133E+00
          1   -1    0    0  501    0  0.00000000000E+00  0.00000000000E+00  0.89769749835E+03  0.89769749835E+03  0.00000000000E+00 0. -1.
         -1   -1    0    0    0  501 -0.00000000000E+00 -0.00000000000E+00 -0.39918224999E+02  0.39918224999E+02  0.00000000000E+00 0.  1.
         23    2    1    2    0    0  0.66749739267E+02 -0.10917894918E+03  0.18965996276E+03  0.24594696776E+03  0.90241004198E+02 0.  0.
          5    1    1    2  502    0 -0.82851706715E+01  0.85137284831E+02  0.55875348398E+03  0.56527863004E+03  0.41800000000E+01 0.  1.
         -5    1    1    2    0  502 -0.58464568595E+02  0.24041664352E+02  0.10936582661E+03  0.12639012555E+03  0.41800000000E+01 0.  1.
        -11    1    3    3    0    0  0.88825985141E+02 -0.77425129285E+02  0.13939207373E+03  0.18252357793E+03  0.00000000000E+00 0. -1.
         11    1    3    3    0    0 -0.22076245874E+02 -0.31753819898E+02  0.50267889032E+02  0.63423389831E+02  0.00000000000E+00 0.  1.
</event>
<event>
 7    1  0.5831876E-006  0.1071710E+03  0.7561462E-02  0.1265900E+00
         -1   -1    0    0    0  501 -0.00000000000E+00  0.00000000000E+00  0.10976261440E+03  0.10976261440E+03  0.00000000000E+00 0.  1.
          1   -1    0    0  501    0  0.00000000000E+00 -0.00000000000E+00 -0.11639174563E+03  0.11639174563E+03  0.00000000000E+00 0. -1.
         23    2    1    2    0    0 -0.83084042112E+01  0.13626599061E+02  0.21084049686E+02  0.97042503876E+02  0.93370212728E+02 0.  0.
          5    1    1    2  502    0  0.47253831133E+02  0.37266869224E+02 -0.33305847432E+01  0.60417789543E+02  0.41800000000E+01 0.  1.
         -5    1    1    2    0  502 -0.38945426922E+02 -0.50893468285E+02 -0.24382596172E+02  0.68694066616E+02  0.41800000000E+01 0.  1.
        -11    1    3    3    0    0  0.39833197036E+02  0.12094468790E+02 -0.55596555511E+01  0.41998446772E+02  0.00000000000E+00 0. -1.
         11    1    3    3    0    0 -0.48141601247E+02  0.15321302712E+01  0.26643705237E+02  0.55044057104E+02  0.00000000000E+00 0.  1.
</event>
<event>
 7    1  0.5831876E-006  0.8819428E+02  0.7561462E-02  0.1307284E+00
          1   -1    0    0  501    0  0.00000000000E+00  0.00000000000E+00  0.31560587964E+03  0.31560587964E+03  0.00000000000E+00 0. -1.
         -1   -1    0    0    0  501 -0.00000000000E+00 -0.00000000000E+00 -0.39502191376E+02  0.39502191376E+02  0.00000000000E+00 0.  1.
         23    2    1    2    0    0  0.16175939150E+02  0.58136005148E+01  0.81033431672E+02  0.12274126730E+03  0.90573410509E+02 0.  0.
          5    1    1    2  502    0 -0.60144958443E+02 -0.13770577557E+02  0.17013594573E+03  0.18102695176E+03  0.41800000000E+01 0. -1.
         -5    1    1    2    0  502  0.43969019293E+02  0.79569770422E+01  0.24934310860E+02  0.51339851961E+02  0.41800000000E+01 0. -1.
        -11    1    3    3    0    0  0.29476223757E+02 -0.23356649117E+02  0.82479806754E+02  0.90649320721E+02  0.00000000000E+00 0. -1.
         11    1    3    3    0    0 -0.13300284607E+02  0.29170249632E+02 -0.14463750828E+01  0.32091946577E+02  0.00000000000E+00 0.  1.
</event>
<event>
 7    1  0.5831876E-006  0.1611066E+03  0.7561462E-02  0.1187453E+00
         -2   -1    0    0    0  501 -0.00000000000E+00  0.00000000000E+00  0.36571956306E+02  0.36571956306E+02  0.00000000000E+00 0. -1.
          2   -1    0    0  501    0  0.00000000000E+00 -0.00000000000E+00 -0.12093362606E+04  0.12093362606E+04  0.00000000000E+00 0.  1.
         23    2    1    2    0    0 -0.14385611179E+03 -0.61222273949E+02 -0.30004838796E+03  0.35051877446E+03  0.91605831749E+02 0.  0.
          5    1    1    2  502    0  0.87384216903E+02  0.27886666347E+02 -0.75510267832E+03  0.76066496878E+03  0.41800000000E+01 0. -1.
         -5    1    1    2    0  502  0.56471894884E+02  0.33335607602E+02 -0.11761323800E+03  0.13472447365E+03  0.41800000000E+01 0. -1.
        -11    1    3    3    0    0 -0.30607186627E+02  0.84059287841E+01 -0.13452358758E+03  0.13821741977E+03  0.00000000000E+00 0.  1.
         11    1    3    3    0    0 -0.11324892516E+03 -0.69628202733E+02 -0.16552480037E+03  0.21230135469E+03  0.00000000000E+00 0. -1.
</event>
<event>
 7    1  0.5831876E-006  0.7360905E+02  0.7561462E-02  0.1348233E+00
          1   -1    0    0  501    0  0.00000000000E+00  0.00000000000E+00  0.20592091047E+02  0.20592091047E+02  0.00000000000E+00 0. -1.
         -1   -1    0    0    0  501 -0.00000000000E+00 -0.00000000000E+00 -0.58885485659E+03  0.58885485659E+03  0.00000000000E+00 0.  1.
         23    2    1    2    0    0  0.14268127508E+02 -0.12873902569E+02 -0.21358679488E+03  0.23286644847E+03  0.90764238828E+02 0.  0.
          5    1    1    2  502    0 -0.37387223034E+00  0.36659083150E+02 -0.22456633009E+02  0.43194917802E+02  0.41800000000E+01 0. -1.
         -5    1    1    2    0  502 -0.13894255278E+02 -0.23785180581E+02 -0.33221933766E+03  0.33338558136E+03  0.41800000000E+01 0. -1.
        -11    1    3    3    0    0  0.44553413863E+02 -0.23489493231E+02 -0.17780827761E+03  0.18480407616E+03  0.00000000000E+00 0.  1.
         11    1    3    3    0    0 -0.30285286355E+02  0.10615590661E+02 -0.35778517265E+02  0.48062372313E+02  0.00000000000E+00 0. -1.
</event>
<event>
 7    1  0.5831876E-006  0.9327542E+02  0.7561462E-02  0.1295108E+00
          1   -1    0    0  501    0  0.00000000000E+00  0.00000000000E+00  0.51631334976E+03  0.51631334976E+03  0.00000000000E+00 0. -1.
         -1   -1    0    0    0  501 -0.00000000000E+00 -0.00000000000E+00 -0.46615520799E+02  0.46615520799E+02  0.00000000000E+00 0.  1.
         23    2    1    2    0    0  0.35754521024E+02 -0.54740015655E+02  0.53317017711E+02  0.12327500433E+03  0.89884187866E+02 0.  0.
          5    1    1    2  502    0 -0.60744353374E+01  0.42750293197E+02  0.31968015982E+02  0.53887965065E+02  0.41800000000E+01 0.  1.
         -5    1    1    2    0  502 -0.29680085687E+02  0.11989722458E+02  0.38441279527E+03  0.38576590116E+03  0.41800000000E+01 0.  1.
        -11    1    3    3    0    0 -0.30331243250E+02 -0.18188090340E+02  0.20990264096E+02  0.41126416500E+02  0.00000000000E+00 0.  1.
         11    1    3    3    0    0  0.66085764274E+02 -0.36551925315E+02  0.32326753615E+02  0.82148587834E+02  0.00000000000E+00 0. -1.
</event>
<event>
 7    1  0.5831876E-006  0.9430228E+02  0.7561462E-02  0.1292755E+00
         -2   -1    0    0    0  501 -0.00000000000E+00  0.00000000000E+00  0.39221560449E+02  0.39221560449E+02  0.00000000000E+00 0. -1.
          2   -1    0    0  501    0  0.00000000000E+00 -0.00000000000E+00 -0.39174412298E+03  0.39174412298E+03  0.00000000000E+00 0.  1.
         23    2    1    2    0    0 -0.23792478955E+02  0.31766718749E+00 -0.64043110983E+02  0.11563330837E+03  0.93291794772E+02 0.  0.
          5    1    1    2  502    0  0.16408733527E+02 -0.46953053176E+02 -0.44749839382E+02  0.67036230974E+02  0.41800000000E+01 0. -1.
         -5    1    1    2    0  502  0.73837454283E+01  0.46635385989E+02 -0.24372961217E+03  0.24829614409E+03  0.41800000000E+01 0. -1.
        -11    1    3    3    0    0 -0.29054490045E+02  0.41010156612E+02 -0.53215160186E+02  0.73197333358E+02  0.00000000000E+00 0.  1.
         11    1    3    3    0    0  0.52620110905E+01 -0.40692489425E+02 -0.10827950797E+02  0.42435975007E+02  0.00000000000E+00 0. -1.
</event>
<event>
 7    1  0.5831876E-006  0.1756846E+03  0.7561462E-02  0.1172046E+00
          3   -1    0    0  501    0  0.00000000000E+00  0.00000000000E+00  0.22458125012E+03  0.22458125012E+03  0.00000000000E+00 0. -1.
         -3   -1    0    0    0  501 -0.00000000000E+00 -0.00000000000E+00 -0.16082579097E+03  0.16082579097E+03  0.00000000000E+00 0.  1.
         23    2    1    2    0    0  0.15479472206E+03  0.11735229252E+02  0.38287853544E+02  0.18442272345E+03  0.91905710442E+02 0.  0.
          5    1    1    2  502    0  0.12812708132E+02 -0.22412669533E+02  0.19952181610E+02  0.32894607404E+02  0.41800000000E+01 0. -1.
         -5    1    1    2    0  502 -0.16760743019E+03  0.10677440281E+02  0.55154240010E+01  0.16808971024E+03  0.41800000000E+01 0. -1.
        -11    1    3    3    0    0  0.88054243724E+02 -0.56949758883E+01 -0.24041426115E+02  0.91454757983E+02  0.00000000000E+00 0.  1.
         11    1    3    3    0    0  0.66740478335E+02  0.17430205141E+02  0.62329279660E+02  0.92967965464E+02  0.00000000000E+00 0. -1.
</event>
<event>
 7    1  0.5831876E-006  0.7515711E+02  0.7561462E-02  0.1343385E+00
         -2   -1    0    0    0  501 -0.00000000000E+00  0.00000000000E+00  0.18703427025E+02  0.18703427025E+02  0.00000000000E+00 0.  1.
          2   -1    0    0  501    0  0.00000000000E+00 -0.00000000000E+00 -0.90560669922E+03  0.90560669922E+03  0.00000000000E+00 0. -1.
         23    2    1    2    0    0  0.53328746818E+02 -0.24142323963E+02 -0.24546136965E+03  0.26817239617E+03  0.90765318446E+02 0.  0.
          5    1    1    2  502    0 -0.53440111906E+02  0.22656490976E+02 -0.10803058180E+03  0.12270795063E+03  0.41800000000E+01 0. -1.
         -5    1    1    2    0  502  0.11136508790E+00  0.14858329869E+01 -0.53341132075E+03  0.53342977945E+03  0.41800000000E+01 0. -1.
        -11    1    3    3    0    0  0.31080981976E+02  0.20893234226E+02 -0.33198284271E+02  0.50046785666E+02  0.00000000000E+00 0.  1.
         11    1    3    3    0    0  0.22247764843E+02 -0.45035558190E+02 -0.21226308538E+03  0.21812561050E+03  0.00000000000E+00 0. -1.
</event>
<event>
 7    1  0.5831876E-006  0.1176807E+03  0.7561462E-02  0.1246973E+00
         -1   -1    0    0    0  501 -0.00000000000E+00  0.00000000000E+00  0.54858771458E+03  0.54858771458E+03  0.00000000000E+00 0.  1.
          1   -1    0    0  501    0  0.00000000000E+00 -0.00000000000E+00 -0.33338030107E+02  0.33338030107E+02  0.00000000000E+00 0. -1.
         23    2    1    2    0    0 -0.38969206030E+02 -0.48286404125E+02  0.34055185981E+03  0.35827083987E+03  0.92370177183E+02 0.  0.
          5    1    1    2  502    0 -0.29757997066E+02  0.62429506708E+02  0.90339508146E+02  0.11384937782E+03  0.41800000000E+01 0.  1.
         -5    1    1    2    0  502  0.68727203096E+02 -0.14143102584E+02  0.84358316511E+02  0.10980552700E+03  0.41800000000E+01 0.  1.
        -11    1    3    3    0    0 -0.55853481994E+02 -0.54264320409E+02  0.32606242417E+03  0.33523265410E+03  0.00000000000E+00 0.  1.
         11    1    3    3    0    0  0.16884275964E+02  0.59779162848E+01  0.14489435641E+02  0.23038185760E+02  0.00000000000E+00 0. -1.
</event>
<event>
 7    1  0.5831876E-006  0.1132711E+03  0.7561462E-02  0.1254630E+00
         -1   -1    0    0    0  501 -0.00000000000E+00  0.00000000000E+00  0.32751862650E+02  0.32751862650E+02  0.00000000000E+00 0.  1.
          1   -1    0    0  501    0  0.00000000000E+00 -0.00000000000E+00 -0.57793346687E+03  0.57793346687E+03  0.00000000000E+00 0. -1.
         23    2    1    2    0    0  0.58327369065E+02  0.13541307723E+01 -0.12740403752E+03  0.16721390122E+03  0.91240256102E+02 0.  0.
          5    1    1    2  502    0 -0.10230170085E+03 -0.12085694847E+02 -0.27906401236E+03  0.29749940742E+03  0.41800000000E+01 0. -1.
         -5    1    1    2    0  502  0.43974331785E+02  0.10731564075E+02 -0.13871355433E+03  0.14597202088E+03  0.41800000000E+01 0.  1.
        -11    1    3    3    0    0  0.37578417923E+02 -0.24482402029E+02 -0.12633498878E+03  0.13405989293E+03  0.00000000000E+00 0. -1.
         11    1    3    3    0    0  0.20748951142E+02  0.25836532801E+02 -0.10690487423E+01  0.33154008293E+02  0.00000000000E+00 0.  1.
</event>
<event>
 7    1  0.5831876E-006  0.1031575E+03  0.7561462E-02  0.1273793E+00
          1   -1    0    0  501    0  0.00000000000E+00  0.00000000000E+00  0.24519381618E+03  0.24519381618E+03  0.00000000000E+00 0. -1.
         -1   -1    0    0    0  501 -0.00000000000E+00 -0.00000000000E+00 -0.77999638761E+02  0.77999638761E+02  0.00000000000E+00 0.  1.
         23    2    1    2    0    0 -0.48395591868E+02 -0.51976923139E+02  0.19760036127E+02  0.11721245827E+03  0.91129399722E+02 0.  0.
          5    1    1    2  502    0  0.51427703912E+02 -0.16830888573E+02  0.12004317340E+03  0.13174188180E+03  0.41800000000E+01 0. -1.
         -5    1    1    2    0  502 -0.30321120441E+01  0.68807811712E+02  0.27390967895E+02  0.74239114881E+02  0.41800000000E+01 0. -1.
        -11    1    3    3    0    0 -0.22459283239E+02 -0.52496541561E+02 -0.27442318877E+02  0.63351299472E+02  0.00000000000E+00 0.  1.
         11    1    3    3    0    0 -0.25936308629E+02  0.51961842202E+00  0.47202355004E+02  0.53861158793E+02  0.00000000000E+00 0. -1.
</event>
<event>
 7    1  0.5831876E-006  0.1208096E+03  0.7561462E-02  0.1241767E+00
          2   -1    0    0  501    0  0.00000000000E+00  0.00000000000E+00  0.27347030460E+03  0.27347030460E+03  0.00000000000E+00 0.  1.
         -2   -1    0    0    0  501 -0.00000000000E+00 -0.00000000000E+00 -0.87831475623E+02  0.87831475623E+02  0.00000000000E+00 0. -1.
         23    2    1    2    0    0 -0.51621087141E+02 -0.85989630592E+02  0.53890333489E+02  0.15378334596E+03  0.10337405981E+03 0.  0.
          5    1    1    2  502    0  0.67496129026E+02  0.70910105354E+02  0.28724347180E+02  0.10211038633E+03  0.41800000000E+01 0.  1.
         -5    1    1    2    0  502 -0.15875041885E+02  0.15079525238E+02  0.10302414831E+03  0.10540804794E+03  0.41800000000E+01 0.  1.
        -11    1    3    3    0    0 -0.36981954652E+02 -0.96484426371E+02  0.73767585420E+02  0.12695891525E+03  0.00000000000E+00 0.  1.
         11    1    3    3    0    0 -0.14639132489E+02  0.10494795779E+02 -0.19877251931E+02  0.26824430708E+02  0.00000000000E+00 0. -1.
</event>
<event>
 7    1  0.5831876E-006  0.1521207E+03  0.7561462E-02  0.1197891E+00
          1   -1    0    0  501    0  0.00000000000E+00  0.00000000000E+00  0.10716181599E+04  0.10716181599E+04  0.00000000000E+00 0. -1.
         -1   -1    0    0    0  501 -0.00000000000E+00 -0.00000000000E+00 -0.30661718300E+02  0.30661718300E+02  0.00000000000E+00 0.  1.
         23    2    1    2    0    0 -0.61231861086E+01  0.13930204099E+03  0.41169176087E+03  0.44572517789E+03  0.98682704713E+02 0.  0.
          5    1    1    2  502    0  0.25485861760E+02 -0.14211496888E+03  0.38061331718E+03  0.40709969681E+03  0.41800000000E+01 0. -1.
         -5    1    1    2    0  502 -0.19362675651E+02  0.28129278922E+01  0.24865136352E+03  0.24945500346E+03  0.41800000000E+01 0. -1.
        -11    1    3    3    0    0 -0.71837493912E+01  0.53216163234E+02  0.48138099293E+02  0.72116869651E+02  0.00000000000E+00 0.  1.
         11    1    3    3    0    0  0.10605632826E+01  0.86085877757E+02  0.36355366157E+03  0.37360830824E+03  0.00000000000E+00 0. -1.
</event>
<event>
 7    1  0.5831876E-006  0.1043888E+03  0.7561462E-02  0.1271328E+00
         -1   -1    0    0    0  501 -0.00000000000E+00  0.00000000000E+00  0.44447663515E+02  0.44447663515E+02  0.00000000000E+00 0.  1.
          1   -1    0    0  501    0  0.00000000000E+00 -0.00000000000E+00 -0.50367745525E+03  0.50367745525E+03  0.00000000000E+00 0. -1.
         23    2    1    2    0    0  0.90401145611E+02  0.12972756792E+02 -0.13166719683E+03  0.18579181102E+03  0.94030243944E+02 0.  0.
          5    1    1    2  502    0 -0.52190881187E+02  0.22017807666E+02 -0.29626157726E+03  0.30165720030E+03  0.41800000000E+01 0. -1.
         -5    1    1    2    0  502 -0.38210264424E+02 -0.34990564458E+02 -0.31301017651E+02  0.60676107443E+02  0.41800000000E+01 0. -1.
        -11    1    3    3    0    0  0.13823069141E+02  0.18646408411E+02 -0.10012110392E+03  0.10277646246E+03  0.00000000000E+00 0. -1.
         11    1    3    3    0    0  0.76578076470E+02 -0.56736516187E+01 -0.31546092913E+02  0.83015348560E+02  0.00000000000E+00 0.  1.
</event>
<event>
 7    1  0.5831876E-006  0.1131752E+03  0.7561462E-02  0.1254800E+00
          2   -1    0    0  501    0  0.00000000000E+00  0.00000000000E+00  0.60982665083E+03  0.60982665083E+03  0.00000000000E+00 0. -1.
         -2   -1    0    0    0  501 -0.00000000000E+00 -0.00000000000E+00 -0.37384376486E+02  0.37384376486E+02  0.00000000000E+00 0.  1.
         23    2    1    2    0    0 -0.73505734256E+02  0.65804958511E+02  0.18734070569E+03  0.23045582065E+03  0.90994284058E+02 0.  0.
          5    1    1    2  502    0  0.23878441126E+02  0.31369673940E+01  0.22231788684E+01  0.24544560280E+02  0.41800000000E+01 0.  1.
         -5    1    1    2    0  502  0.49627293130E+02 -0.68941925905E+02  0.38287838979E+03  0.39221064639E+03  0.41800000000E+01 0.  1.
        -11    1    3    3    0    0 -0.32865628086E+01  0.42858671741E+02  0.19747568096E+02  0.47303632886E+02  0.00000000000E+00 0.  1.
         11    1    3    3    0    0 -0.70219171447E+02  0.22946286770E+02  0.16759313759E+03  0.18315218776E+03  0.00000000000E+00 0. -1.
</event>
<event>
 7    1  0.5831876E-006  0.1178869E+03  0.7561462E-02  0.1246624E+00
         -2   -1    0    0    0  501 -0.00000000000E+00  0.00000000000E+00  0.16782187468E+03  0.16782187468E+03  0.00000000000E+00 0.  1.
          2   -1    0    0  501    0  0.00000000000E+00 -0.00000000000E+00 -0.14999359434E+03  0.14999359434E+03  0.00000000000E+00 0. -1.
         23    2    1    2    0    0 -0.29750340112E+02 -0.93443147210E+02  0.73140236752E+02  0.14954741633E+03  0.86012969959E+02 0.  0.
          5    1    1    2  502    0  0.57365885046E+02  0.61772067995E+02  0.15505185889E+02  0.85816760256E+02  0.41800000000E+01 0. -1.
         -5    1    1    2    0  502 -0.27615544933E+02  0.31671079215E+02 -0.70817142304E+02  0.82451292438E+02  0.41800000000E+01 0. -1.
        -11    1    3    3    0    0  0.76193410540E+01 -0.55013108820E+02  0.77968565289E+02  0.95726661247E+02  0.00000000000E+00 0.  1.
         11    1    3    3    0    0 -0.37369681167E+02 -0.38430038390E+02 -0.48283285373E+01  0.53820755082E+02  0.00000000000E+00 0. -1.
</event>
<event>
 7    1  0.5831876E-006  0.1071693E+03  0.7561462E-02  0.1265903E+00
          2   -1    0    0  501    0  0.00000000000E+00  0.00000000000E+00  0.43878266012E+02  0.43878266012E+02  0.00000000000E+00 0. -1.
         -2   -1    0    0    0  501 -0.00000000000E+00 -0.00000000000E+00 -0.41033493793E+03  0.41033493793E+03  0.00000000000E+00 0.  1.
         23    2    1    2    0    0  0.23475555529E+02 -0.15577078891E+02 -0.29078501951E+03  0.30531657862E+03  0.88704782920E+02 0.  0.
          5    1    1    2  502    0  0.41551653014E+02  0.40774193136E+02 -0.35103420545E+02  0.68108716242E+02  0.41800000000E+01 0. -1.
         -5    1    1    2    0  502 -0.65027208544E+02 -0.25197114246E+02 -0.40568231860E+02  0.80787909080E+02  0.41800000000E+01 0. -1.
        -11    1    3    3    0    0  0.37300714969E+01  0.33240876305E+02 -0.60943538754E+02  0.69519667769E+02  0.00000000000E+00 0.  1.
         11    1    3    3    0    0  0.19745484032E+02 -0.48817955196E+02 -0.22984148076E+03  0.23579691085E+03  0.00000000000E+00 0. -1.
</event>
<event>
 7    1  0.5831876E-006  0.1329754E+03  0.7561462E-02  0.1223106E+00
         -1   -1    0    0    0  501 -0.00000000000E+00  0.00000000000E+00  0.77904187413E+02  0.77904187413E+02  0.00000000000E+00 0.  1.
          1   -1    0    0  501    0  0.00000000000E+00 -0.00000000000E+00 -0.26881497235E+03  0.26881497235E+03  0.00000000000E+00 0. -1.
         23    2    1    2    0    0  0.71774674485E+02 -0.54157398499E+02 -0.50473526346E+02  0.13827459325E+03  0.92128489438E+02 0.  0.
          5    1    1    2  502    0 -0.10001960227E+03  0.23779735790E+02 -0.63419607878E+02  0.12086734768E+03  0.41800000000E+01 0.  1.
         -5    1    1    2    0  502  0.28244927785E+02  0.30377662710E+02 -0.77017650717E+02  0.87577218838E+02  0.41800000000E+01 0.  1.
        -11    1    3    3    0    0  0.65305329233E+02 -0.75056957537E+02 -0.21191638056E+02  0.10172226120E+03  0.00000000000E+00 0.  1.
         11    1    3    3    0    0  0.64693452515E+01  0.20899559037E+02 -0.29281888290E+02  0.36552332043E+02  0.00000000000E+00 0. -1.
</event>
<event>
 7    1  0.5831876E-006  0.1036770E+03  0.7561462E-02  0.1272748E+00
         -1   -1    0    0    0  501 -0.00000000000E+00  0.00000000000E+00  0.90594637757E+02  0.90594637757E+02  0.00000000000E+00 0.  1.
          1   -1    0    0  501    0  0.00000000000E+00 -0.00000000000E+00 -0.17327527322E+03  0.17327527322E+03  0.00000000000E+00 0. -1.
         23    2    1    2    0    0 -0.41614036852E+01 -0.17988801393E+02  0.26770832299E+02  0.96629470715E+02  0.90992652959E+02 0.  0.
          5    1    1    2  502    0  0.38733638463E+02  0.53849276684E+02 -0.28980372266E+02  0.72507749411E+02  0.41800000000E+01 0. -1.
         -5    1    1    2    0  502 -0.34572234777E+02 -0.35860475291E+02 -0.80471095499E+02  0.94732690854E+02  0.41800000000E+01 0. -1.
        -11    1    3    3    0    0  0.82422932569E-01  0.36374241042E+02  0.20468875514E+02  0.41738076977E+02  0.00000000000E+00 0. -1.
         11    1    3    3    0    0 -0.42438266178E+01 -0.54363042435E+02  0.63019567852E+01  0.54891393738E+02  0.00000000000E+00 0.  1.
</event>
<event>
 7    1  0.7216465E-006  0.1456997E+03  0.7561462E-02  0.1205859E+00
          1   -1    0    0  501    0  0.00000000000E+00  0.00000000000E+00  0.10496943362E+04  0.10496943362E+04  0.00000000000E+00 0. -1.
         -1   -1    0    0    0  501 -0.00000000000E+00 -0.00000000000E+00 -0.30893872477E+02  0.30893872477E+02  0.00000000000E+00 0.  1.
         23    2    1    2    0    0  0.99250406870E+02 -0.10232153955E+03  0.43843313661E+03  0.47001960539E+03  0.91512149230E+02 0.  0.
          5    1    1    2  502    0 -0.39728719283E+02  0.35150638715E+02  0.51252173203E+02  0.73879606090E+02  0.41800000000E+01 0. -1.
         -5    1    1    2    0  502 -0.59521687586E+02  0.67170900833E+02  0.52911515393E+03  0.53668899721E+03  0.41800000000E+01 0. -1.
        -11    1    3    3    0    0  0.65223674977E+02 -0.92019802857E+02  0.40773543807E+03  0.42304841255E+03  0.00000000000E+00 0. -1.
         11    1    3    3    0    0  0.34026731893E+02 -0.10301736690E+02  0.30697698536E+02  0.46971192848E+02  0.00000000000E+00 0.  1.
</event>
<event>
 7    1  0.5831876E-006  0.1023295E+03  0.7561462E-02  0.1275472E+00
         -1   -1    0    0    0  501 -0.00000000000E+00  0.00000000000E+00  0.16235694795E+02  0.16235694795E+02  0.00000000000E+00 0.  1.
          1   -1    0    0  501    0  0.00000000000E+00 -0.00000000000E+00 -0.13545920295E+04  0.13545920295E+04  0.00000000000E+00 0. -1.
         23    2    1    2    0    0  0.33585614896E+02  0.26306152924E+02 -0.18438222182E+03  0.20930946824E+03  0.89407172886E+02 0.  0.
          5    1    1    2  502    0 -0.25041061834E+02  0.47711210683E+02 -0.62060454177E+03  0.62295335625E+03  0.41800000000E+01 0. -1.
         -5    1    1    2    0  502 -0.85445530628E+01 -0.74017363606E+02 -0.53336957110E+03  0.53856489978E+03  0.41800000000E+01 0. -1.
        -11    1    3    3    0    0  0.10843871138E+02  0.45162076410E+02 -0.38098212209E+02  0.60072260324E+02  0.00000000000E+00 0.  1.
         11    1    3    3    0    0  0.22741743758E+02 -0.18855923486E+02 -0.14628400961E+03  0.14923720792E+03  0.00000000000E+00 0. -1.
</event>
<event>
 7    1  0.5831876E-006  0.9480254E+02  0.7561462E-02  0.1291621E+00
          1   -1    0    0  501    0  0.00000000000E+00  0.00000000000E+00  0.40064051473E+03  0.40064051473E+03  0.00000000000E+00 0. -1.
         -1   -1    0    0    0  501 -0.00000000000E+00 -0.00000000000E+00 -0.37553390708E+02  0.37553390708E+02  0.00000000000E+00 0.  1.
         23    2    1    2    0    0 -0.24634365339E+02 -0.78076518612E+01  0.75662521454E+02  0.12366541051E+03  0.94342488951E+02 0.  0.
          5    1    1    2  502    0  0.31720221509E+02  0.51648402393E+02  0.24689231091E+03  0.25425777374E+03  0.41800000000E+01 0.  1.
         -5    1    1    2    0  502 -0.70858561704E+01 -0.43840750532E+02  0.40532291661E+02  0.60270721185E+02  0.41800000000E+01 0.  1.
        -11    1    3    3    0    0 -0.36166661264E+02 -0.37676553109E+02  0.75308429709E+02  0.91645565230E+02  0.00000000000E+00 0. -1.
         11    1    3    3    0    0  0.11532295925E+02  0.29868901248E+02  0.35409174527E+00  0.32019845284E+02  0.00000000000E+00 0.  1.
</event>
<event>
 7    1  0.5831876E-006  0.1180660E+03  0.7561462E-02  0.1246322E+00
         -2   -1    0    0    0  501 -0.00000000000E+00  0.00000000000E+00  0.16455966167E+03  0.16455966167E+03  0.00000000000E+00 0.  1.
          2   -1    0    0  501    0  0.00000000000E+00 -0.00000000000E+00 -0.10038054690E+03  0.10038054690E+03  0.00000000000E+00 0. -1.
         23    2    1    2    0    0 -0.34401930872E+02  0.61020676169E+02  0.39057036866E+02  0.11938665060E+03  0.88434746817E+02 0.  0.
          5    1    1    2  502    0 -0.66069496852E+01  0.30166920944E+02  0.32729712283E+02  0.45192934951E+02  0.41800000000E+01 0. -1.
         -5    1    1    2    0  502  0.41008880557E+02 -0.91187597114E+02 -0.76076343714E+01  0.10036062302E+03  0.41800000000E+01 0. -1.
        -11    1    3    3    0    0 -0.70887289470E+01  0.74222495238E+02  0.64325962603E+01  0.74837204464E+02  0.00000000000E+00 0. -1.
         11    1    3    3    0    0 -0.27313201925E+02 -0.13201819068E+02  0.32624440605E+02  0.44549446135E+02  0.00000000000E+00 0.  1.
</event>
<event>
 7    1  0.5831876E-006  0.1271982E+03  0.7561462E-02  0.1231673E+00
          1   -1    0    0  501    0  0.00000000000E+00  0.00000000000E+00  0.12710820930E+04  0.12710820930E+04  0.00000000000E+00 0. -1.
         -1   -1    0    0    0  501 -0.00000000000E+00 -0.00000000000E+00 -0.23761818778E+02  0.23761818778E+02  0.00000000000E+00 0.  1.
         23    2    1    2    0    0 -0.37733404213E+02  0.53563908995E+02  0.15105640213E+03  0.18952263571E+03  0.93850363239E+02 0.  0.
          5    1    1    2  502    0  0.81652949074E+02 -0.16102047866E+02  0.65081169135E+03  0.65612484334E+03  0.41800000000E+01 0.  1.
         -5    1    1    2    0  502 -0.43919544861E+02 -0.37461861130E+02  0.44545218076E+03  0.44919643276E+03  0.41800000000E+01 0.  1.
        -11    1    3    3    0    0  0.13162291053E+02 -0.19874470403E+02  0.44321232265E+02  0.50325064422E+02  0.00000000000E+00 0. -1.
         11    1    3    3    0    0 -0.50895695265E+02  0.73438379399E+02  0.10673516987E+03  0.13919757129E+03  0.00000000000E+00 0.  1.
</event>
<event>
 6    1  0.5831876E-006  0.6571786E+02  0.7561462E-02  0.1375291E+00
         -4   -1    0    0    0  501 -0.00000000000E+00  0.00000000000E+00  0.19762776412E+02  0.19762776412E+02  0.00000000000E+00 0.  1.
          4   -1    0    0  501    0  0.00000000000E+00 -0.00000000000E+00 -0.39854326948E+03  0.39854326948E+03  0.00000000000E+00 0. -1.
          5    1    1    2  502    0  0.52074837401E+02  0.83117243016E+01 -0.28923399848E+03  0.29403171891E+03  0.41800000000E+01 0. -1.
         -5    1    1    2    0  502 -0.36386650982E+02 -0.43312247132E+01 -0.39196471944E+02  0.53819919082E+02  0.41800000000E+01 0.  1.
        -11    1    1    2    0    0  0.11832820797E+02  0.47971576838E+01 -0.36004649823E+02  0.38201612253E+02  0.00000000000E+00 0. -1.
         11    1    1    2    0    0 -0.27521007216E+02 -0.87776572723E+01 -0.14345372823E+02  0.32252795644E+02  0.00000000000E+00 0.  1.
</event>
<event>
 7    1  0.5831876E-006  0.1082035E+03  0.7561462E-02  0.1263933E+00
          1   -1    0    0  501    0  0.00000000000E+00  0.00000000000E+00  0.87484071620E+02  0.87484071620E+02  0.00000000000E+00 0. -1.
         -1   -1    0    0    0  501 -0.00000000000E+00 -0.00000000000E+00 -0.20248231651E+03  0.20248231651E+03  0.00000000000E+00 0.  1.
         23    2    1    2    0    0 -0.63005388174E+02 -0.38278467645E+01 -0.98724792246E+02  0.14500929601E+03  0.85421191610E+02 0.  0.
          5    1    1    2  502    0  0.67972893711E+02  0.36388125373E+02  0.34276094909E+02  0.84479186962E+02  0.41800000000E+01 0. -1.
         -5    1    1    2    0  502 -0.49675055371E+01 -0.32560278608E+02 -0.50549547555E+02  0.60477905159E+02  0.41800000000E+01 0.  1.
        -11    1    3    3    0    0  0.17947045973E+02  0.14404074282E+02 -0.25399696467E+02  0.34274165135E+02  0.00000000000E+00 0. -1.
         11    1    3    3    0    0 -0.80952434147E+02 -0.18231921046E+02 -0.73325095779E+02  0.11073513088E+03  0.00000000000E+00 0.  1.
</event>
<event>
 7    1  0.5831876E-006  0.1037739E+03  0.7561462E-02  0.1272554E+00
         -1   -1    0    0    0  501 -0.00000000000E+00  0.00000000000E+00  0.27146504975E+02  0.27146504975E+02  0.00000000000E+00 0.  1.
          1   -1    0    0  501    0  0.00000000000E+00 -0.00000000000E+00 -0.66702393203E+03  0.66702393203E+03  0.00000000000E+00 0. -1.
         23    2    1    2    0    0 -0.73095237289E+02  0.31965115307E+02 -0.27820529206E+03  0.30324973138E+03  0.90540227223E+02 0.  0.
          5    1    1    2  502    0  0.46624296162E+02  0.32929632109E+02 -0.26694096669E+03  0.27300757821E+03  0.41800000000E+01 0. -1.
         -5    1    1    2    0  502  0.26470941127E+02 -0.64894747416E+02 -0.94731168308E+02  0.11791312741E+03  0.41800000000E+01 0. -1.
        -11    1    3    3    0    0 -0.40514092046E+02  0.21608313358E+02 -0.26094142215E+03  0.26495044189E+03  0.00000000000E+00 0. -1.
         11    1    3    3    0    0 -0.32581145244E+02  0.10356801949E+02 -0.17263869903E+02  0.38299289498E+02  0.00000000000E+00 0.  1.
</event>
<event>
 7    1  0.5831876E-006  0.1577925E+03  0.7561462E-02  0.1191212E+00
         -2   -1    0    0    0  501 -0.00000000000E+00  0.00000000000E+00  0.89782247920E+02  0.89782247920E+02  0.00000000000E+00 0. -1.
          2   -1    0    0  501    0  0.00000000000E+00 -0.00000000000E+00 -0.40105966253E+03  0.40105966253E+03  0.00000000000E+00 0.  1.
         23    2    1    2    0    0 -0.92273377577E+02  0.97911203743E+02 -0.46065198555E+02  0.16822036881E+03  0.89861615474E+02 0.  0.
          5    1    1    2  502    0  0.42156386863E+02 -0.11841946857E+03 -0.15380049780E+03  0.19867661416E+03  0.41800000000E+01 0. -1.
         -5    1    1    2    0  502  0.50116990714E+02  0.20508264828E+02 -0.11141171826E+03  0.12394492749E+03  0.41800000000E+01 0. -1.
        -11    1    3    3    0    0 -0.48162995812E+02  0.62703660342E+02 -0.71235772377E+02  0.10642348637E+03  0.00000000000E+00 0.  1.
         11    1    3    3    0    0 -0.44110381765E+02  0.35207543402E+02  0.25170573822E+02  0.61796882432E+02  0.00000000000E+00 0. -1.
</event>
<event>
 7    1  0.5831876E-006  0.1022710E+03  0.7561462E-02  0.1275591E+00
         -3   -1    0    0    0  501 -0.00000000000E+00  0.00000000000E+00  0.17790755718E+02  0.17790755718E+02  0.00000000000E+00 0.  1.
          3   -1    0    0  501    0  0.00000000000E+00 -0.00000000000E+00 -0.75733431805E+03  0.75733431805E+03  0.00000000000E+00 0. -1.
         23    2    1    2    0    0  0.38306991443E+02  0.13042830883E+02 -0.24979939001E+03  0.26804089857E+03  0.88366549251E+02 0.  0.
          5    1    1    2  502    0 -0.71515227923E+02 -0.19549135432E+02 -0.16978420943E+03  0.18531256486E+03  0.41800000000E+01 0.  1.
         -5    1    1    2    0  502  0.33208236480E+02  0.65063045486E+01 -0.31995996289E+03  0.32177161034E+03  0.41800000000E+01 0.  1.
        -11    1    3    3    0    0  0.56522215970E+02  0.35901188440E+02 -0.15518983387E+03  0.16901935027E+03  0.00000000000E+00 0.  1.
         11    1    3    3    0    0 -0.18215224526E+02 -0.22858357557E+02 -0.94609556134E+02  0.99021548294E+02  0.00000000000E+00 0. -1.
</event>
<event>
 7    1  0.5831876E-006  0.1191836E+03  0.7561462E-02  0.1244450E+00
         -1   -1    0    0    0  501 -0.00000000000E+00  0.00000000000E+00  0.61949761761E+02  0.61949761761E+02  0.00000000000E+00 0.  1.
          1   -1    0    0  501    0  0.00000000000E+00 -0.00000000000E+00 -0.37907894824E+03  0.37907894824E+03  0.00000000000E+00 0. -1.
         23    2    1    2    0    0  0.86652903469E+02 -0.55486195914E+02 -0.17090549862E+03  0.22281147058E+03  0.99241212948E+02 0.  0.
          5    1    1    2  502    0 -0.52849257286E+02  0.43622203663E+02 -0.16415814520E+03  0.17793625174E+03  0.41800000000E+01 0. -1.
         -5    1    1    2    0  502 -0.33803646183E+02  0.11863992251E+02  0.17934457349E+02  0.40280987672E+02  0.41800000000E+01 0. -1.
        -11    1    3    3    0    0  0.97231463317E+02 -0.66945348817E+02 -0.11512591282E+03  0.16489273177E+03  0.00000000000E+00 0. -1.
         11    1    3    3    0    0 -0.10578559848E+02  0.11459152903E+02 -0.55779585804E+02  0.57918738817E+02  0.00000000000E+00 0.  1.
</event>
<event>
 7    1  0.5831876E-006  0.1661318E+03  0.7561462E-02  0.1181943E+00
          1   -1    0    0  501    0  0.00000000000E+00  0.00000000000E+00  0.38403358292E+03  0.38403358292E+03  0.00000000000E+00 0. -1.
         -1   -1    0    0    0  501 -0.00000000000E+00 -0.00000000000E+00 -0.99407283335E+02  0.99407283335E+02  0.00000000000E+00 0.  1.
         23    2    1    2    0    0 -0.10489412117E+03  0.10145568203E+03  0.44789800375E+02  0.17609033239E+03  0.87781814004E+02 0.  0.
          5    1    1    2  502    0  0.22980543284E+02  0.84966602490E+01  0.12792328660E+03  0.13031553345E+03  0.41800000000E+01 0.  1.
         -5    1    1    2    0  502  0.81913577888E+02 -0.10995234228E+03  0.11191321261E+03  0.17703500041E+03  0.41800000000E+01 0.  1.
        -11    1    3    3    0    0 -0.85572476279E+02  0.21851204266E+02  0.20811868415E+02  0.90737300441E+02  0.00000000000E+00 0.  1.
         11    1    3    3    0    0 -0.19321644893E+02  0.79604477763E+02  0.23977931960E+02  0.85353031945E+02  0.00000000000E+00 0. -1.
</event>
<event>
 7    1  0.5831876E-006  0.2995795E+03  0.7561462E-02  0.1085451E+00
          1   -1    0    0  501    0  0.00000000000E+00  0.00000000000E+00  0.86767600960E+03  0.86767600960E+03  0.00000000000E+00 0. -1.
         -1   -1    0    0    0  501 -0.00000000000E+00 -0.00000000000E+00 -0.11525179169E+03  0.11525179169E+03  0.00000000000E+00 0.  1.
         23    2    1    2    0    0  0.26794229803E+03 -0.77225353922E+02  0.21234100347E+03  0.36236768857E+03  0.92004399927E+02 0.  0.
          5    1    1    2  502    0 -0.21222468054E+03  0.25369504950E+01  0.38110749160E+03  0.43624092392E+03  0.41800000000E+01 0.  1.
         -5    1    1    2    0  502 -0.55717617487E+02  0.74688403427E+02  0.15897572285E+03  0.18431918880E+03  0.41800000000E+01 0.  1.
        -11    1    3    3    0    0  0.16718653335E+03 -0.87907843575E+00  0.12357969776E+03  0.20790394756E+03  0.00000000000E+00 0.  1.
         11    1    3    3    0    0  0.10075576468E+03 -0.76346275486E+02  0.88761305704E+02  0.15446374101E+03  0.00000000000E+00 0. -1.
</event>
<event>
 7    1  0.5831876E-006  0.1084448E+03  0.7561462E-02  0.1263477E+00
          1   -1    0    0  501    0  0.00000000000E+00  0.00000000000E+00  0.75823293195E+03  0.75823293195E+03  0.00000000000E+00 0. -1.
         -1   -1    0    0    0  501 -0.00000000000E+00 -0.00000000000E+00 -0.19385466655E+02  0.19385466655E+02  0.00000000000E+00 0.  1.
         23    2    1    2    0    0  0.33252988422E+02 -0.34362948722E+02  0.25652716425E+03  0.27705395403E+03  0.93092072497E+02 0.  0.
          5    1    1    2  502    0 -0.21227017990E+02  0.73392050848E+02  0.18168770820E+03  0.19714176404E+03  0.41800000000E+01 0.  1.
         -5    1    1    2    0  502 -0.12025970431E+02 -0.39029102126E+02  0.30063259285E+03  0.30342268053E+03  0.41800000000E+01 0.  1.
        -11    1    3    3    0    0  0.31746264053E+02  0.24710232361E+02  0.14926617917E+03  0.15459240961E+03  0.00000000000E+00 0.  1.
         11    1    3    3    0    0  0.15067243683E+01 -0.59073181083E+02  0.10726098508E+03  0.12246154442E+03  0.00000000000E+00 0. -1.
</event>
<event>
 7    1  0.5831876E-006  0.7385125E+02  0.7561462E-02  0.1347466E+00
         -4   -1    0    0    0  501 -0.00000000000E+00  0.00000000000E+00  0.22522714410E+03  0.22522714410E+03  0.00000000000E+00 0. -1.
          4   -1    0    0  501    0  0.00000000000E+00 -0.00000000000E+00 -0.70074807491E+02  0.70074807491E+02  0.00000000000E+00 0.  1.
         23    2    1    2    0    0  0.16760859086E+02  0.16664861993E+02  0.11209080924E+03  0.16091515148E+03  0.11300748841E+03 0.  0.
          5    1    1    2  502    0 -0.48279150023E+02 -0.23331885723E+02 -0.24742463818E+02  0.59202323722E+02  0.41800000000E+01 0.  1.
         -5    1    1    2    0  502  0.31518290937E+02  0.66670237299E+01  0.67803991191E+02  0.75184476392E+02  0.41800000000E+01 0.  1.
        -11    1    3    3    0    0  0.36468418885E+02  0.13835851536E+01  0.12681020763E+03  0.13195714699E+03  0.00000000000E+00 0. -1.
         11    1    3    3    0    0 -0.19707559799E+02  0.15281276839E+02 -0.14719398387E+02  0.28958004488E+02  0.00000000000E+00 0.  1.
</event>
<event>
 6    1  0.5831876E-006  0.1554620E+03  0.7561462E-02  0.1193918E+00
          1   -1    0    0  501    0  0.00000000000E+00  0.00000000000E+00  0.92939431576E+03  0.92939431576E+03  0.00000000000E+00 0. -1.
         -1   -1    0    0    0  501 -0.00000000000E+00 -0.00000000000E+00 -0.30119739846E+02  0.30119739846E+02  0.00000000000E+00 0.  1.
          5    1    1    2  502    0  0.12445731796E+02 -0.97580104090E+02  0.37012434466E+03  0.38299644367E+03  0.41800000000E+01 0. -1.
         -5    1    1    2    0  502 -0.41954619757E+02  0.44628451803E+02  0.17838401229E+03  0.18865369615E+03  0.41800000000E+01 0.  1.
        -11    1    1    2    0    0 -0.32232866256E+02  0.78032722616E+02  0.27140335791E+03  0.28423202872E+03  0.00000000000E+00 0.  1.
         11    1    1    2    0    0  0.61741754218E+02 -0.25081070329E+02  0.79362861058E+02  0.10363188707E+03  0.00000000000E+00 0. -1.
</event>
<event>
 7    1  0.5831876E-006  0.1100676E+03  0.7561462E-02  0.1260445E+00
          2   -1    0    0  501    0  0.00000000000E+00  0.00000000000E+00  0.49520542775E+03  0.49520542775E+03  0.00000000000E+00 0. -1.
         -2   -1    0    0    0  501 -0.00000000000E+00 -0.00000000000E+00 -0.31996372672E+02  0.31996372672E+02  0.00000000000E+00 0.  1.
         23    2    1    2    0    0 -0.45114264110E+02  0.31887480452E+02  0.10734604127E+03  0.14603302482E+03  0.82160595943E+02 0.  0.
          5    1    1    2  502    0  0.19257328242E+02 -0.73079281164E+02  0.28664461164E+03  0.29646927633E+03  0.41800000000E+01 0. -1.
         -5    1    1    2    0  502  0.25856935867E+02  0.41191800712E+02  0.69218402176E+02  0.84699499279E+02  0.41800000000E+01 0.  1.
        -11    1    3    3    0    0 -0.36614098224E+02  0.57766263761E+02  0.92416035913E+02  0.11497067936E+03  0.00000000000E+00 0.  1.
         11    1    3    3    0    0 -0.85001658859E+01 -0.25878783310E+02  0.14930005356E+02  0.31062345462E+02  0.00000000000E+00 0. -1.
</event>
<event>
 7    1  0.5831876E-006  0.8898014E+02  0.7561462E-02  0.1305340E+00
          1   -1    0    0  501    0  0.00000000000E+00  0.00000000000E+00  0.50289577448E+03  0.50289577448E+03  0.00000000000E+00 0. -1.
         -1   -1    0    0    0  501 -0.00000000000E+00 -0.00000000000E+00 -0.32894913062E+02  0.32894913062E+02  0.00000000000E+00 0.  1.
         23    2    1    2    0    0  0.53308469219E+02  0.11264804823E+02  0.11512479125E+03  0.15649078548E+03  0.90922822545E+02 0.  0.
          5    1    1    2  502    0 -0.85261284218E+02  0.52155078028E+01  0.31035191066E+03  0.32191997291E+03  0.41800000000E+01 0. -1.
         -5    1    1    2    0  502  0.31952814999E+02 -0.16480312626E+02  0.44524159512E+02  0.57379929164E+02  0.41800000000E+01 0.  1.
        -11    1    3    3    0    0  0.29047953672E+02  0.13197300046E+02  0.12589633988E+03  0.12987625162E+03  0.00000000000E+00 0. -1.
         11    1    3    3    0    0  0.24260515547E+02 -0.19324952232E+01 -0.10771548625E+02  0.26614533852E+02  0.00000000000E+00 0.  1.
</event>
<event>
 7    1  0.5831876E-006  0.1102088E+03  0.7561462E-02  0.1260184E+00
         -4   -1    0    0    0  501 -0.00000000000E+00  0.00000000000E+00  0.10616883514E+03  0.10616883514E+03  0.00000000000E+00 0.  1.
          4   -1    0    0  501    0  0.00000000000E+00 -0.00000000000E+00 -0.35573282679E+03  0.35573282679E+03  0.00000000000E+00 0. -1.
         23    2    1    2    0    0  0.21580577551E+02 -0.65141651968E+02  0.57303196261E+02  0.12457296440E+03  0.86750279587E+02 0.  0.
          5    1    1    2  502    0 -0.82855242577E+01  0.93365783680E+02 -0.28204453631E+03  0.29724133686E+03  0.41800000000E+01 0. -1.
         -5    1    1    2    0  502 -0.13295053293E+02 -0.28224131712E+02 -0.24822651601E+02  0.40087360670E+02  0.41800000000E+01 0.  1.
        -11    1    3    3    0    0  0.45382719156E+02 -0.45363952553E+02  0.66378234158E+02  0.92323070568E+02  0.00000000000E+00 0.  1.
         11    1    3    3    0    0 -0.23802141605E+02 -0.19777699415E+02 -0.90750378971E+01  0.32249893829E+02  0.00000000000E+00 0. -1.
</event>
<event>
 7    1  0.6391892E-006  0.1053991E+03  0.7561462E-02  0.1269335E+00
          2   -1    0    0  501    0  0.00000000000E+00  0.00000000000E+00  0.71055137460E+03  0.71055137460E+03  0.00000000000E+00 0. -1.
         -2   -1    0    0    0  501 -0.00000000000E+00 -0.00000000000E+00 -0.19646705722E+02  0.19646705722E+02  0.00000000000E+00 0.  1.
         23    2    1    2    0    0 -0.24951881104E+02  0.44976196133E+02  0.22355738041E+03  0.24367309051E+03  0.82177966115E+02 0.  0.
          5    1    1    2  502    0  0.73681569471E+02 -0.11367458478E+02  0.29254467304E+03  0.30192391577E+03  0.41800000000E+01 0. -1.
         -5    1    1    2    0  502 -0.48729688367E+02 -0.33608737655E+02  0.17480261543E+03  0.18460107404E+03  0.41800000000E+01 0. -1.
        -11    1    3    3    0    0  0.55025907146E+01 -0.11428074938E+02  0.17681088889E+01  0.12806467522E+02  0.00000000000E+00 0.  1.
         11    1    3    3    0    0 -0.30454471818E+02  0.56404271071E+02  0.22178927152E+03  0.23086662299E+03  0.00000000000E+00 0. -1.
</event>
<event>
 7    1  0.5831876E-006  0.1147890E+03  0.7561462E-02  0.1251950E+00
         -1   -1    0    0    0  501 -0.00000000000E+00  0.00000000000E+00  0.27934012200E+02  0.27934012200E+02  0.00000000000E+00 0.  1.
          1   -1    0    0  501    0  0.00000000000E+00 -0.00000000000E+00 -0.70546863590E+03  0.70546863590E+03  0.00000000000E+00 0. -1.
         23    2    1    2    0    0 -0.53246167016E+02 -0.17198506352E+02 -0.12191990362E+03  0.16114699209E+03  0.89291361494E+02 0.  0.
          5    1    1    2  502    0 -0.31148238135E+02 -0.16170169269E+02 -0.27597342125E+03  0.27822740474E+03  0.41800000000E+01 0. -1.
         -5    1    1    2    0  502  0.84394405151E+02  0.33368675621E+02 -0.27964129884E+03  0.29402825128E+03  0.41800000000E+01 0. -1.
        -11    1    3    3    0    0 -0.48064042574E+02 -0.50481101021E+02 -0.66763391369E+02  0.96518620877E+02  0.00000000000E+00 0.  1.
         11    1    3    3    0    0 -0.51821244416E+01  0.33282594669E+02 -0.55156512249E+02  0.64628371209E+02  0.00000000000E+00 0. -1.
</event>
<event>
 7    1  0.5831876E-006  0.1593984E+03  0.7561462E-02  0.1189378E+00
          2   -1    0    0  501    0  0.00000000000E+00  0.00000000000E+00  0.40476257468E+03  0.40476257468E+03  0.00000000000E+00 0. -1.
         -2   -1    0    0    0  501 -0.00000000000E+00 -0.00000000000E+00 -0.87285110045E+02  0.87285110045E+02  0.00000000000E+00 0.  1.
         23    2    1    2    0    0  0.15446286126E+02 -0.34408863937E+02  0.24311470001E+02  0.10010941172E+03  0.89489044406E+02 0.  0.
          5    1    1    2  502    0  0.39822753126E+02  0.11623053022E+03  0.26016258420E+03  0.28774542645E+03  0.41800000000E+01 0. -1.
         -5    1    1    2    0  502 -0.55269039252E+02 -0.81821666285E+02  0.33003410431E+02  0.10419284656E+03  0.41800000000E+01 0.  1.
        -11    1    3    3    0    0 -0.36617041627E+01  0.29809672486E+02  0.56796940300E+01  0.30566052662E+02  0.00000000000E+00 0. -1.
         11    1    3    3    0    0  0.19107990289E+02 -0.64218536423E+02  0.18631775971E+02  0.69543359057E+02  0.00000000000E+00 0.  1.
</event>
<event>
 7    1  0.5831876E-006  0.1692150E+03  0.7561462E-02  0.1178669E+00
          2   -1    0    0  501    0  0.00000000000E+00  0.00000000000E+00  0.20785575804E+04  0.20785575804E+04  0.00000000000E+00 0. -1.
         -2   -1    0    0    0  501 -0.00000000000E+00 -0.00000000000E+00 -0.21137054771E+02  0.21137054771E+02  0.00000000000E+00 0.  1.
         23    2    1    2    0    0 -0.13494872433E+03  0.40212957554E+02  0.42816849577E+03  0.45959143646E+03  0.89820863597E+02 0.  0.
          5    1    1    2  502    0  0.11400604161E+03  0.22007165204E+02  0.82128166152E+03  0.82945930147E+03  0.41800000000E+01 0.  1.
         -5    1    1    2    0  502  0.20942682718E+02 -0.62220122758E+02  0.80797036829E+03  0.81064389720E+03  0.41800000000E+01 0.  1.
        -11    1    3    3    0    0 -0.64589691133E+02  0.54683515166E+02  0.30962798303E+03  0.32098536245E+03  0.00000000000E+00 0. -1.
         11    1    3    3    0    0 -0.70359033196E+02 -0.14470557613E+02  0.11854051274E+03  0.13860607400E+03  0.00000000000E+00 0.  1.
</event>
<event>
 7    1  0.5831876E-006  0.1181020E+03  0.7561462E-02  0.1246261E+00
          2   -1    0    0  501    0  0.00000000000E+00  0.00000000000E+00  0.53482874553E+03  0.53482874553E+03  0.00000000000E+00 0. -1.
         -2   -1    0    0    0  501 -0.00000000000E+00 -0.00000000000E+00 -0.37624488774E+02  0.37624488774E+02  0.00000000000E+00 0.  1.
         23    2    1    2    0    0 -0.80724185155E+02  0.19648638257E+02  0.15252666866E+03  0.19648500174E+03  0.91866795973E+02 0.  0.
          5    1    1    2  502    0  0.91145421300E+02 -0.56199032986E+02  0.29068235522E+03  0.30980562159E+03  0.41800000000E+01 0. -1.
         -5    1    1    2    0  502 -0.10421236144E+02  0.36550394729E+02  0.53995232884E+02  0.66162610981E+02  0.41800000000E+01 0. -1.
        -11    1    3    3    0    0 -0.18964846698E+02 -0.10933960473E+02 -0.67746649355E+01  0.22915343918E+02  0.00000000000E+00 0.  1.
         11    1    3    3    0    0 -0.61759338458E+02  0.30582598730E+02  0.15930133359E+03  0.17356965782E+03  0.00000000000E+00 0. -1.
</event>
<event>
 7    1  0.5831876E-006  0.1390373E+03  0.7561462E-02  0.1214630E+00
          1   -1    0    0  501    0  0.00000000000E+00  0.00000000000E+00  0.71907136499E+03  0.71907136499E+03  0.00000000000E+00 0. -1.
         -1   -1    0    0    0  501 -0.00000000000E+00 -0.00000000000E+00 -0.39842984178E+02  0.39842984178E+02  0.00000000000E+00 0.  1.
         23    2    1    2    0    0 -0.51952407886E+02  0.10346621070E+03  0.19309888631E+03  0.24376970059E+03  0.93446121330E+02 0.  0.
          5    1    1    2  502    0 -0.34348149983E+02 -0.23174383077E+02  0.60309230679E+02  0.73290675692E+02  0.41800000000E+01 0. -1.
         -5    1    1    2    0  502  0.86300557870E+02 -0.80291827618E+02  0.42582026382E+03  0.44185397288E+03  0.41800000000E+01 0. -1.
        -11    1    3    3    0    0 -0.40760334110E+02  0.53402700556E+02  0.31453284762E+02  0.74179258460E+02  0.00000000000E+00 0.  1.
         11    1    3    3    0    0 -0.11192073777E+02  0.50063510140E+02  0.16164560154E+03  0.16959044213E+03  0.00000000000E+00 0. -1.
</event>
<event>
 7    1  0.5831876E-006  0.1182402E+03  0.7561462E-02  0.1246029E+00
         -1   -1    0    0    0  501 -0.00000000000E+00  0.00000000000E+00  0.16039502250E+03  0.16039502250E+03  0.00000000000E+00 0. -1.
          1   -1    0    0  501    0  0.00000000000E+00 -0.00000000000E+00 -0.11300310315E+03  0.11300310315E+03  0.00000000000E+00 0.  1.
         23    2    1    2    0    0 -0.76682068714E+02 -0.16070178216E+02  0.26495437429E+02  0.12432340038E+03  0.92821922993E+02 0.  0.
          5    1    1    2  502    0 -0.21298157386E+01  0.57925637634E+02  0.11556967761E+02  0.59253282730E+02  0.41800000000E+01 0. -1.
         -5    1    1    2    0  502  0.78811884453E+02 -0.41855459418E+02  0.93395141601E+01  0.89821442533E+02  0.41800000000E+01 0. -1.
        -11    1    3    3    0    0 -0.34961244014E+02 -0.28923564546E+02 -0.28897546483E+02  0.53795254083E+02  0.00000000000E+00 0.  1.
         11    1    3    3    0    0 -0.41720824700E+02  0.12853386330E+02  0.55392983913E+02  0.70528146300E+02  0.00000000000E+00 0. -1.
</event>
<event>
 7    1  0.5831876E-006  0.1353563E+03  0.7561462E-02  0.1219718E+00
         -3   -1    0    0    0  501 -0.00000000000E+00  0.00000000000E+00  0.82365759055E+02  0.82365759055E+02  0.00000000000E+00 0.  1.
          3   -1    0    0  501    0  0.00000000000E+00 -0.00000000000E+00 -0.32248060685E+03  0.32248060685E+03  0.00000000000E+00 0. -1.
         23    2    1    2    0    0 -0.39516033895E+02 -0.10028398237E+03 -0.40928485790E+02  0.14611620896E+03  0.89757515111E+02 0.  0.
          5    1    1    2  502    0  0.50159286763E+02  0.11115035361E+03 -0.20763772588E+03  0.24083449247E+03  0.41800000000E+01 0. -1.
         -5    1    1    2    0  502 -0.10643252868E+02 -0.10866371245E+02  0.84513638694E+01  0.17895664472E+02  0.41800000000E+01 0. -1.
        -11    1    3    3    0    0 -0.53061774720E+02 -0.29212350235E+02  0.44123386763E+01  0.60732051466E+02  0.00000000000E+00 0. -1.
         11    1    3    3    0    0  0.13545740825E+02 -0.71071632133E+02 -0.45340824466E+02  0.85384157499E+02  0.00000000000E+00 0.  1.
</event>
<event>
 7    1  0.5831876E-006  0.1162136E+03  0.7561462E-02  0.1249477E+00
         -2   -1    0    0    0  501 -0.00000000000E+00  0.00000000000E+00  0.68322865628E+02  0.68322865628E+02  0.00000000000E+00 0.  1.
          2   -1    0    0  501    0  0.00000000000E+00 -0.00000000000E+00 -0.46641219218E+03  0.46641219218E+03  0.00000000000E+00 0. -1.
         23    2    1    2    0    0 -0.55234642067E+02  0.63696661580E+02 -0.17221180550E+02  0.12508220478E+03  0.90779174443E+02 0.  0.
          5    1    1    2  502    0 -0.15965553599E+02 -0.23226503917E+02 -0.10581247875E+02  0.30394153920E+02  0.41800000000E+01 0.  1.
         -5    1    1    2    0  502  0.71200195666E+02 -0.40470157664E+02 -0.37028689813E+03  0.37925869911E+03  0.41800000000E+01 0.  1.
        -11    1    3    3    0    0 -0.63490904751E+02  0.61435551417E+01  0.20760289248E+01  0.63821220233E+02  0.00000000000E+00 0.  1.
         11    1    3    3    0    0  0.82562626842E+01  0.57553106439E+02 -0.19297209474E+02  0.61260984548E+02  0.00000000000E+00 0. -1.
</event>
<event>
 7    1  0.5831876E-006  0.8736352E+02  0.7561462E-02  0.1309365E+00
         -3   -1    0    0    0  501 -0.00000000000E+00  0.00000000000E+00  0.92262033685E+02  0.92262033685E+02  0.00000000000E+00 0.  1.
          3   -1    0    0  501    0  0.00000000000E+00 -0.00000000000E+00 -0.21362725445E+03  0.21362725445E+03  0.00000000000E+00 0. -1.
         23    2    1    2    0    0  0.52294598736E+02 -0.12034076406E+02  0.22826426492E+02  0.10760086255E+03  0.90428733395E+02 0.  0.
          5    1    1    2  502    0 -0.33775044139E+02 -0.38073851826E+02 -0.76857062987E+01  0.51642175407E+02  0.41800000000E+01 0.  1.
         -5    1    1    2    0  502 -0.18519554597E+02  0.50107928232E+02 -0.13650594096E+03  0.14664625018E+03  0.41800000000E+01 0.  1.
        -11    1    3    3    0    0  0.49016972965E+02 -0.26169599955E+02  0.51311259707E+02  0.75633041544E+02  0.00000000000E+00 0.  1.
         11    1    3    3    0    0  0.32776257706E+01  0.14135523549E+02 -0.28484833214E+02  0.31967821007E+02  0.00000000000E+00 0. -1.
</event>
<event>
 7    1  0.5831876E-006  0.8019529E+02  0.7561462E-02  0.1328498E+00
         -2   -1    0    0    0  501 -0.00000000000E+00  0.00000000000E+00  0.21517706055E+02  0.21517706055E+02  0.00000000000E+00 0.  1.
          2   -1    0    0  501    0  0.00000000000E+00 -0.00000000000E+00 -0.60131644933E+03  0.60131644933E+03  0.00000000000E+00 0. -1.
         23    2    1    2    0    0 -0.15596294132E+02  0.33833319906E+02 -0.11086214573E+03  0.13607230036E+03  0.69550827765E+02 0.  0.
          5    1    1    2  502    0 -0.34774878572E+02 -0.52591622751E+02 -0.35663715313E+03  0.36219152717E+03  0.41800000000E+01 0. -1.
         -5    1    1    2    0  502  0.50371172704E+02  0.18758302844E+02 -0.11229944442E+03  0.12457032786E+03  0.41800000000E+01 0. -1.
        -11    1    3    3    0    0 -0.16463618718E+02  0.96335654376E+01  0.33103161167E+01  0.19360126992E+02  0.00000000000E+00 0.  1.
         11    1    3    3    0    0  0.86732458674E+00  0.24199754469E+02 -0.11417246184E+03  0.11671217337E+03  0.00000000000E+00 0. -1.
</event>
<event>
 7    1  0.5831876E-006  0.1116185E+03  0.7561462E-02  0.1257602E+00
         -3   -1    0    0    0  501 -0.00000000000E+00  0.00000000000E+00  0.11383080096E+03  0.11383080096E+03  0.00000000000E+00 0.  1.
          3   -1    0    0  501    0  0.00000000000E+00 -0.00000000000E+00 -0.20968233163E+03  0.20968233163E+03  0.00000000000E+00 0. -1.
         23    2    1    2    0    0  0.44587862028E+02 -0.60916739985E+01  0.59820575570E+02  0.11880339721E+03  0.92252696412E+02 0.  0.
          5    1    1    2  502    0 -0.58511453166E+02  0.55406438074E+02 -0.10603590932E+03  0.13324620069E+03  0.41800000000E+01 0.  1.
         -5    1    1    2    0  502  0.13923591138E+02 -0.49314764076E+02 -0.49636196921E+02  0.71463534692E+02  0.41800000000E+01 0.  1.
        -11    1    3    3    0    0  0.58017142498E+02  0.20345544573E+02  0.12161130880E+02  0.62672347267E+02  0.00000000000E+00 0. -1.
         11    1    3    3    0    0 -0.13429280470E+02 -0.26437218572E+02  0.47659444691E+02  0.56131049946E+02  0.00000000000E+00 0.  1.
</event>
<event>
 7    1  0.5831876E-006  0.1503251E+03  0.7561462E-02  0.1200074E+00
         -4   -1    0    0    0  501 -0.00000000000E+00  0.00000000000E+00  0.28143388744E+03  0.28143388744E+03  0.00000000000E+00 0.  1.
          4   -1    0    0  501    0  0.00000000000E+00 -0.00000000000E+00 -0.12781882200E+03  0.12781882200E+03  0.00000000000E+00 0. -1.
         23    2    1    2    0    0 -0.17873454867E+02  0.11075284395E+03  0.18795342822E+03  0.23772867171E+03  0.92751158147E+02 0.  0.
          5    1    1    2  502    0 -0.17723095010E+02  0.20207012433E+02 -0.22376514867E+02  0.35222326241E+02  0.41800000000E+01 0. -1.
         -5    1    1    2    0  502  0.35596549877E+02 -0.13095985639E+03 -0.11961847916E+02  0.13630171148E+03  0.41800000000E+01 0. -1.
        -11    1    3    3    0    0 -0.43381907261E+02  0.29376453190E+02  0.36291849426E+02  0.63734325245E+02  0.00000000000E+00 0. -1.
         11    1    3    3    0    0  0.25508452394E+02  0.81376390763E+02  0.15166157880E+03  0.17399434646E+03  0.00000000000E+00 0.  1.
</event>
<event>
 7    1  0.5831876E-006  0.1322815E+03  0.7561462E-02  0.1224109E+00
          2   -1    0    0  501    0  0.00000000000E+00  0.00000000000E+00  0.13913687944E+03  0.13913687944E+03  0.00000000000E+00 0. -1.
         -2   -1    0    0    0  501 -0.00000000000E+00 -0.00000000000E+00 -0.18223819499E+03  0.18223819499E+03  0.00000000000E+00 0.  1.
         23    2    1    2    0    0  0.98436442535E+02  0.10585267325E+02 -0.80453865914E+02  0.15752985359E+03  0.92417796605E+02 0.  0.
          5    1    1    2  502    0 -0.34087178210E+02 -0.60677716642E+02  0.43133202132E+02  0.81985770360E+02  0.41800000000E+01 0.  1.
         -5    1    1    2    0  502 -0.64349264325E+02  0.50092449317E+02 -0.57806517683E+01  0.81859450478E+02  0.41800000000E+01 0.  1.
        -11    1    3    3    0    0  0.99296592534E+02  0.22027975073E+02 -0.30369525281E+02  0.10614778867E+03  0.00000000000E+00 0. -1.
         11    1    3    3    0    0 -0.86014999934E+00 -0.11442707748E+02 -0.50084340634E+02  0.51382064919E+02  0.00000000000E+00 0.  1.
</event>
<event>
 7    1  0.5831876E-006  0.1027890E+03  0.7561462E-02  0.1274538E+00
          2   -1    0    0  501    0  0.00000000000E+00  0.00000000000E+00  0.32648823916E+03  0.32648823916E+03  0.00000000000E+00 0. -1.
         -2   -1    0    0    0  501 -0.00000000000E+00 -0.00000000000E+00 -0.42432096557E+02  0.42432096557E+02  0.00000000000E+00 0.  1.
         23    2    1    2    0    0 -0.38748490871E+02 -0.11159135624E+02  0.99936245044E+02  0.14270672581E+03  0.93552042554E+02 0.  0.
          5    1    1    2  502    0  0.77902332824E+02  0.24921534595E+02  0.81955789452E+02  0.11586233284E+03  0.41800000000E+01 0.  1.
         -5    1    1    2    0  502 -0.39153841953E+02 -0.13762398971E+02  0.10216410811E+03  0.11035127707E+03  0.41800000000E+01 0.  1.
        -11    1    3    3    0    0 -0.47568372894E+02  0.18489095923E+02  0.16365336604E+02  0.53594971872E+02  0.00000000000E+00 0.  1.
         11    1    3    3    0    0  0.88198820233E+01 -0.29648231547E+02  0.83570908441E+02  0.89111753941E+02  0.00000000000E+00 0. -1.
</event>
<event>
 7    1  0.5831876E-006  0.1113988E+03  0.7561462E-02  0.1258001E+00
          2   -1    0    0  501    0  0.00000000000E+00  0.00000000000E+00  0.29639971349E+04  0.29639971349E+04  0.00000000000E+00 0. -1.
         -2   -1    0    0    0  501 -0.00000000000E+00 -0.00000000000E+00 -0.67347193286E+01  0.67347193286E+01  0.00000000000E+00 0.  1.
         23    2    1    2    0    0 -0.17699903006E+02 -0.29628797140E+02  0.44383922238E+03  0.45396148747E+03  0.88862954039E+02 0.  0.
          5    1    1    2  502    0 -0.38786090390E+02 -0.28714145361E+02  0.92903920819E+03  0.93030112636E+03  0.41800000000E+01 0. -1.
         -5    1    1    2    0  502  0.56485993396E+02  0.58342942501E+02  0.15843839850E+04  0.15864692403E+04  0.41800000000E+01 0. -1.
        -11    1    3    3    0    0 -0.47771756413E+02  0.39903569019E+01  0.17897131362E+03  0.18528031400E+03  0.00000000000E+00 0.  1.
         11    1    3    3    0    0  0.30071853407E+02 -0.33619154042E+02  0.26486790876E+03  0.26868117347E+03  0.00000000000E+00 0. -1.
</event>
<event>
 7    1  0.1388219E-005  0.1907807E+03  0.7561462E-02  0.1157759E+00
          1   -1    0    0  501    0  0.00000000000E+00  0.00000000000E+00  0.11111839823E+04  0.11111839823E+04  0.00000000000E+00 0. -1.
         -1   -1    0    0    0  501 -0.00000000000E+00 -0.00000000000E+00 -0.41544578117E+02  0.41544578117E+02  0.00000000000E+00 0.  1.
         23    2    1    2    0    0  0.10520999213E+03 -0.13977620685E+03  0.35441852379E+03  0.40587184250E+03  0.92265551992E+02 0.  0.
          5    1    1    2  502    0  0.20053859008E+02  0.14428663009E+02  0.30037358037E+02  0.39115966755E+02  0.41800000000E+01 0. -1.
         -5    1    1    2    0  502 -0.12526385114E+03  0.12534754384E+03  0.68518352237E+03  0.70774075118E+03  0.41800000000E+01 0. -1.
        -11    1    3    3    0    0  0.22071778950E+02 -0.60378072471E+02  0.53142370779E+02  0.83407353593E+02  0.00000000000E+00 0.  1.
         11    1    3    3    0    0  0.83138213180E+02 -0.79398134375E+02  0.30127615301E+03  0.32246448891E+03  0.00000000000E+00 0. -1.
</event>
<event>
 7    1  0.5831876E-006  0.8030135E+02  0.7561462E-02  0.1328198E+00
          1   -1    0    0  501    0  0.00000000000E+00  0.00000000000E+00  0.38892309813E+03  0.38892309813E+03  0.00000000000E+00 0. -1.
         -1   -1    0    0    0  501 -0.00000000000E+00 -0.00000000000E+00 -0.57165417263E+02  0.57165417263E+02  0.00000000000E+00 0.  1.
         23    2    1    2    0    0 -0.37295494593E+02 -0.12743966572E+02  0.24441544646E+02  0.11195631222E+03  0.10189928429E+03 0.  0.
          5    1    1    2  502    0  0.48958763702E+02 -0.31754970046E+02  0.64996019328E+02  0.87448805563E+02  0.41800000000E+01 0. -1.
         -5    1    1    2    0  502 -0.11663269108E+02  0.44498936619E+02  0.24232011689E+03  0.24668339761E+03  0.41800000000E+01 0. -1.
        -11    1    3    3    0    0 -0.19011518203E+02 -0.26789804090E+02  0.60682088157E+02  0.69003240871E+02  0.00000000000E+00 0. -1.
         11    1    3    3    0    0 -0.18283976390E+02  0.14045837518E+02 -0.36240543511E+02  0.42953071347E+02  0.00000000000E+00 0.  1.
</event>
<event>
 7    1  0.5831876E-006  0.1092226E+03  0.7561462E-02  0.1262016E+00
         -3   -1    0    0    0  501 -0.00000000000E+00  0.00000000000E+00  0.12901574330E+03  0.12901574330E+03  0.00000000000E+00 0.  1.
          3   -1    0    0  501    0  0.00000000000E+00 -0.00000000000E+00 -0.16308292752E+03  0.16308292752E+03  0.00000000000E+00 0. -1.
         23    2    1    2    0    0  0.61339029808E+02 -0.35513428725E+02  0.49131927121E+02  0.12598627138E+03  0.91841788511E+02 0.  0.
          5    1    1    2  502    0 -0.14424364262E+02 -0.36569289012E+02 -0.68026003780E+02  0.78678998300E+02  0.41800000000E+01 0.  1.
         -5    1    1    2    0  502 -0.46914665546E+02  0.72082717737E+02 -0.15173107561E+02  0.87433401128E+02  0.41800000000E+01 0.  1.
        -11    1    3    3    0    0  0.61931156410E+02 -0.48329779071E+01  0.66275084515E+02  0.90836185726E+02  0.00000000000E+00 0.  1.
         11    1    3    3    0    0 -0.59212660145E+00 -0.30680450818E+02 -0.17143157394E+02  0.35150085658E+02  0.00000000000E+00 0. -1.
</event>
<event>
 7    1  0.5831876E-006  0.1010957E+03  0.7561462E-02  0.1278009E+00
         -1   -1    0    0    0  501 -0.00000000000E+00  0.00000000000E+00  0.53138724172E+02  0.53138724172E+02  0.00000000000E+00 0.  1.
          1   -1    0    0  501    0  0.00000000000E+00 -0.00000000000E+00 -0.41859542537E+03  0.41859542537E+03  0.00000000000E+00 0. -1.
         23    2    1    2    0    0  0.10627584911E+02  0.19322577194E+02 -0.10326530754E+02  0.94571670499E+02  0.91383018516E+02 0.  0.
          5    1    1    2  502    0 -0.32708308081E+02 -0.57453398949E+02 -0.11271368019E+03  0.13073856573E+03  0.41800000000E+01 0. -1.
         -5    1    1    2    0  502  0.22080723170E+02  0.38130821755E+02 -0.24241649026E+03  0.24642391331E+03  0.41800000000E+01 0. -1.
        -11    1    3    3    0    0 -0.33339297688E+02 -0.14361099023E+02  0.60793673636E+01  0.36806366882E+02  0.00000000000E+00 0.  1.
         11    1    3    3    0    0  0.43966882600E+02  0.33683676216E+02 -0.16405898118E+02  0.57765303618E+02  0.00000000000E+00 0. -1.
</event>
<event>
 7    1  0.5831876E-006  0.1019914E+03  0.7561462E-02  0.1276163E+00
          2   -1    0    0  501    0  0.00000000000E+00  0.00000000000E+00  0.11978243674E+04  0.11978243674E+04  0.00000000000E+00 0. -1.
         -2   -1    0    0    0  501 -0.00000000000E+00 -0.00000000000E+00 -0.14659511003E+02  0.14659511003E+02  0.00000000000E+00 0.  1.
         23    2    1    2    0    0 -0.47882968548E+02  0.17440229271E+02  0.24815842002E+03  0.26777164826E+03  0.86730121153E+02 0.  0.
          5    1    1    2  502    0  0.72935331378E+02  0.13556184081E+02  0.32475817618E+03  0.33314963318E+03  0.41800000000E+01 0.  1.
         -5    1    1    2    0  502 -0.25052362830E+02 -0.30996413353E+02  0.61024826022E+03  0.61156259699E+03  0.41800000000E+01 0.  1.
        -11    1    3    3    0    0  0.14519623423E+02 -0.13614803907E+02  0.16500012814E+02  0.25854066849E+02  0.00000000000E+00 0.  1.
         11    1    3    3    0    0 -0.62402591971E+02  0.31055033179E+02  0.23165840720E+03  0.24191758141E+03  0.00000000000E+00 0. -1.
</event>
<event>
 7    1  0.5831876E-006  0.1044398E+03  0.7561462E-02  0.1271227E+00
          1   -1    0    0  501    0  0.00000000000E+00  0.00000000000E+00  0.36365855889E+03  0.36365855889E+03  0.00000000000E+00 0. -1.
         -1   -1    0    0    0  501 -0.00000000000E+00 -0.00000000000E+00 -0.35842981229E+02  0.35842981229E+02  0.00000000000E+00 0.  1.
         23    2    1    2    0    0  0.35236458999E+02 -0.43835969513E+00  0.12460206495E+03  0.15828498192E+03  0.91031097479E+02 0.  0.
          5    1    1    2  502    0 -0.49512837948E+02  0.46403682473E+02  0.62166374995E+02  0.92124662544E+02  0.41800000000E+01 0. -1.
         -5    1    1    2    0  502  0.14276378949E+02 -0.45965322778E+02  0.14104713771E+03  0.14909189566E+03  0.41800000000E+01 0. -1.
        -11    1    3    3    0    0 -0.17290195696E+02  0.27955154181E+02  0.70174972951E+02  0.77491730792E+02  0.00000000000E+00 0. -1.
         11    1    3    3    0    0  0.52526654695E+02 -0.28393513876E+02  0.54427092003E+02  0.80793251127E+02  0.00000000000E+00 0.  1.
</event>
<event>
 7    1  0.5831876E-006  0.1008939E+03  0.7561462E-02  0.1278427E+00
         -3   -1    0    0    0  501 -0.00000000000E+00  0.00000000000E+00  0.33171151026E+03  0.33171151026E+03  0.00000000000E+00 0.  1.
          3   -1    0    0  501    0  0.00000000000E+00 -0.00000000000E+00 -0.56742390737E+02  0.56742390737E+02  0.00000000000E+00 0. -1.
         23    2    1    2    0    0  0.51390275349E+02  0.42871683309E+02  0.19609462804E+03  0.22613537379E+03  0.90582352071E+02 0.  0.
          5    1    1    2  502    0  0.11117662514E+02 -0.31973128712E+02 -0.23769824277E+02  0.41573553199E+02  0.41800000000E+01 0. -1.
         -5    1    1    2    0  502 -0.62507937863E+02 -0.10898554597E+02  0.10264431576E+03  0.12074497400E+03  0.41800000000E+01 0. -1.
        -11    1    3    3    0    0 -0.13301510373E+02  0.36782461306E+02  0.11925324227E+03  0.12550384628E+03  0.00000000000E+00 0.  1.
         11    1    3    3    0    0  0.64691785721E+02  0.60892220032E+01  0.76841385761E+02  0.10063152752E+03  0.00000000000E+00 0. -1.
</event>
<event>
 7    1  0.5831876E-006  0.1336745E+03  0.7561462E-02  0.1222103E+00
          2   -1    0    0  501    0  0.00000000000E+00  0.00000000000E+00  0.78882782820E+03  0.78882782820E+03  0.00000000000E+00 0. -1.
         -2   -1    0    0    0  501 -0.00000000000E+00 -0.00000000000E+00 -0.28872183841E+02  0.28872183841E+02  0.00000000000E+00 0.  1.
         23    2    1    2    0    0 -0.97660230217E+02 -0.16715687074E+02  0.25863560541E+03  0.29159532530E+03  0.91205935079E+02 0.  0.
          5    1    1    2  502    0 -0.33400713186E+01  0.44129055434E+02  0.24855647106E+03  0.25250014122E+03  0.41800000000E+01 0.  1.
         -5    1    1    2    0  502  0.10100030154E+03 -0.27413368360E+02  0.25276356788E+03  0.27360454551E+03  0.41800000000E+01 0.  1.
        -11    1    3    3    0    0 -0.34235237604E+02 -0.38104065307E+02  0.46613994751E+02  0.69259192844E+02  0.00000000000E+00 0.  1.
         11    1    3    3    0    0 -0.63424992613E+02  0.21388378234E+02  0.21202161066E+03  0.22233613246E+03  0.00000000000E+00 0. -1.
</event>
<event>
 7    1  0.5831876E-006  0.1117162E+03  0.7561462E-02  0.1257424E+00
         -2   -1    0    0    0  501 -0.00000000000E+00  0.00000000000E+00  0.26709426408E+02  0.26709426408E+02  0.00000000000E+00 0.  1.
          2   -1    0    0  501    0  0.00000000000E+00 -0.00000000000E+00 -0.54170980010E+03  0.54170980010E+03  0.00000000000E+00 0. -1.
         23    2    1    2    0    0 -0.25187719102E+02  0.11247857784E+02 -0.12395702339E+03  0.15692999848E+03  0.92199486323E+02 0.  0.
          5    1    1    2  502    0  0.37863906520E+02  0.51005008508E+02 -0.21799785855E+03  0.22710289528E+03  0.41800000000E+01 0.  1.
         -5    1    1    2    0  502 -0.12676187418E+02 -0.62252866292E+02 -0.17304549175E+03  0.18438633275E+03  0.41800000000E+01 0.  1.
        -11    1    3    3    0    0 -0.11680904874E+02 -0.40744633205E+02 -0.58791691525E+02  0.72477801195E+02  0.00000000000E+00 0. -1.
         11    1    3    3    0    0 -0.13506814228E+02  0.51992490989E+02 -0.65165331863E+02  0.84452197287E+02  0.00000000000E+00 0.  1.
</event>
<event>
 7    1  0.5831876E-006  0.9680072E+02  0.7561462E-02  0.1287171E+00
         -2   -1    0    0    0  501 -0.00000000000E+00  0.00000000000E+00  0.32591639546E+02  0.32591639546E+02  0.00000000000E+00 0.  1.
          2   -1    0    0  501    0  0.00000000000E+00 -0.00000000000E+00 -0.40919522305E+03  0.40919522305E+03  0.00000000000E+00 0. -1.
         23    2    1    2    0    0 -0.12693608713E+02 -0.25554221699E+02 -0.10375700995E+03  0.14027969449E+03  0.89992942083E+02 0.  0.
          5    1    1    2  502    0  0.82330735028E+01 -0.37269860943E+02 -0.25163303356E+02  0.45907409748E+02  0.41800000000E+01 0. -1.
         -5    1    1    2    0  502  0.44605352101E+01  0.62824082642E+02 -0.24768327020E+03  0.25559975835E+03  0.41800000000E+01 0. -1.
        -11    1    3    3    0    0 -0.39786543528E+02 -0.43990066005E+02 -0.80948148873E+02  0.10035286622E+03  0.00000000000E+00 0. -1.
         11    1    3    3    0    0  0.27092934815E+02  0.18435844306E+02 -0.22808861073E+02  0.39926828269E+02  0.00000000000E+00 0.  1.
</event>
<event>
 7    1  0.5831876E-006  0.1666713E+03  0.7561462E-02  0.1181364E+00
         -1   -1    0    0    0  501 -0.00000000000E+00  0.00000000000E+00  0.80527311264E+03  0.80527311264E+03  0.00000000000E+00 0.  1.
          1   -1    0    0  501    0  0.00000000000E+00 -0.00000000000E+00 -0.42666319825E+02  0.42666319825E+02  0.00000000000E+00 0. -1.
         23    2    1    2    0    0  0.13153980498E+03  0.72635099843E+02  0.38413801850E+03  0.42195220423E+03  0.88899197795E+02 0.  0.
          5    1    1    2  502    0 -0.95408523317E+01 -0.56177212572E+02  0.20780170728E+03  0.21551317599E+03  0.41800000000E+01 0. -1.
         -5    1    1    2    0  502 -0.12199895265E+03 -0.16457887271E+02  0.17066706703E+03  0.21047405225E+03  0.41800000000E+01 0. -1.
        -11    1    3    3    0    0  0.87245797341E+02  0.32018135935E+02  0.32347547176E+03  0.33656109551E+03  0.00000000000E+00 0.  1.
         11    1    3    3    0    0  0.44294007642E+02  0.40616963908E+02  0.60662546743E+02  0.85391108714E+02  0.00000000000E+00 0. -1.
</event>
<event>
 7    1  0.5831876E-006  0.9847823E+02  0.7561462E-02  0.1283529E+00
         -2   -1    0    0    0  501 -0.00000000000E+00  0.00000000000E+00  0.75482809678E+02  0.75482809678E+02  0.00000000000E+00 0.  1.
          2   -1    0    0  501    0  0.00000000000E+00 -0.00000000000E+00 -0.21893785003E+03  0.21893785003E+03  0.00000000000E+00 0. -1.
         23    2    1    2    0    0  0.48308589100E+02  0.44474129073E+02 -0.40309914744E+02  0.11949548979E+03  0.91337916085E+02 0.  0.
          5    1    1    2  502    0 -0.83358738226E+02 -0.33974906112E+02 -0.33492803051E+02  0.96136432949E+02  0.41800000000E+01 0.  1.
         -5    1    1    2    0  502  0.35050149126E+02 -0.10499222961E+02 -0.69652322561E+02  0.78788736979E+02  0.41800000000E+01 0.  1.
        -11    1    3    3    0    0  0.15013723684E+02  0.30327695575E+02  0.26859246064E+02  0.43204167819E+02  0.00000000000E+00 0.  1.
         11    1    3    3    0    0  0.33294865415E+02  0.14146433498E+02 -0.67169160809E+02  0.76291321967E+02  0.00000000000E+00 0. -1.
</event>
<event>
 7    1  0.5831876E-006  0.1093463E+03  0.7561462E-02  0.1261785E+00
          1   -1    0    0  501    0  0.00000000000E+00  0.00000000000E+00  0.54550836720E+03  0.54550836720E+03  0.00000000000E+00 0. -1.
         -1   -1    0    0    0  501 -0.00000000000E+00 -0.00000000000E+00 -0.50918052586E+02  0.50918052586E+02  0.00000000000E+00 0.  1.
         23    2    1    2    0    0  0.50246745990E+02  0.85167164450E+02  0.84224256207E+02  0.15617495530E+03  0.86710495014E+02 0.  0.
          5    1    1    2  502    0 -0.11016426323E+02 -0.71884255048E+02  0.83764086558E+02  0.11100721765E+03  0.41800000000E+01 0.  1.
         -5    1    1    2    0  502 -0.39230319667E+02 -0.13282909402E+02  0.32660197185E+03  0.32924424685E+03  0.41800000000E+01 0.  1.
        -11    1    3    3    0    0  0.25276864628E+02  0.71323269246E+02  0.96011482807E+01  0.76276540756E+02  0.00000000000E+00 0.  1.
         11    1    3    3    0    0  0.24969881362E+02  0.13843895204E+02  0.74623107926E+02  0.79898414541E+02  0.00000000000E+00 0. -1.
</event>
<event>
 7    1  0.5831876E-006  0.1333890E+03  0.7561462E-02  0.1222512E+00
          1   -1    0    0  501    0  0.00000000000E+00  0.00000000000E+00  0.57128493682E+03  0.57128493682E+03  0.00000000000E+00 0. -1.
         -1   -1    0    0    0  501 -0.00000000000E+00 -0.00000000000E+00 -0.36646267542E+02  0.36646267542E+02  0.00000000000E+00 0.  1.
         23    2    1    2    0    0  0.10587835032E+02 -0.82569454257E+02  0.15299405276E+03  0.19777243666E+03  0.93685321666E+02 0.  0.
          5    1    1    2  502    0  0.42325235341E+02 -0.60987221179E+01  0.15895025854E+03  0.16465502436E+03  0.41800000000E+01 0.  1.
         -5    1    1    2    0  502 -0.52913070373E+02  0.88668176375E+02  0.22269435798E+03  0.24550374334E+03  0.41800000000E+01 0.  1.
        -11    1    3    3    0    0  0.49084695719E+02 -0.49668850033E+02  0.11469356104E+03  0.13427924248E+03  0.00000000000E+00 0.  1.
         11    1    3    3    0    0 -0.38496860687E+02 -0.32900604224E+02  0.38300491723E+02  0.63493194181E+02  0.00000000000E+00 0. -1.
</event>
<event>
 7    1  0.5831876E-006  0.9437507E+02  0.7561462E-02  0.1292590E+00
          2   -1    0    0  501    0  0.00000000000E+00  0.00000000000E+00  0.46154869182E+02  0.46154869182E+02  0.00000000000E+00 0. -1.
         -2   -1    0    0    0  501 -0.00000000000E+00 -0.00000000000E+00 -0.29969952353E+03  0.29969952353E+03  0.00000000000E+00 0.  1.
         23    2    1    2    0    0 -0.11866830769E+02  0.43686697926E+02 -0.11355668375E+03  0.15273889153E+03  0.91568003767E+02 0.  0.
          5    1    1    2  502    0 -0.14478898460E+02  0.38955674622E+02 -0.70290664916E+02  0.81764497554E+02  0.41800000000E+01 0.  1.
         -5    1    1    2    0  502  0.26345729229E+02 -0.82642372549E+02 -0.69697305682E+02  0.11135100363E+03  0.41800000000E+01 0.  1.
        -11    1    3    3    0    0 -0.23404678141E+02  0.11760772431E+02  0.73109654345E+01  0.27194575611E+02  0.00000000000E+00 0. -1.
         11    1    3    3    0    0  0.11537847372E+02  0.31925925495E+02 -0.12086764918E+03  0.12554431592E+03  0.00000000000E+00 0.  1.
</event>
<event>
 7    1  0.5831876E-006  0.1128400E+03  0.7561462E-02  0.1255399E+00
          1   -1    0    0  501    0  0.00000000000E+00  0.00000000000E+00  0.16995032464E+04  0.16995032464E+04  0.00000000000E+00 0. -1.
         -1   -1    0    0    0  501 -0.00000000000E+00 -0.00000000000E+00 -0.90971172743E+01  0.90971172743E+01  0.00000000000E+00 0.  1.
         23    2    1    2    0    0 -0.20931518324E+01  0.40559202882E+02  0.44158942517E+03  0.45287753316E+03  0.91909789437E+02 0.  0.
          5    1    1    2  502    0  0.20242341381E+01  0.42139872093E+02  0.25881812458E+03  0.26226734519E+03  0.41800000000E+01 0. -1.
         -5    1    1    2    0  502  0.68917694297E-01 -0.82699074975E+02  0.98999857934E+03  0.99345548529E+03  0.41800000000E+01 0. -1.
        -11    1    3    3    0    0 -0.36545493123E+02  0.52543437084E+02  0.27964398600E+03  0.28687478933E+03  0.00000000000E+00 0. -1.
         11    1    3    3    0    0  0.34452341291E+02 -0.11984234202E+02  0.16194543917E+03  0.16600274383E+03  0.00000000000E+00 0.  1.
</event>
<event>
 7    1  0.5831876E-006  0.1151399E+03  0.7561462E-02  0.1251337E+00
          2   -1    0    0  501    0  0.00000000000E+00  0.00000000000E+00  0.11319801314E+04  0.11319801314E+04  0.00000000000E+00 0. -1.
         -2   -1    0    0    0  501 -0.00000000000E+00 -0.00000000000E+00 -0.14204153584E+02  0.14204153584E+02  0.00000000000E+00 0.  1.
         23    2    1    2    0    0  0.55938433990E+01  0.42973790936E+02  0.33309168710E+03  0.34761727036E+03  0.89496686217E+02 0.  0.
          5    1    1    2  502    0  0.40750218537E+02 -0.68841415433E+02  0.62791663349E+03  0.63300591766E+03  0.41800000000E+01 0. -1.
         -5    1    1    2    0  502 -0.46344061936E+02  0.25867624498E+02  0.15676765722E+03  0.16556109695E+03  0.41800000000E+01 0.  1.
        -11    1    3    3    0    0 -0.17069593684E+02 -0.22158524702E+02  0.64309469985E+02  0.70129018069E+02  0.00000000000E+00 0. -1.
         11    1    3    3    0    0  0.22663437083E+02  0.65132315638E+02  0.26878221712E+03  0.27748825229E+03  0.00000000000E+00 0.  1.
</event>
<event>
 7    1  0.5831876E-006  0.1208405E+03  0.7561462E-02  0.1241717E+00
          1   -1    0    0  501    0  0.00000000000E+00  0.00000000000E+00  0.51368636245E+03  0.51368636245E+03  0.00000000000E+00 0. -1.
         -1   -1    0    0    0  501 -0.00000000000E+00 -0.00000000000E+00 -0.36532105964E+02  0.36532105964E+02  0.00000000000E+00 0.  1.
         23    2    1    2    0    0 -0.59329554631E+02 -0.40489728772E+02  0.17927856281E+03  0.21925400313E+03  0.10378873069E+03 0.  0.
          5    1    1    2  502    0  0.98146275481E+02  0.37291863867E+02  0.21646388874E+03  0.24061891453E+03  0.41800000000E+01 0.  1.
         -5    1    1    2    0  502 -0.38816720850E+02  0.31978649046E+01  0.81411804939E+02  0.90345550753E+02  0.41800000000E+01 0.  1.
        -11    1    3    3    0    0 -0.24873543042E+02 -0.54756153649E+02  0.33626159201E+02  0.68903179089E+02  0.00000000000E+00 0.  1.
         11    1    3    3    0    0 -0.34456011589E+02  0.14266424878E+02  0.14565240361E+03  0.15035082404E+03  0.00000000000E+00 0. -1.
</event>
<event>
 7    1  0.5831876E-006  0.8018490E+02  0.7561462E-02  0.1328528E+00
          2   -1    0    0  501    0  0.00000000000E+00  0.00000000000E+00  0.35708034354E+03  0.35708034354E+03  0.00000000000E+00 0. -1.
         -2   -1    0    0    0  501 -0.00000000000E+00 -0.00000000000E+00 -0.60239933988E+02  0.60239933988E+02  0.00000000000E+00 0.  1.
         23    2    1    2    0    0  0.34549782236E+02  0.11851712860E+01  0.13130275472E+02  0.10533949989E+03  0.98635257482E+02 0.  0.
          5    1    1    2  502    0  0.33442759584E+02  0.23763856593E+02  0.18463942107E+03  0.18918860236E+03  0.41800000000E+01 0. -1.
         -5    1    1    2    0  502 -0.67992541820E+02 -0.24949027879E+02  0.99070713011E+02  0.12279217529E+03  0.41800000000E+01 0. -1.
        -11    1    3    3    0    0  0.34345415056E+02  0.11537163082E+02  0.52970272492E+02  0.64176034742E+02  0.00000000000E+00 0. -1.
         11    1    3    3    0    0  0.20436718011E+00 -0.10351991796E+02 -0.39839997020E+02  0.41163465143E+02  0.00000000000E+00 0.  1.
</event>
<event>
 7    1  0.5831876E-006  0.1137996E+03  0.7561462E-02  0.1253691E+00
          2   -1    0    0  501    0  0.00000000000E+00  0.00000000000E+00  0.57107388085E+03  0.57107388085E+03  0.00000000000E+00 0. -1.
         -2   -1    0    0    0  501 -0.00000000000E+00 -0.00000000000E+00 -0.17394209551E+03  0.17394209551E+03  0.00000000000E+00 0.  1.
         23    2    1    2    0    0  0.40757313257E+02  0.34617685383E+02 -0.12573801691E+03  0.16791366887E+03  0.97598199631E+02 0.  0.
          5    1    1    2  502    0  0.31197742467E+02 -0.47144255751E+02  0.49590481167E+03  0.49913418498E+03  0.41800000000E+01 0. -1.
         -5    1    1    2    0  502 -0.71955055724E+02  0.12526570368E+02  0.26964990583E+02  0.77968122502E+02  0.41800000000E+01 0.  1.
        -11    1    3    3    0    0 -0.20260017409E+02  0.30479130222E+02 -0.11547203525E+02  0.38376862740E+02  0.00000000000E+00 0.  1.
         11    1    3    3    0    0  0.61017330666E+02  0.41385551610E+01 -0.11419081338E+03  0.12953680613E+03  0.00000000000E+00 0. -1.
</event>
<event>
 7    1  0.5831876E-006  0.2451868E+03  0.7561462E-02  0.1116385E+00
          2   -1    0    0  501    0  0.00000000000E+00  0.00000000000E+00  0.23173064821E+04  0.23173064821E+04  0.00000000000E+00 0. -1.
         -2   -1    0    0    0  501 -0.00000000000E+00 -0.00000000000E+00 -0.31775650717E+02  0.31775650717E+02  0.00000000000E+00 0.  1.
         23    2    1    2    0    0  0.16462238322E+03  0.17070758684E+03  0.79704871064E+03  0.83664377376E+03  0.91894220645E+02 0.  0.
          5    1    1    2  502    0 -0.13079452393E+03 -0.15158108841E+03  0.14159983077E+04  0.14300883587E+04  0.41800000000E+01 0.  1.
         -5    1    1    2    0  502 -0.33827859292E+02 -0.19126498430E+02  0.72483813055E+02  0.82350000373E+02  0.41800000000E+01 0.  1.
        -11    1    3    3    0    0  0.93707322020E+02  0.39099821749E+02  0.25838948377E+03  0.27762381667E+03  0.00000000000E+00 0.  1.
         11    1    3    3    0    0  0.70915061198E+02  0.13160776509E+03  0.53865922687E+03  0.55901995709E+03  0.00000000000E+00 0. -1.
</event>
<event>
 7    1  0.5831876E-006  0.7911935E+02  0.7561462E-02  0.1331569E+00
          1   -1    0    0  501    0  0.00000000000E+00  0.00000000000E+00  0.17166795216E+03  0.17166795216E+03  0.00000000000E+00 0. -1.
         -1   -1    0    0    0  501 -0.00000000000E+00 -0.00000000000E+00 -0.76047854894E+02  0.76047854894E+02  0.00000000000E+00 0.  1.
         23    2    1    2    0    0 -0.27758509773E+02 -0.33327185599E+01  0.17168052289E+02  0.97436412101E+02  0.91746773817E+02 0.  0.
          5    1    1    2  502    0  0.20462848382E+02 -0.35215537665E+02  0.98028374038E+02  0.10623510142E+03  0.41800000000E+01 0.  1.
         -5    1    1    2    0  502  0.72956613912E+01  0.38548256225E+02 -0.19576329063E+02  0.44044293532E+02  0.41800000000E+01 0.  1.
        -11    1    3    3    0    0  0.24970466518E+02 -0.26164104687E+01 -0.20679025789E+02  0.32526787568E+02  0.00000000000E+00 0.  1.
         11    1    3    3    0    0 -0.52728976291E+02 -0.71630809121E+00  0.37847078078E+02  0.64909624533E+02  0.00000000000E+00 0. -1.
</event>
<event>
 7    1  0.5831876E-006  0.7446621E+02  0.7561462E-02  0.1345532E+00
         -4   -1    0    0    0  501 -0.00000000000E+00  0.00000000000E+00  0.14329259475E+03  0.14329259475E+03  0.00000000000E+00 0.  1.
          4   -1    0    0  501    0  0.00000000000E+00 -0.00000000000E+00 -0.11949845057E+03  0.11949845057E+03  0.00000000000E+00 0. -1.
         23    2    1    2    0    0  0.16207763173E+02 -0.32805899413E+01  0.60430312358E+02  0.13140473756E+03  0.11550726619E+03 0.  0.
          5    1    1    2  502    0  0.33434865502E+00  0.49472091129E+02 -0.59163594499E+02  0.77236020766E+02  0.41800000000E+01 0.  1.
         -5    1    1    2    0  502 -0.16542111828E+02 -0.46191501187E+02  0.22527426319E+02  0.54150287001E+02  0.41800000000E+01 0.  1.
        -11    1    3    3    0    0 -0.97128334563E+01  0.15318308332E+02  0.87625884676E+02  0.89483436284E+02  0.00000000000E+00 0.  1.
         11    1    3    3    0    0  0.25920596630E+02 -0.18598898273E+02 -0.27195572318E+02  0.41921301272E+02  0.00000000000E+00 0. -1.
</event>
<event>
 6    1  0.7632575E-006  0.8629698E+02  0.7561462E-02  0.1312075E+00
         -1   -1    0    0    0  501 -0.00000000000E+00  0.00000000000E+00  0.12304612948E+02  0.12304612948E+02  0.00000000000E+00 0.  1.
          1   -1    0    0  501    0  0.00000000000E+00 -0.00000000000E+00 -0.11802613061E+04  0.11802613061E+04  0.00000000000E+00 0. -1.
          5    1    1    2  502    0 -0.32209393897E+02 -0.25170726560E+02 -0.65408937702E+03  0.65537881874E+03  0.41800000000E+01 0. -1.
         -5    1    1    2    0  502  0.63122616340E+02  0.58316852499E+02 -0.45001929121E+03  0.45817044301E+03  0.41800000000E+01 0.  1.
        -11    1    1    2    0    0 -0.22170901662E+02 -0.26019716724E+02 -0.39870843166E+02  0.52519126741E+02  0.00000000000E+00 0.  1.
         11    1    1    2    0    0 -0.87423207811E+01 -0.71264092144E+01 -0.23977181799E+02  0.26497530601E+02  0.00000000000E+00 0. -1.
</event>
<event>
 7    1  0.5831876E-006  0.1071531E+03  0.7561462E-02  0.1265935E+00
         -1   -1    0    0    0  501 -0.00000000000E+00  0.00000000000E+00  0.93453260803E+02  0.93453260803E+02  0.00000000000E+00 0.  1.
          1   -1    0    0  501    0  0.00000000000E+00 -0.00000000000E+00 -0.47636630015E+03  0.47636630015E+03  0.00000000000E+00 0. -1.
         23    2    1    2    0    0 -0.41846277393E+02 -0.20532898215E+02  0.53882107602E+02  0.11559404200E+03  0.91027414471E+02 0.  0.
          5    1    1    2  502    0  0.52108084272E+02 -0.32390755034E+02 -0.31530223431E+03  0.32124349770E+03  0.41800000000E+01 0. -1.
         -5    1    1    2    0  502 -0.10261806879E+02  0.52923653249E+02 -0.12149291265E+03  0.13298202125E+03  0.41800000000E+01 0.  1.
        -11    1    3    3    0    0 -0.93135883826E+00  0.32077188854E+02  0.39833521352E+01  0.32336984527E+02  0.00000000000E+00 0. -1.
         11    1    3    3    0    0 -0.40914918554E+02 -0.52610087069E+02  0.49898755467E+02  0.83257057472E+02  0.00000000000E+00 0.  1.
</event>
<event>
 7    1  0.5831876E-006  0.1240311E+03  0.7561462E-02  0.1236591E+00
         -2   -1    0    0    0  501 -0.00000000000E+00  0.00000000000E+00  0.40580528697E+02  0.40580528697E+02  0.00000000000E+00 0.  1.
          2   -1    0    0  501    0  0.00000000000E+00 -0.00000000000E+00 -0.46567227600E+03  0.46567227600E+03  0.00000000000E+00 0. -1.
         23    2    1    2    0    0 -0.49611567038E+02  0.96801842888E+01 -0.17412420169E+03  0.22131946561E+03  0.12691751138E+03 0.  0.
          5    1    1    2  502    0  0.64682164966E+02  0.40143323086E+02 -0.18959781245E+03  0.20435281192E+03  0.41800000000E+01 0.  1.
         -5    1    1    2    0  502 -0.15070597928E+02 -0.49823507375E+02 -0.61369733159E+02  0.80580527158E+02  0.41800000000E+01 0.  1.
        -11    1    3    3    0    0 -0.68971756760E+02  0.42846574042E+02 -0.60150290923E+02  0.10104944154E+03  0.00000000000E+00 0.  1.
         11    1    3    3    0    0  0.19360189722E+02 -0.33166389754E+02 -0.11397391076E+03  0.12027002407E+03  0.00000000000E+00 0. -1.
</event>
<event>
 7    1  0.5831876E-006  0.1065372E+03  0.7561462E-02  0.1267120E+00
          1   -1    0    0  501    0  0.00000000000E+00  0.00000000000E+00  0.54049149911E+02  0.54049149911E+02  0.00000000000E+00 0. -1.
         -1   -1    0    0    0  501 -0.00000000000E+00 -0.00000000000E+00 -0.29535334791E+03  0.29535334791E+03  0.00000000000E+00 0.  1.
         23    2    1    2    0    0 -0.16057443361E+02 -0.19409430000E+02 -0.19010474512E+03  0.21191025393E+03  0.90175241283E+02 0.  0.
          5    1    1    2  502    0  0.46568893398E+02  0.59092123599E+02 -0.42506259135E+02  0.86514711866E+02  0.41800000000E+01 0. -1.
         -5    1    1    2    0  502 -0.30511450037E+02 -0.39682693599E+02 -0.86931937451E+01  0.50977532032E+02  0.41800000000E+01 0. -1.
        -11    1    3    3    0    0  0.23920670208E+02 -0.36802354487E+02 -0.57604446297E+02  0.72421571318E+02  0.00000000000E+00 0.  1.
         11    1    3    3    0    0 -0.39978113569E+02  0.17392924487E+02 -0.13250029883E+03  0.13948868261E+03  0.00000000000E+00 0. -1.
</event>
<event>
 7    1  0.5831876E-006  0.1901898E+03  0.7561462E-02  0.1158290E+00
         -1   -1    0    0    0  501 -0.00000000000E+00  0.00000000000E+00  0.22522940285E+03  0.22522940285E+03  0.00000000000E+00 0.  1.
          1   -1    0    0  501    0  0.00000000000E+00 -0.00000000000E+00 -0.22457605612E+03  0.22457605612E+03  0.00000000000E+00 0. -1.
         23    2    1    2    0    0  0.10909660910E+03 -0.12544181030E+03  0.10693902865E+03  0.21617774768E+03  0.87516540451E+02 0.  0.
          5    1    1    2  502    0 -0.12177396131E+03  0.79350732409E+02 -0.11433252938E+03  0.18497252786E+03  0.41800000000E+01 0. -1.
         -5    1    1    2    0  502  0.12677352210E+02  0.46091077895E+02  0.80468474626E+01  0.48655183431E+02  0.41800000000E+01 0. -1.
        -11    1    3    3    0    0  0.69093116218E+02 -0.16644484731E+02  0.30582307078E+02  0.77370376029E+02  0.00000000000E+00 0. -1.
         11    1    3    3    0    0  0.40003492884E+02 -0.10879732557E+03  0.76356721576E+02  0.13880737165E+03  0.00000000000E+00 0.  1.
</event>
<event>
 7    1  0.5831876E-006  0.1477807E+03  0.7561462E-02  0.1203227E+00
         -1   -1    0    0    0  501 -0.00000000000E+00  0.00000000000E+00  0.60639108673E+02  0.60639108673E+02  0.00000000000E+00 0.  1.
          1   -1    0    0  501    0  0.00000000000E+00 -0.00000000000E+00 -0.44026618879E+03  0.44026618879E+03  0.00000000000E+00 0. -1.
         23    2    1    2    0    0 -0.58002431338E+02  0.10704288764E+03 -0.18769402960E+03  0.24146816622E+03  0.90859037613E+02 0.  0.
          5    1    1    2  502    0  0.74685323287E+02 -0.12654253445E+03 -0.14943831223E+03  0.20961915967E+03  0.41800000000E+01 0. -1.
         -5    1    1    2    0  502 -0.16682891949E+02  0.19499646809E+02 -0.42494738286E+02  0.49817971571E+02  0.41800000000E+01 0. -1.
        -11    1    3    3    0    0 -0.42823540830E+02  0.90446543057E+02 -0.71183855549E+02  0.12280706043E+03  0.00000000000E+00 0.  1.
         11    1    3    3    0    0 -0.15178890508E+02  0.16596344579E+02 -0.11651017405E+03  0.11866110579E+03  0.00000000000E+00 0. -1.
</event>
<event>
 7    1  0.5831876E-006  0.1269658E+03  0.7561462E-02  0.1232029E+00
          2   -1    0    0  501    0  0.00000000000E+00  0.00000000000E+00  0.69691793921E+03  0.69691793921E+03  0.00000000000E+00 0.  1.
         -2   -1    0    0    0  501 -0.00000000000E+00 -0.00000000000E+00 -0.31305373104E+02  0.31305373104E+02  0.00000000000E+00 0. -1.
         23    2    1    2    0    0  0.43087763361E+02  0.83978878563E+02  0.22795550841E+03  0.26335638519E+03  0.92107895476E+02 0.  0.
          5    1    1    2  502    0 -0.86906783981E+00  0.22362241929E+02  0.19757688286E+03  0.19888419290E+03  0.41800000000E+01 0. -1.
         -5    1    1    2    0  502 -0.42218695521E+02 -0.10634112049E+03  0.24008017484E+03  0.26598273423E+03  0.41800000000E+01 0. -1.
        -11    1    3    3    0    0  0.13288417447E+02 -0.10924183712E+02  0.30975333077E+01  0.17478974244E+02  0.00000000000E+00 0. -1.
         11    1    3    3    0    0  0.29799345914E+02  0.94903062274E+02  0.22485797510E+03  0.24587741094E+03  0.00000000000E+00 0.  1.
</event>
<event>
 7    1  0.5831876E-006  0.9357929E+02  0.7561462E-02  0.1294408E+00
          1   -1    0    0  501    0  0.00000000000E+00  0.00000000000E+00  0.66883652067E+02  0.66883652067E+02  0.00000000000E+00 0.  1.
         -1   -1    0    0    0  501 -0.00000000000E+00 -0.00000000000E+00 -0.20727604971E+03  0.20727604971E+03  0.00000000000E+00 0. -1.
         23    2    1    2    0    0  0.10064584182E+02 -0.42087374780E+02 -0.71750846259E+02  0.12505566035E+03  0.92833675331E+02 0.  0.
          5    1    1    2  502    0 -0.50077656591E+02  0.16608769306E+02  0.13082311340E+02  0.54518273794E+02  0.41800000000E+01 0. -1.
         -5    1    1    2    0  502  0.40013072409E+02  0.25478605474E+02 -0.81723862726E+02  0.94585767636E+02  0.41800000000E+01 0. -1.
        -11    1    3    3    0    0  0.23654611945E+02  0.14947416674E+02 -0.58643162966E+02  0.64976815051E+02  0.00000000000E+00 0. -1.
         11    1    3    3    0    0 -0.13590027764E+02 -0.57034791454E+02 -0.13107683292E+02  0.60078845296E+02  0.00000000000E+00 0.  1.
</event>
<event>
 7    1  0.5831876E-006  0.1399854E+03  0.7561462E-02  0.1213349E+00
         -2   -1    0    0    0  501 -0.00000000000E+00  0.00000000000E+00  0.51651950603E+02  0.51651950603E+02  0.00000000000E+00 0. -1.
          2   -1    0    0  501    0  0.00000000000E+00 -0.00000000000E+00 -0.80736214765E+03  0.80736214765E+03  0.00000000000E+00 0.  1.
         23    2    1    2    0    0  0.95889927956E+02 -0.38395580046E+02 -0.72036634223E+02  0.15635569740E+03  0.92675393646E+02 0.  0.
          5    1    1    2  502    0  0.26118567950E+02  0.27369250538E+02 -0.20742847604E+03  0.21089167964E+03  0.41800000000E+01 0. -1.
         -5    1    1    2    0  502 -0.12200849591E+03  0.11026329508E+02 -0.47624508678E+03  0.49176672122E+03  0.41800000000E+01 0. -1.
        -11    1    3    3    0    0  0.48113272578E+02  0.12310264780E+02  0.79356470250E+01  0.50293181554E+02  0.00000000000E+00 0.  1.
         11    1    3    3    0    0  0.47776655377E+02 -0.50705844826E+02 -0.79972281248E+02  0.10606251584E+03  0.00000000000E+00 0. -1.
</event>
<event>
 7    1  0.5831876E-006  0.1120839E+03  0.7561462E-02  0.1256759E+00
         -2   -1    0    0    0  501 -0.00000000000E+00  0.00000000000E+00  0.67824650106E+03  0.67824650106E+03  0.00000000000E+00 0.  1.
          2   -1    0    0  501    0  0.00000000000E+00 -0.00000000000E+00 -0.30267982575E+02  0.30267982575E+02  0.00000000000E+00 0. -1.
         23    2    1    2    0    0 -0.21111663912E+01  0.93187750041E+02  0.33514014012E+03  0.35894267915E+03  0.88501523235E+02 0.  0.
          5    1    1    2  502    0  0.13796408268E+02 -0.21111038009E+02 -0.26653095102E+01  0.25702005402E+02  0.41800000000E+01 0. -1.
         -5    1    1    2    0  502 -0.11685241877E+02 -0.72076712033E+02  0.31550368788E+03  0.32386979909E+03  0.41800000000E+01 0. -1.
        -11    1    3    3    0    0 -0.39445889930E+02  0.22209176496E+02  0.85614516407E+02  0.96845604818E+02  0.00000000000E+00 0. -1.
         11    1    3    3    0    0  0.37334723539E+02  0.70978573545E+02  0.24952562372E+03  0.26209707433E+03  0.00000000000E+00 0.  1.
</event>
<event>
 7    1  0.5831876E-006  0.1438480E+03  0.7561462E-02  0.1208243E+00
         -1   -1    0    0    0  501 -0.00000000000E+00  0.00000000000E+00  0.11181931018E+03  0.11181931018E+03  0.00000000000E+00 0.  1.
          1   -1    0    0  501    0  0.00000000000E+00 -0.00000000000E+00 -0.22433137058E+03  0.22433137058E+03  0.00000000000E+00 0. -1.
         23    2    1    2    0    0 -0.31911082173E+02  0.91562056163E+02  0.13239813909E+02  0.13400472114E+03  0.91542587472E+02 0.  0.
          5    1    1    2  502    0  0.78747988597E+02 -0.43042208726E+02 -0.82106947895E+02  0.12170826074E+03  0.41800000000E+01 0.  1.
         -5    1    1    2    0  502 -0.46836906423E+02 -0.48519847437E+02 -0.43644926412E+02  0.80437698874E+02  0.41800000000E+01 0.  1.
        -11    1    3    3    0    0 -0.60120826235E+02  0.42265772696E+02  0.21591117853E+02  0.76596903716E+02  0.00000000000E+00 0. -1.
         11    1    3    3    0    0  0.28209744062E+02  0.49296283467E+02 -0.83513039440E+01  0.57407817423E+02  0.00000000000E+00 0.  1.
</event>
<event>
 7    1  0.5831876E-006  0.1454773E+03  0.7561462E-02  0.1206143E+00
          2   -1    0    0  501    0  0.00000000000E+00  0.00000000000E+00  0.38394869901E+03  0.38394869901E+03  0.00000000000E+00 0. -1.
         -2   -1    0    0    0  501 -0.00000000000E+00 -0.00000000000E+00 -0.65126276689E+02  0.65126276689E+02  0.00000000000E+00 0.  1.
         23    2    1    2    0    0 -0.19623521896E+02 -0.10005278038E+03  0.72851371029E+02  0.15488795838E+03  0.91034696223E+02 0.  0.
          5    1    1    2  502    0  0.15190560865E+02 -0.25660314895E+02  0.82866173867E+02  0.88167341297E+02  0.41800000000E+01 0.  1.
         -5    1    1    2    0  502  0.44329610311E+01  0.12571309528E+03  0.16310487743E+03  0.20601967602E+03  0.41800000000E+01 0.  1.
        -11    1    3    3    0    0  0.68816690777E+01 -0.10728750593E+03  0.47609482547E+02  0.11757818303E+03  0.00000000000E+00 0.  1.
         11    1    3    3    0    0 -0.26505190974E+02  0.72347255431E+01  0.25241888482E+02  0.37309775346E+02  0.00000000000E+00 0. -1.
</event>
<event>
 7    1  0.5831876E-006  0.8190222E+02  0.7561462E-02  0.1323738E+00
          1   -1    0    0  501    0  0.00000000000E+00  0.00000000000E+00  0.31224886905E+03  0.31224886905E+03  0.00000000000E+00 0. -1.
         -1   -1    0    0    0  501 -0.00000000000E+00 -0.00000000000E+00 -0.46565180483E+02  0.46565180483E+02  0.00000000000E+00 0.  1.
         23    2    1    2    0    0  0.74254854718E+01 -0.31179223014E+02  0.47071208123E+02  0.10491293502E+03  0.88112107675E+02 0.  0.
          5    1    1    2  502    0 -0.60038273433E+02  0.28083422455E+01  0.63101630302E+02  0.87245453806E+02  0.41800000000E+01 0.  1.
         -5    1    1    2    0  502  0.52612787961E+02  0.28370880769E+02  0.15551085014E+03  0.16665566070E+03  0.41800000000E+01 0.  1.
        -11    1    3    3    0    0 -0.11294909045E+02 -0.80058156929E+01  0.67426085541E+02  0.68832732524E+02  0.00000000000E+00 0. -1.
         11    1    3    3    0    0  0.18720394517E+02 -0.23173407322E+02 -0.20354877418E+02  0.36080202500E+02  0.00000000000E+00 0.  1.
</event>
<event>
 7    1  0.5831876E-006  0.1599892E+03  0.7561462E-02  0.1188709E+00
          2   -1    0    0  501    0  0.00000000000E+00  0.00000000000E+00  0.45333119994E+03  0.45333119994E+03  0.00000000000E+00 0. -1.
         -2   -1    0    0    0  501 -0.00000000000E+00 -0.00000000000E+00 -0.67154300661E+02  0.67154300661E+02  0.00000000000E+00 0.  1.
         23    2    1    2    0    0  0.12252799031E+03  0.53772235301E+02  0.18156282366E+03  0.24144910576E+03  0.86186135996E+02 0.  0.
          5    1    1    2  502    0 -0.10880261232E+03 -0.34485572662E+01  0.19839915251E+03  0.22633956153E+03  0.41800000000E+01 0. -1.
         -5    1    1    2    0  502 -0.13725377987E+02 -0.50323678034E+02  0.62149231072E+01  0.52696833311E+02  0.41800000000E+01 0.  1.
        -11    1    3    3    0    0  0.84914752037E+02  0.76897066782E+02  0.12268612369E+03  0.16785576826E+03  0.00000000000E+00 0. -1.
         11    1    3    3    0    0  0.37613238275E+02 -0.23124831481E+02  0.58876699970E+02  0.73593337497E+02  0.00000000000E+00 0.  1.
</event>
<event>
 7    1  0.5831876E-006  0.1288182E+03  0.7561462E-02  0.1229220E+00
          1   -1    0    0  501    0  0.00000000000E+00  0.00000000000E+00  0.45001628948E+03  0.45001628948E+03  0.00000000000E+00 0. -1.
         -1   -1    0    0    0  501 -0.00000000000E+00 -0.00000000000E+00 -0.41806236266E+02  0.41806236266E+02  0.00000000000E+00 0.  1.
         23    2    1    2    0    0  0.58861313612E+02 -0.29267971168E+02  0.11448302243E+03  0.16587088126E+03  0.10042668196E+03 0.  0.
          5    1    1    2  502    0  0.37906508281E+02  0.48466204607E+01  0.54373204866E+02  0.66590621767E+02  0.41800000000E+01 0.  1.
         -5    1    1    2    0  502 -0.96767821893E+02  0.24421350708E+02  0.23935382592E+03  0.25936102272E+03  0.41800000000E+01 0.  1.
        -11    1    3    3    0    0 -0.28286805360E+02 -0.40108502700E+01  0.35555798157E+02  0.45611896035E+02  0.00000000000E+00 0.  1.
         11    1    3    3    0    0  0.87148118972E+02 -0.25257120898E+02  0.78927224277E+02  0.12025898523E+03  0.00000000000E+00 0. -1.
</event>
<event>
 7    1  0.5831876E-006  0.1097003E+03  0.7561462E-02  0.1261126E+00
         -1   -1    0    0    0  501 -0.00000000000E+00  0.00000000000E+00  0.28203426416E+02  0.28203426416E+02  0.00000000000E+00 0.  1.
          1   -1    0    0  501    0  0.00000000000E+00 -0.00000000000E+00 -0.62247758809E+03  0.62247758809E+03  0.00000000000E+00 0. -1.
         23    2    1    2    0    0  0.38716889997E+02  0.64200189472E+02 -0.23486373771E+03  0.26280979823E+03  0.91034899094E+02 0.  0.
          5    1    1    2  502    0  0.23313241545E+02 -0.48081857626E+02 -0.55146186582E+02  0.76902188257E+02  0.41800000000E+01 0. -1.
         -5    1    1    2    0  502 -0.62030131542E+02 -0.16118331846E+02 -0.30426423738E+03  0.31096902802E+03  0.41800000000E+01 0. -1.
        -11    1    3    3    0    0 -0.55462683178E+01  0.56348987110E+02 -0.60999946330E+02  0.83228377930E+02  0.00000000000E+00 0.  1.
         11    1    3    3    0    0  0.44263158314E+02  0.78512023625E+01 -0.17386379138E+03  0.17958142030E+03  0.00000000000E+00 0. -1.
</event>
<event>
 6    1  0.5831876E-006  0.4792049E+02  0.7561462E-02  0.1456892E+00
         -2   -1    0    0    0  501 -0.00000000000E+00  0.00000000000E+00  0.11405374580E+02  0.11405374580E+02  0.00000000000E+00 0. -1.
          2   -1    0    0  501    0  0.00000000000E+00 -0.00000000000E+00 -0.80780155297E+03  0.80780155297E+03  0.00000000000E+00 0.  1.
          5    1    1    2  502    0  0.21471279976E+02  0.25841038670E+02 -0.61525350482E+03  0.61618432529E+03  0.41800000000E+01 0. -1.
         -5    1    1    2    0  502 -0.15665515124E+02 -0.38814632479E-01 -0.47936927146E+01  0.16907446895E+02  0.41800000000E+01 0. -1.
        -11    1    1    2    0    0 -0.10810046526E+02  0.68105605705E+01 -0.92086354063E+01  0.15749279578E+02  0.00000000000E+00 0. -1.
         11    1    1    2    0    0  0.50042816740E+01 -0.32612784608E+02 -0.16714034546E+03  0.17036587579E+03  0.00000000000E+00 0.  1.
</event>
<event>
 7    1  0.5831876E-006  0.2146662E+03  0.7561462E-02  0.1137923E+00
          1   -1    0    0  501    0  0.00000000000E+00  0.00000000000E+00  0.67093684070E+02  0.67093684070E+02  0.00000000000E+00 0. -1.
         -1   -1    0    0    0  501 -0.00000000000E+00 -0.00000000000E+00 -0.81994350314E+03  0.81994350314E+03  0.00000000000E+00 0.  1.
         23    2    1    2    0    0  0.18472083927E+03  0.14933672592E+02 -0.54081186195E+03  0.57889382308E+03  0.91081201881E+02 0.  0.
          5    1    1    2  502    0 -0.14503530026E+03  0.44619496664E+02 -0.14832188200E+03  0.21223334065E+03  0.41800000000E+01 0. -1.
         -5    1    1    2    0  502 -0.39685539007E+02 -0.59553169255E+02 -0.63716075116E+02  0.95910023474E+02  0.41800000000E+01 0. -1.
        -11    1    3    3    0    0 -0.39614324750E+01 -0.14364659381E+02 -0.28596235138E+02  0.32245636146E+02  0.00000000000E+00 0. -1.
         11    1    3    3    0    0  0.18868227174E+03  0.29298331973E+02 -0.51221562681E+03  0.54664818693E+03  0.00000000000E+00 0.  1.
</event>
<event>
 7    1  0.5831876E-006  0.1266334E+03  0.7561462E-02  0.1232538E+00
         -2   -1    0    0    0  501 -0.00000000000E+00  0.00000000000E+00  0.82439252067E+02  0.82439252067E+02  0.00000000000E+00 0.  1.
          2   -1    0    0  501    0  0.00000000000E+00 -0.00000000000E+00 -0.23234378760E+03  0.23234378760E+03  0.00000000000E+00 0. -1.
         23    2    1    2    0    0  0.44992183791E+02  0.67665992286E+02 -0.10090277436E+03  0.15777669302E+03  0.90050718322E+02 0.  0.
          5    1    1    2  502    0 -0.71288624749E+02 -0.10031224550E+02 -0.58441713358E+02  0.92820255035E+02  0.41800000000E+01 0. -1.
         -5    1    1    2    0  502  0.26296440958E+02 -0.57634767736E+02  0.94399521926E+01  0.64186091612E+02  0.41800000000E+01 0. -1.
        -11    1    3    3    0    0  0.87430244631E+00  0.73197882584E+02 -0.43445700256E+02  0.85124751338E+02  0.00000000000E+00 0.  1.
         11    1    3    3    0    0  0.44117881345E+02 -0.55318902979E+01 -0.57457074107E+02  0.72651941678E+02  0.00000000000E+00 0. -1.
</event>
<event>
 7    1  0.5831876E-006  0.1975296E+03  0.7561462E-02  0.1151840E+00
          2   -1    0    0  501    0  0.00000000000E+00  0.00000000000E+00  0.69661673680E+03  0.69661673680E+03  0.00000000000E+00 0. -1.
         -2   -1    0    0    0  501 -0.00000000000E+00 -0.00000000000E+00 -0.63302693687E+02  0.63302693687E+02  0.00000000000E+00 0.  1.
         23    2    1    2    0    0 -0.17215536556E+03  0.48507778895E+02  0.27188773513E+03  0.33770302893E+03  0.90166073026E+02 0.  0.
          5    1    1    2  502    0  0.55904007977E+01 -0.32346819419E+02  0.12796064796E+02  0.35479303570E+02  0.41800000000E+01 0. -1.
         -5    1    1    2    0  502  0.16656496477E+03 -0.16160959476E+02  0.34863024319E+03  0.38673709799E+03  0.41800000000E+01 0. -1.
        -11    1    3    3    0    0 -0.10228326941E+02 -0.17042792394E+02  0.84298345273E+01  0.21590218960E+02  0.00000000000E+00 0.  1.
         11    1    3    3    0    0 -0.16192703862E+03  0.65550571289E+02  0.26345790061E+03  0.31611280997E+03  0.00000000000E+00 0. -1.
</event>
<event>
 7    1  0.5831876E-006  0.1247352E+03  0.7561462E-02  0.1235484E+00
         -2   -1    0    0    0  501 -0.00000000000E+00  0.00000000000E+00  0.13709078023E+03  0.13709078023E+03  0.00000000000E+00 0. -1.
          2   -1    0    0  501    0  0.00000000000E+00 -0.00000000000E+00 -0.12239707917E+03  0.12239707917E+03  0.00000000000E+00 0.  1.
         23    2    1    2    0    0 -0.31084634374E+02 -0.36521490724E+02  0.16123437342E+02  0.12550959307E+03  0.11485912650E+03 0.  0.
          5    1    1    2  502    0 -0.32841550876E+02  0.50723454813E+02 -0.23171099920E+02  0.64852205850E+02  0.41800000000E+01 0. -1.
         -5    1    1    2    0  502  0.63926185250E+02 -0.14201964089E+02  0.21741363642E+02  0.69126060481E+02  0.41800000000E+01 0. -1.
        -11    1    3    3    0    0  0.40500920947E+02 -0.31883803276E+02  0.15304763093E+02  0.53769296836E+02  0.00000000000E+00 0. -1.
         11    1    3    3    0    0 -0.71585555321E+02 -0.46376874477E+01  0.81867424941E+00  0.71740296229E+02  0.00000000000E+00 0.  1.
</event>
<event>
 7    1  0.5831876E-006  0.1095058E+03  0.7561462E-02  0.1261488E+00
          2   -1    0    0  501    0  0.00000000000E+00  0.00000000000E+00  0.14027272142E+02  0.14027272142E+02  0.00000000000E+00 0.  1.
         -2   -1    0    0    0  501 -0.00000000000E+00 -0.00000000000E+00 -0.94588106172E+03  0.94588106172E+03  0.00000000000E+00 0. -1.
         23    2    1    2    0    0  0.40469743698E+01  0.37149163272E+02 -0.40193619205E+03  0.41414525243E+03  0.92558896375E+02 0.  0.
          5    1    1    2  502    0 -0.22742707302E+02  0.41126245334E+02 -0.25284286053E+03  0.25720727694E+03  0.41800000000E+01 0.  1.
         -5    1    1    2    0  502  0.18695732932E+02 -0.78275408606E+02 -0.27707473700E+03  0.28855580449E+03  0.41800000000E+01 0.  1.
        -11    1    3    3    0    0  0.36433218879E+02  0.45020546534E+02 -0.32759054949E+03  0.33267070380E+03  0.00000000000E+00 0. -1.
         11    1    3    3    0    0 -0.32386244509E+02 -0.78713832615E+01 -0.74345642559E+02  0.81474548636E+02  0.00000000000E+00 0.  1.
</event>
<event>
 7    1  0.5831876E-006  0.1161106E+03  0.7561462E-02  0.1249655E+00
         -2   -1    0    0    0  501 -0.00000000000E+00  0.00000000000E+00  0.42936213028E+02  0.42936213028E+02  0.00000000000E+00 0.  1.
          2   -1    0    0  501    0  0.00000000000E+00 -0.00000000000E+00 -0.38484534907E+03  0.38484534907E+03  0.00000000000E+00 0. -1.
         23    2    1    2    0    0  0.50453152748E+02  0.32249286735E+02 -0.93251731238E+02  0.14306712509E+03  0.90480825520E+02 0.  0.
          5    1    1    2  502    0 -0.77406478446E+02  0.10203883603E+02 -0.19947242412E+03  0.21424892655E+03  0.41800000000E+01 0.  1.
         -5    1    1    2    0  502  0.26953325698E+02 -0.42453170338E+02 -0.49184980688E+02  0.70465510452E+02  0.41800000000E+01 0.  1.
        -11    1    3    3    0    0  0.12199961235E+02  0.56815740509E+02 -0.30647857518E+02  0.65697477838E+02  0.00000000000E+00 0.  1.
         11    1    3    3    0    0  0.38253191513E+02 -0.24566453774E+02 -0.62603873720E+02  0.77369647257E+02  0.00000000000E+00 0. -1.
</event>
<event>
 7    1  0.5831876E-006  0.8048062E+02  0.7561462E-02  0.1327693E+00
          1   -1    0    0  501    0  0.00000000000E+00  0.00000000000E+00  0.79057183982E+02  0.79057183982E+02  0.00000000000E+00 0. -1.
         -1   -1    0    0    0  501 -0.00000000000E+00 -0.00000000000E+00 -0.14919472840E+03  0.14919472840E+03  0.00000000000E+00 0.  1.
         23    2    1    2    0    0  0.24334087630E+02  0.38740763990E+02 -0.15213137184E+02  0.84177051548E+02  0.69002477122E+02 0.  0.
          5    1    1    2  502    0 -0.52412412275E+02 -0.53096696656E+02  0.63919943637E+01  0.74997667618E+02  0.41800000000E+01 0. -1.
         -5    1    1    2    0  502  0.28078324645E+02  0.14355932666E+02 -0.61316401599E+02  0.69077193216E+02  0.41800000000E+01 0. -1.
        -11    1    3    3    0    0  0.19147276617E+02  0.43365842941E+01 -0.37870736591E+02  0.42656967252E+02  0.00000000000E+00 0.  1.
         11    1    3    3    0    0  0.51868110132E+01  0.34404179696E+02  0.22657599407E+02  0.41520084296E+02  0.00000000000E+00 0. -1.
</event>
<event>
 7    1  0.5831876E-006  0.1007263E+03  0.7561462E-02  0.1278776E+00
         -1   -1    0    0    0  501 -0.00000000000E+00  0.00000000000E+00  0.47961111690E+02  0.47961111690E+02  0.00000000000E+00 0.  1.
          1   -1    0    0  501    0  0.00000000000E+00 -0.00000000000E+00 -0.45151677904E+03  0.45151677904E+03  0.00000000000E+00 0. -1.
         23    2    1    2    0    0 -0.54582677013E+02  0.37610273234E+02 -0.59776730850E+02  0.12769087979E+03  0.91312112819E+02 0.  0.
          5    1    1    2  502    0 -0.57790365394E+01  0.13423841608E+02  0.35023046293E+01  0.15599209100E+02  0.41800000000E+01 0.  1.
         -5    1    1    2    0  502  0.60361713552E+02 -0.51034114842E+02 -0.34728124113E+03  0.35618780184E+03  0.41800000000E+01 0.  1.
        -11    1    3    3    0    0 -0.75049746334E+02  0.14881490229E+02 -0.59795058066E+02  0.97104954278E+02  0.00000000000E+00 0.  1.
         11    1    3    3    0    0  0.20467069321E+02  0.22728783005E+02  0.18327215441E-01  0.30585925511E+02  0.00000000000E+00 0. -1.
</event>
<event>
 7    1  0.5831876E-006  0.1091153E+03  0.7561462E-02  0.1262217E+00
          2   -1    0    0  501    0  0.00000000000E+00  0.00000000000E+00  0.38112585218E+03  0.38112585218E+03  0.00000000000E+00 0. -1.
         -2   -1    0    0    0  501 -0.00000000000E+00 -0.00000000000E+00 -0.50887838604E+02  0.50887838604E+02  0.00000000000E+00 0.  1.
         23    2    1    2    0    0 -0.66150187895E+02 -0.14608729573E+02  0.64369982572E+02  0.13048080908E+03  0.91063080019E+02 0.  0.
          5    1    1    2  502    0 -0.74154980759E+00  0.35998906225E+02  0.12132882447E+02  0.38224996821E+02  0.41800000000E+01 0. -1.
         -5    1    1    2    0  502  0.66891737703E+02 -0.21390176652E+02  0.25373514856E+03  0.26330788489E+03  0.41800000000E+01 0. -1.
        -11    1    3    3    0    0 -0.27468902905E+02 -0.51378437738E+02  0.45326909121E+02  0.73816076715E+02  0.00000000000E+00 0.  1.
         11    1    3    3    0    0 -0.38681284991E+02  0.36769708165E+02  0.19043073452E+02  0.56664732361E+02  0.00000000000E+00 0. -1.
</event>
<event>
 7    1  0.5831876E-006  0.1145183E+03  0.7561462E-02  0.1252424E+00
         -2   -1    0    0    0  501 -0.00000000000E+00  0.00000000000E+00  0.24827097037E+03  0.24827097037E+03  0.00000000000E+00 0.  1.
          2   -1    0    0  501    0  0.00000000000E+00 -0.00000000000E+00 -0.80799441158E+02  0.80799441158E+02  0.00000000000E+00 0. -1.
         23    2    1    2    0    0  0.95354030539E+01 -0.85710818609E+02  0.10177554540E+03  0.16353883428E+03  0.94601375973E+02 0.  0.
          5    1    1    2  502    0  0.21636641017E+02  0.21466236058E+02 -0.32038891612E+02  0.44417412134E+02  0.41800000000E+01 0.  1.
         -5    1    1    2    0  502 -0.31172044071E+02  0.64244582551E+02  0.97734875418E+02  0.12111416512E+03  0.41800000000E+01 0.  1.
        -11    1    3    3    0    0 -0.12954363659E+02  0.17127068864E+02  0.92289812833E+01  0.23373620199E+02  0.00000000000E+00 0.  1.
         11    1    3    3    0    0  0.22489766713E+02 -0.10283788747E+03  0.92546564120E+02  0.14016521408E+03  0.00000000000E+00 0. -1.
</event>
<event>
 7    1  0.5831876E-006  0.1087910E+03  0.7561462E-02  0.1262825E+00
          2   -1    0    0  501    0  0.00000000000E+00  0.00000000000E+00  0.77822505979E+03  0.77822505979E+03  0.00000000000E+00 0.  1.
         -2   -1    0    0    0  501 -0.00000000000E+00 -0.00000000000E+00 -0.18504279117E+02  0.18504279117E+02  0.00000000000E+00 0. -1.
         23    2    1    2    0    0 -0.75671575367E+01  0.18059842291E+02  0.18926755784E+03  0.21239396550E+03  0.94369318928E+02 0.  0.
          5    1    1    2  502    0  0.62412404284E+02  0.40972204364E+01  0.21433666714E+03  0.22331541529E+03  0.41800000000E+01 0. -1.
         -5    1    1    2    0  502 -0.54845246748E+02 -0.22157062728E+02  0.35611655569E+03  0.36101995811E+03  0.41800000000E+01 0. -1.
        -11    1    3    3    0    0  0.35554597592E+02  0.34409932502E+02  0.11140894642E+03  0.12190211732E+03  0.00000000000E+00 0.  1.
         11    1    3    3    0    0 -0.43121755129E+02 -0.16350090211E+02  0.77858611416E+02  0.90491848180E+02  0.00000000000E+00 0. -1.
</event>
<event>
 7    1  0.5831876E-006  0.1459401E+03  0.7561462E-02  0.1205552E+00
         -1   -1    0    0    0  501 -0.00000000000E+00  0.00000000000E+00  0.15346437726E+03  0.15346437726E+03  0.00000000000E+00 0.  1.
          1   -1    0    0  501    0  0.00000000000E+00 -0.00000000000E+00 -0.19873142086E+03  0.19873142086E+03  0.00000000000E+00 0. -1.
         23    2    1    2    0    0  0.58042739421E+02  0.72442381048E+02  0.72508302626E+02  0.15691333485E+03  0.10367006575E+03 0.  0.
          5    1    1    2  502    0  0.34608051644E+02 -0.44603593989E+02 -0.60152234988E+02  0.82601220387E+02  0.41800000000E+01 0.  1.
         -5    1    1    2    0  502 -0.92650791066E+02 -0.27838787058E+02 -0.57623111239E+02  0.11268124289E+03  0.41800000000E+01 0.  1.
        -11    1    3    3    0    0  0.87772277116E+02  0.48606593347E+02  0.45260460453E+02  0.11006853695E+03  0.00000000000E+00 0.  1.
         11    1    3    3    0    0 -0.29729537694E+02  0.23835787701E+02  0.27247842174E+02  0.46844797896E+02  0.00000000000E+00 0. -1.
</event>
<event>
 7    1  0.5831876E-006  0.2628025E+03  0.7561462E-02  0.1105471E+00
         -2   -1    0    0    0  501 -0.00000000000E+00  0.00000000000E+00  0.32287259960E+02  0.32287259960E+02  0.00000000000E+00 0. -1.
          2   -1    0    0  501    0  0.00000000000E+00 -0.00000000000E+00 -0.30795182045E+04  0.30795182045E+04  0.00000000000E+00 0.  1.
         23    2    1    2    0    0 -0.67001226287E+02 -0.23482505516E+03 -0.66999180047E+03  0.71878514895E+03  0.90172649966E+02 0.  0.
          5    1    1    2  502    0 -0.28117530168E+02  0.45384828363E+02 -0.76952410431E+03  0.77138524594E+03  0.41800000000E+01 0. -1.
         -5    1    1    2    0  502  0.95118756455E+02  0.18944022680E+03 -0.16077150398E+04  0.16216350696E+04  0.41800000000E+01 0. -1.
        -11    1    3    3    0    0  0.11613962010E+02 -0.12181520793E+03 -0.29866252651E+03  0.32275863077E+03  0.00000000000E+00 0.  1.
         11    1    3    3    0    0 -0.78615188296E+02 -0.11300984723E+03 -0.37132927396E+03  0.39602651818E+03  0.00000000000E+00 0. -1.
</event>
<event>
 7    1  0.5831876E-006  0.7529874E+02  0.7561462E-02  0.1342948E+00
          2   -1    0    0  501    0  0.00000000000E+00  0.00000000000E+00  0.34485808343E+03  0.34485808343E+03  0.00000000000E+00 0. -1.
         -2   -1    0    0    0  501 -0.00000000000E+00 -0.00000000000E+00 -0.27514692573E+02  0.27514692573E+02  0.00000000000E+00 0.  1.
         23    2    1    2    0    0 -0.32310849214E+01 -0.96073753779E+01  0.89288139303E+02  0.11206566083E+03  0.66959681490E+02 0.  0.
          5    1    1    2  502    0  0.52115455430E+02  0.12166153674E+02  0.19201175746E+03  0.19937407904E+03  0.41800000000E+01 0. -1.
         -5    1    1    2    0  502 -0.48884370508E+02 -0.25587782965E+01  0.36043494099E+02  0.60933036140E+02  0.41800000000E+01 0. -1.
        -11    1    3    3    0    0 -0.24661998559E+02 -0.96618253942E+00  0.56840493803E+01  0.25326983614E+02  0.00000000000E+00 0.  1.
         11    1    3    3    0    0  0.21430913638E+02 -0.86411928385E+01  0.83604089923E+02  0.86738677214E+02  0.00000000000E+00 0. -1.
</event>
<event>
 7    1  0.5831876E-006  0.9770084E+02  0.7561462E-02  0.1285206E+00
          4   -1    0    0  501    0  0.00000000000E+00  0.00000000000E+00  0.20249997574E+03  0.20249997574E+03  0.00000000000E+00 0. -1.
         -4   -1    0    0    0  501 -0.00000000000E+00 -0.00000000000E+00 -0.67571262238E+02  0.67571262238E+02  0.00000000000E+00 0.  1.
         23    2    1    2    0    0 -0.15923687156E+02  0.31245654756E+02  0.17019932092E+02  0.94629419331E+02  0.86227571929E+02 0.  0.
          5    1    1    2  502    0  0.49223695514E+02 -0.60284307322E+02  0.44747336224E+02  0.89871944502E+02  0.41800000000E+01 0. -1.
         -5    1    1    2    0  502 -0.33300008357E+02  0.29038652566E+02  0.73161445183E+02  0.85569874142E+02  0.41800000000E+01 0. -1.
        -11    1    3    3    0    0 -0.40799023285E+02  0.15514451900E+02  0.38492189569E+02  0.58197140622E+02  0.00000000000E+00 0.  1.
         11    1    3    3    0    0  0.24875336129E+02  0.15731202856E+02 -0.21472257476E+02  0.36432278709E+02  0.00000000000E+00 0. -1.
</event>
<event>
 7    1  0.5831876E-006  0.1410071E+03  0.7561462E-02  0.1211980E+00
         -2   -1    0    0    0  501 -0.00000000000E+00  0.00000000000E+00  0.31593510133E+02  0.31593510133E+02  0.00000000000E+00 0.  1.
          2   -1    0    0  501    0  0.00000000000E+00 -0.00000000000E+00 -0.10740748926E+04  0.10740748926E+04  0.00000000000E+00 0. -1.
         23    2    1    2    0    0  0.40695184012E+01  0.12432432449E+03 -0.24889220752E+03  0.29270873410E+03  0.90873392215E+02 0.  0.
          5    1    1    2  502    0 -0.42468246200E+02 -0.23650121087E+02 -0.45516076131E+03  0.45776814131E+03  0.41800000000E+01 0.  1.
         -5    1    1    2    0  502  0.38398727799E+02 -0.10067420340E+03 -0.33842841368E+03  0.35519152737E+03  0.41800000000E+01 0.  1.
        -11    1    3    3    0    0  0.98027777197E+01  0.57863975553E+02 -0.20407029208E+03  0.21234174867E+03  0.00000000000E+00 0. -1.
         11    1    3    3    0    0 -0.57332593184E+01  0.66460348939E+02 -0.44821915443E+02  0.80366985433E+02  0.00000000000E+00 0.  1.
</event>
<event>
 7    1  0.5831876E-006  0.6882692E+02  0.7561462E-02  0.1364128E+00
         -2   -1    0    0    0  501 -0.00000000000E+00  0.00000000000E+00  0.11852391520E+03  0.11852391520E+03  0.00000000000E+00 0.  1.
          2   -1    0    0  501    0  0.00000000000E+00 -0.00000000000E+00 -0.11651128771E+03  0.11651128771E+03  0.00000000000E+00 0. -1.
         23    2    1    2    0    0  0.94190140975E+00 -0.42654505042E+02  0.17765033511E+02  0.10193386512E+03  0.90854952885E+02 0.  0.
          5    1    1    2  502    0  0.33483770936E+02  0.45461097346E+02  0.38631904328E+02  0.68540285381E+02  0.41800000000E+01 0.  1.
         -5    1    1    2    0  502 -0.34425672346E+02 -0.28065923045E+01 -0.54384310350E+02  0.64561052417E+02  0.41800000000E+01 0.  1.
        -11    1    3    3    0    0  0.93946985072E+01 -0.21318306468E+02 -0.36338037286E+02  0.43164609398E+02  0.00000000000E+00 0. -1.
         11    1    3    3    0    0 -0.84527970975E+01 -0.21336198574E+02  0.54103070797E+02  0.58769255721E+02  0.00000000000E+00 0.  1.
</event>
<event>
 7    1  0.5831876E-006  0.1010722E+03  0.7561462E-02  0.1278057E+00
         -1   -1    0    0    0  501 -0.00000000000E+00  0.00000000000E+00  0.10569734798E+03  0.10569734798E+03  0.00000000000E+00 0.  1.
          1   -1    0    0  501    0  0.00000000000E+00 -0.00000000000E+00 -0.17954657067E+03  0.17954657067E+03  0.00000000000E+00 0. -1.
         23    2    1    2    0    0 -0.39304157277E+02  0.65909715154E+02  0.45621869375E+01  0.11886789327E+03  0.90663416937E+02 0.  0.
          5    1    1    2  502    0 -0.15121253467E+02 -0.32334516119E+02 -0.93817004431E+02  0.10046529729E+03  0.41800000000E+01 0.  1.
         -5    1    1    2    0  502  0.54425410745E+02 -0.33575199035E+02  0.15405594806E+02  0.65910728082E+02  0.41800000000E+01 0.  1.
        -11    1    3    3    0    0 -0.54464900079E+02  0.27893336922E+02  0.32525701272E+02  0.69299241183E+02  0.00000000000E+00 0.  1.
         11    1    3    3    0    0  0.15160742801E+02  0.38016378232E+02 -0.27963514334E+02  0.49568652091E+02  0.00000000000E+00 0. -1.
</event>
<event>
 7    1  0.5831876E-006  0.1011057E+03  0.7561462E-02  0.1277988E+00
         -1   -1    0    0    0  501 -0.00000000000E+00  0.00000000000E+00  0.27518656859E+03  0.27518656859E+03  0.00000000000E+00 0.  1.
          1   -1    0    0  501    0  0.00000000000E+00 -0.00000000000E+00 -0.55632988951E+02  0.55632988951E+02  0.00000000000E+00 0. -1.
         23    2    1    2    0    0 -0.26191494402E+02 -0.44706622307E+02  0.13251552409E+03  0.16986105753E+03  0.92777897609E+02 0.  0.
          5    1    1    2  502    0  0.66211487193E+02  0.58916991148E+02  0.39637665748E+02  0.97179163550E+02  0.41800000000E+01 0.  1.
         -5    1    1    2    0  502 -0.40019992791E+02 -0.14210368841E+02  0.47400389806E+02  0.63779336460E+02  0.41800000000E+01 0.  1.
        -11    1    3    3    0    0 -0.14280170280E+01 -0.45991246220E+02  0.13020264467E+02  0.47820092516E+02  0.00000000000E+00 0. -1.
         11    1    3    3    0    0 -0.24763477374E+02  0.12846239130E+01  0.11949525962E+03  0.12204096502E+03  0.00000000000E+00 0.  1.
</event>
<event>
 7    1  0.5831876E-006  0.1493183E+03  0.7561462E-02  0.1201313E+00
         -1   -1    0    0    0  501 -0.00000000000E+00  0.00000000000E+00  0.67414970590E+02  0.67414970590E+02  0.00000000000E+00 0.  1.
          1   -1    0    0  501    0  0.00000000000E+00 -0.00000000000E+00 -0.47979400461E+03  0.47979400461E+03  0.00000000000E+00 0. -1.
         23    2    1    2    0    0 -0.65974120583E+02  0.10293776645E+03 -0.80463282421E+02  0.17203243607E+03  0.90399396530E+02 0.  0.
          5    1    1    2  502    0  0.99508322462E+02 -0.99370997234E+02 -0.27463025240E+03  0.30857049318E+03  0.41800000000E+01 0.  1.
         -5    1    1    2    0  502 -0.33534201879E+02 -0.35667692159E+01 -0.57285499195E+02  0.66606045944E+02  0.41800000000E+01 0.  1.
        -11    1    3    3    0    0 -0.44294019701E+02  0.50221389097E+02 -0.92085683827E+02  0.11385921689E+03  0.00000000000E+00 0. -1.
         11    1    3    3    0    0 -0.21680100882E+02  0.52716377353E+02  0.11622401406E+02  0.58173219181E+02  0.00000000000E+00 0.  1.
</event>
<event>
 7    1  0.5831876E-006  0.1367997E+03  0.7561462E-02  0.1217701E+00
          2   -1    0    0  501    0  0.00000000000E+00  0.00000000000E+00  0.15244524375E+03  0.15244524375E+03  0.00000000000E+00 0. -1.
         -2   -1    0    0    0  501 -0.00000000000E+00 -0.00000000000E+00 -0.15466387752E+03  0.15466387752E+03  0.00000000000E+00 0.  1.
         23    2    1    2    0    0  0.65550034972E+02  0.25347117469E+02 -0.44079943923E+01  0.13032104971E+03  0.10965793238E+03 0.  0.
          5    1    1    2  502    0 -0.46085427761E+02 -0.80723098047E+02  0.45642123751E+02  0.10363764312E+03  0.41800000000E+01 0. -1.
         -5    1    1    2    0  502 -0.19464607211E+02  0.55375980578E+02 -0.43452763130E+02  0.73150428451E+02  0.41800000000E+01 0.  1.
        -11    1    3    3    0    0 -0.26190431859E+02  0.12673680202E+02 -0.21458513714E+02  0.36152851916E+02  0.00000000000E+00 0.  1.
         11    1    3    3    0    0  0.91740466830E+02  0.12673437267E+02  0.17050519322E+02  0.94168197793E+02  0.00000000000E+00 0. -1.
</event>
<event>
 7    1  0.5831876E-006  0.1267295E+03  0.7561462E-02  0.1232391E+00
          1   -1    0    0  501    0  0.00000000000E+00  0.00000000000E+00  0.53996235328E+02  0.53996235328E+02  0.00000000000E+00 0. -1.
         -1   -1    0    0    0  501 -0.00000000000E+00 -0.00000000000E+00 -0.30058239773E+03  0.30058239773E+03  0.00000000000E+00 0.  1.
         23    2    1    2    0    0 -0.42958035293E+02 -0.15010521520E+01 -0.12626926208E+03  0.17577280080E+03  0.11447490993E+03 0.  0.
          5    1    1    2  502    0  0.84552317364E+02  0.18756316639E+02 -0.72925795351E+02  0.11329844577E+03  0.41800000000E+01 0. -1.
         -5    1    1    2    0  502 -0.41594282072E+02 -0.17255264487E+02 -0.47391104969E+02  0.65507386483E+02  0.41800000000E+01 0. -1.
        -11    1    3    3    0    0 -0.70430029024E+02  0.32705198861E+02 -0.71106266337E+02  0.10529064599E+03  0.00000000000E+00 0. -1.
         11    1    3    3    0    0  0.27471993732E+02 -0.34206251013E+02 -0.55162995742E+02  0.70482154814E+02  0.00000000000E+00 0.  1.
</event>
<event>
 7    1  0.5831876E-006  0.1382689E+03  0.7561462E-02  0.1215677E+00
         -1   -1    0    0    0  501 -0.00000000000E+00  0.00000000000E+00  0.18502421043E+02  0.18502421043E+02  0.00000000000E+00 0.  1.
          1   -1    0    0  501    0  0.00000000000E+00 -0.00000000000E+00 -0.12943607572E+04  0.12943607572E+04  0.00000000000E+00 0. -1.
         23    2    1    2    0    0 -0.29065132519E+02  0.10532080940E+03 -0.55592710381E+03  0.57402364637E+03  0.92254794019E+02 0.  0.
          5    1    1    2  502    0  0.76248302271E+02 -0.62717526886E+02 -0.50874510482E+03  0.51825316773E+03  0.41800000000E+01 0.  1.
         -5    1    1    2    0  502 -0.47183169753E+02 -0.42603282512E+02 -0.21118612749E+03  0.22058636412E+03  0.41800000000E+01 0.  1.
        -11    1    3    3    0    0  0.70376343291E+01  0.24581969579E+02 -0.24930176854E+02  0.35711556159E+02  0.00000000000E+00 0.  1.
         11    1    3    3    0    0 -0.36102766848E+02  0.80738839820E+02 -0.53099692696E+03  0.53831209021E+03  0.00000000000E+00 0. -1.
</event>
<event>
 7    1  0.5831876E-006  0.1105879E+03  0.7561462E-02  0.1259485E+00
         -2   -1    0    0    0  501 -0.00000000000E+00  0.00000000000E+00  0.98830625053E+02  0.98830625053E+02  0.00000000000E+00 0. -1.
          2   -1    0    0  501    0  0.00000000000E+00 -0.00000000000E+00 -0.17297846489E+03  0.17297846489E+03  0.00000000000E+00 0.  1.
         23    2    1    2    0    0 -0.48340925655E+02  0.39815296515E+02 -0.43464812336E+01  0.11547318014E+03  0.96917802816E+02 0.  0.
          5    1    1    2  502    0 -0.34256543373E+02 -0.45310899521E+02 -0.26466073025E+02  0.62805364425E+02  0.41800000000E+01 0. -1.
         -5    1    1    2    0  502  0.82597469028E+02  0.54956030063E+01 -0.43335285574E+02  0.93530545374E+02  0.41800000000E+01 0. -1.
        -11    1    3    3    0    0  0.73805160810E+01  0.21417424391E+02 -0.40603509649E+02  0.46495409246E+02  0.00000000000E+00 0.  1.
         11    1    3    3    0    0 -0.55721441736E+02  0.18397872124E+02  0.36257028415E+02  0.68977770893E+02  0.00000000000E+00 0. -1.
</event>
<event>
 7    1  0.5831876E-006  0.2277151E+03  0.7561462E-02  0.1128258E+00
          3   -1    0    0  501    0  0.00000000000E+00  0.00000000000E+00  0.87376706374E+03  0.87376706374E+03  0.00000000000E+00 0. -1.
         -3   -1    0    0    0  501 -0.00000000000E+00 -0.00000000000E+00 -0.70929669599E+02  0.70929669599E+02  0.00000000000E+00 0.  1.
         23    2    1    2    0    0  0.29892929762E+02  0.21909378157E+03  0.45012166094E+03  0.51001395711E+03  0.92784990280E+02 0.  0.
          5    1    1    2  502    0 -0.13168124857E+02 -0.18510201295E+03  0.18270063987E+03  0.26044798122E+03  0.41800000000E+01 0.  1.
         -5    1    1    2    0  502 -0.16724804905E+02 -0.33991768621E+02  0.17001509333E+03  0.17423479502E+03  0.41800000000E+01 0.  1.
        -11    1    3    3    0    0  0.52638661215E+02  0.15300348517E+03  0.24770240913E+03  0.29586716380E+03  0.00000000000E+00 0. -1.
         11    1    3    3    0    0 -0.22745731453E+02  0.66090296407E+02  0.20241925182E+03  0.21414679331E+03  0.00000000000E+00 0.  1.
</event>
<event>
 7    1  0.5831876E-006  0.5998213E+02  0.7561462E-02  0.1397907E+00
         -2   -1    0    0    0  501 -0.00000000000E+00  0.00000000000E+00  0.22611795441E+02  0.22611795441E+02  0.00000000000E+00 0.  1.
          2   -1    0    0  501    0  0.00000000000E+00 -0.00000000000E+00 -0.72064856964E+03  0.72064856964E+03  0.00000000000E+00 0. -1.
         23    2    1    2    0    0 -0.22770850779E+02  0.26597676304E+02 -0.12822293280E+03  0.15632677950E+03  0.82286046594E+02 0.  0.
          5    1    1    2  502    0  0.75131608774E+01 -0.12805330864E+02 -0.56524322380E+03  0.56545362192E+03  0.41800000000E+01 0. -1.
         -5    1    1    2    0  502  0.15257689902E+02 -0.13792345440E+02 -0.45706176053E+01  0.21479963668E+02  0.41800000000E+01 0.  1.
        -11    1    3    3    0    0 -0.36514152044E+02 -0.15201234152E+02 -0.33306493660E+02  0.51707671956E+02  0.00000000000E+00 0. -1.
         11    1    3    3    0    0  0.13743301265E+02  0.41798910456E+02 -0.94916439136E+02  0.10461910754E+03  0.00000000000E+00 0.  1.
</event>
<event>
 7    1  0.5831876E-006  0.1362632E+03  0.7561462E-02  0.1218447E+00
         -1   -1    0    0    0  501 -0.00000000000E+00  0.00000000000E+00  0.70033772290E+02  0.70033772290E+02  0.00000000000E+00 0.  1.
          1   -1    0    0  501    0  0.00000000000E+00 -0.00000000000E+00 -0.33469074518E+03  0.33469074518E+03  0.00000000000E+00 0. -1.
         23    2    1    2    0    0  0.65014691331E+01 -0.10676528322E+03 -0.10799974024E+03  0.17750303879E+03  0.91664006477E+02 0.  0.
          5    1    1    2  502    0  0.39875338254E+02  0.96419942325E+02 -0.62573050309E+02  0.12173621854E+03  0.41800000000E+01 0.  1.
         -5    1    1    2    0  502 -0.46376807387E+02  0.10345340899E+02 -0.94084182344E+02  0.10548526015E+03  0.41800000000E+01 0.  1.
        -11    1    3    3    0    0 -0.22470430438E+02 -0.24791268257E+02  0.61434110364E+01  0.34018652604E+02  0.00000000000E+00 0.  1.
         11    1    3    3    0    0  0.28971899571E+02 -0.81974014967E+02 -0.11414315128E+03  0.14348438618E+03  0.00000000000E+00 0. -1.
</event>
<event>
 7    1  0.5831876E-006  0.1285807E+03  0.7561462E-02  0.1229577E+00
         -1   -1    0    0    0  501 -0.00000000000E+00  0.00000000000E+00  0.30489776981E+03  0.30489776981E+03  0.00000000000E+00 0.  1.
          1   -1    0    0  501    0  0.00000000000E+00 -0.00000000000E+00 -0.67721914807E+02  0.67721914807E+02  0.00000000000E+00 0. -1.
         23    2    1    2    0    0 -0.42507653679E+02  0.72220763218E+02  0.16344469599E+03  0.20496864924E+03  0.90968342099E+02 0.  0.
          5    1    1    2  502    0  0.44988791203E+02 -0.10394661631E+03  0.37815711076E+02  0.11948385154E+03  0.41800000000E+01 0. -1.
         -5    1    1    2    0  502 -0.24811375237E+01  0.31725853089E+02  0.35915447940E+02  0.48167183832E+02  0.41800000000E+01 0. -1.
        -11    1    3    3    0    0 -0.45112925635E+02  0.86313566316E+02  0.16387441513E+03  0.19063061591E+03  0.00000000000E+00 0.  1.
         11    1    3    3    0    0  0.26052719561E+01 -0.14092803098E+02 -0.42971914345E+00  0.14338033327E+02  0.00000000000E+00 0. -1.
</event>
<event>
 7    1  0.5831876E-006  0.2168319E+03  0.7561462E-02  0.1136267E+00
          1   -1    0    0  501    0  0.00000000000E+00  0.00000000000E+00  0.49092868669E+03  0.49092868669E+03  0.00000000000E+00 0. -1.
         -1   -1    0    0    0  501 -0.00000000000E+00 -0.00000000000E+00 -0.11000843781E+03  0.11000843781E+03  0.00000000000E+00 0.  1.
         23    2    1    2    0    0  0.19506084308E+03 -0.17793289143E+02  0.10349622256E+03  0.23902788474E+03  0.89763734093E+02 0.  0.
          5    1    1    2  502    0 -0.21061715969E+03  0.32616002720E+01  0.24976227022E+03  0.32675509180E+03  0.41800000000E+01 0.  1.
         -5    1    1    2    0  502  0.15556316612E+02  0.14531688871E+02  0.27661756103E+02  0.35154147959E+02  0.41800000000E+01 0.  1.
        -11    1    3    3    0    0  0.52588929852E+02 -0.25824355706E+02 -0.63735730008E+01  0.58933142826E+02  0.00000000000E+00 0.  1.
         11    1    3    3    0    0  0.14247191322E+03  0.80310665627E+01  0.10986979556E+03  0.18009474191E+03  0.00000000000E+00 0. -1.
</event>
<event>
 7    1  0.5831876E-006  0.4862500E+03  0.7561462E-02  0.1017431E+00
         -1   -1    0    0    0  501 -0.00000000000E+00  0.00000000000E+00  0.50445524512E+03  0.50445524512E+03  0.00000000000E+00 0.  1.
          1   -1    0    0  501    0  0.00000000000E+00 -0.00000000000E+00 -0.10220927595E+04  0.10220927595E+04  0.00000000000E+00 0. -1.
         23    2    1    2    0    0 -0.43961277986E+03 -0.18027872966E+03  0.30251643858E+03  0.57048317772E+03  0.90415949211E+02 0.  0.
          5    1    1    2  502    0  0.27937459634E+03  0.48894897433E+02 -0.49338548013E+03  0.56911121978E+03  0.41800000000E+01 0. -1.
         -5    1    1    2    0  502  0.16023818352E+03  0.13138383222E+03 -0.32676847282E+03  0.38695360711E+03  0.41800000000E+01 0. -1.
        -11    1    3    3    0    0 -0.98870271936E+02 -0.77684531679E+02  0.10282901365E+03  0.16243159540E+03  0.00000000000E+00 0.  1.
         11    1    3    3    0    0 -0.34074250792E+03 -0.10259419798E+03  0.19968742493E+03  0.40805158233E+03  0.00000000000E+00 0. -1.
</event>
<event>
 7    1  0.5831876E-006  0.1017288E+03  0.7561462E-02  0.1276702E+00
         -4   -1    0    0    0  501 -0.00000000000E+00  0.00000000000E+00  0.57361419701E+02  0.57361419701E+02  0.00000000000E+00 0.  1.
          4   -1    0    0  501    0  0.00000000000E+00 -0.00000000000E+00 -0.23152800830E+03  0.23152800830E+03  0.00000000000E+00 0. -1.
         23    2    1    2    0    0  0.25767537439E+02 -0.18432219797E+02 -0.45143927258E+02  0.10641444335E+03  0.91007400102E+02 0.  0.
          5    1    1    2  502    0 -0.42707561310E+02  0.65614521728E+02 -0.72156477587E+02  0.10655154111E+03  0.41800000000E+01 0.  1.
         -5    1    1    2    0  502  0.16940023871E+02 -0.47182301931E+02 -0.56866183752E+02  0.75923443539E+02  0.41800000000E+01 0.  1.
        -11    1    3    3    0    0 -0.14381909626E+02 -0.29744500552E+02  0.12445624181E+02  0.35305356517E+02  0.00000000000E+00 0.  1.
         11    1    3    3    0    0  0.40149447065E+02  0.11312280754E+02 -0.57589551439E+02  0.71109086834E+02  0.00000000000E+00 0. -1.
</event>
<event>
 7    1  0.5831876E-006  0.1125410E+03  0.7561462E-02  0.1255935E+00
         -3   -1    0    0    0  501 -0.00000000000E+00  0.00000000000E+00  0.12059213870E+03  0.12059213870E+03  0.00000000000E+00 0.  1.
          3   -1    0    0  501    0  0.00000000000E+00 -0.00000000000E+00 -0.13339468797E+03  0.13339468797E+03  0.00000000000E+00 0. -1.
         23    2    1    2    0    0  0.30074697970E+02  0.26351704666E+02  0.14614108327E+02  0.11984704517E+03  0.11203054172E+03 0.  0.
          5    1    1    2  502    0 -0.19759462018E+02 -0.67332147637E+02  0.17381891977E+02  0.72413099735E+02  0.41800000000E+01 0.  1.
         -5    1    1    2    0  502 -0.10315235952E+02  0.40980442970E+02 -0.44798549573E+02  0.61726681772E+02  0.41800000000E+01 0.  1.
        -11    1    3    3    0    0 -0.30139323653E+02 -0.20138461493E+02  0.23587251938E+02  0.43246906427E+02  0.00000000000E+00 0.  1.
         11    1    3    3    0    0  0.60214021623E+02  0.46490166159E+02 -0.89731436109E+01  0.76600138745E+02  0.00000000000E+00 0. -1.
</event>
<event>
 7    1  0.5831876E-006  0.1180757E+03  0.7561462E-02  0.1246306E+00
          2   -1    0    0  501    0  0.00000000000E+00  0.00000000000E+00  0.21475088016E+03  0.21475088016E+03  0.00000000000E+00 0. -1.
         -2   -1    0    0    0  501 -0.00000000000E+00 -0.00000000000E+00 -0.18947593792E+03  0.18947593792E+03  0.00000000000E+00 0.  1.
         23    2    1    2    0    0 -0.23592335499E+02  0.89140831572E+02 -0.13437908631E+03  0.18704038551E+03  0.91780612484E+02 0.  0.
          5    1    1    2  502    0  0.66002904877E+02 -0.71144222213E+02  0.12983061026E+03  0.16214605628E+03  0.41800000000E+01 0. -1.
         -5    1    1    2    0  502 -0.42410569378E+02 -0.17996609359E+02  0.29823418298E+02  0.55040376292E+02  0.41800000000E+01 0.  1.
        -11    1    3    3    0    0 -0.12969272910E+02  0.30230912503E+02 -0.12141530063E+03  0.12579262831E+03  0.00000000000E+00 0.  1.
         11    1    3    3    0    0 -0.10623062590E+02  0.58909919069E+02 -0.12963785684E+02  0.61247757206E+02  0.00000000000E+00 0. -1.
</event>
<event>
 7    1  0.5831876E-006  0.1063934E+03  0.7561462E-02  0.1267398E+00
         -3   -1    0    0    0  501 -0.00000000000E+00  0.00000000000E+00  0.50773863268E+03  0.50773863268E+03  0.00000000000E+00 0.  1.
          3   -1    0    0  501    0  0.00000000000E+00 -0.00000000000E+00 -0.29474509741E+02  0.29474509741E+02  0.00000000000E+00 0. -1.
         23    2    1    2    0    0  0.11529206067E+02  0.11386868583E+02  0.33035882527E+03  0.34282547157E+03  0.90165221432E+02 0.  0.
          5    1    1    2  502    0  0.55598321957E+02 -0.13077618409E+02  0.52822640777E+02  0.77909571212E+02  0.41800000000E+01 0. -1.
         -5    1    1    2    0  502 -0.67127528024E+02  0.16907498258E+01  0.95082656891E+02  0.11647809964E+03  0.41800000000E+01 0. -1.
        -11    1    3    3    0    0  0.20508528315E+02  0.47123104935E+02  0.23592314708E+03  0.24145583049E+03  0.00000000000E+00 0. -1.
         11    1    3    3    0    0 -0.89793222482E+01 -0.35736236352E+02  0.94435678194E+02  0.10136964108E+03  0.00000000000E+00 0.  1.
</event>
<event>
 7    1  0.5831876E-006  0.8143775E+02  0.7561462E-02  0.1325020E+00
         -1   -1    0    0    0  501 -0.00000000000E+00  0.00000000000E+00  0.10903252703E+03  0.10903252703E+03  0.00000000000E+00 0.  1.
          1   -1    0    0  501    0  0.00000000000E+00 -0.00000000000E+00 -0.13850685410E+03  0.13850685410E+03  0.00000000000E+00 0. -1.
         23    2    1    2    0    0 -0.44263252590E+02  0.49185446778E+01  0.23216071156E+02  0.10469294387E+03  0.91859669742E+02 0.  0.
          5    1    1    2  502    0 -0.10624022975E+02 -0.36242605599E+02 -0.67811196176E+02  0.77731763466E+02  0.41800000000E+01 0. -1.
         -5    1    1    2    0  502  0.54887275565E+02  0.31324060921E+02  0.15120797955E+02  0.65114673787E+02  0.41800000000E+01 0. -1.
        -11    1    3    3    0    0 -0.24502913125E+02 -0.18645035685E+02  0.53375567923E+02  0.61619650749E+02  0.00000000000E+00 0.  1.
         11    1    3    3    0    0 -0.19760339465E+02  0.23563580363E+02 -0.30159496767E+02  0.43073293124E+02  0.00000000000E+00 0. -1.
</event>
<event>
 7    1  0.5831876E-006  0.1068551E+03  0.7561462E-02  0.1266507E+00
          1   -1    0    0  501    0  0.00000000000E+00  0.00000000000E+00  0.10696302790E+04  0.10696302790E+04  0.00000000000E+00 0. -1.
         -1   -1    0    0    0  501 -0.00000000000E+00 -0.00000000000E+00 -0.15549174607E+02  0.15549174607E+02  0.00000000000E+00 0.  1.
         23    2    1    2    0    0 -0.44393504807E+02 -0.52796197213E+02  0.41717634377E+03  0.43245264244E+03  0.90669534254E+02 0.  0.
          5    1    1    2  502    0  0.63562251879E+02  0.30974807502E+02  0.60594236545E+03  0.61006821029E+03  0.41800000000E+01 0. -1.
         -5    1    1    2    0  502 -0.19168747072E+02  0.21821389711E+02  0.30962395156E+02  0.42658600857E+02  0.41800000000E+01 0. -1.
        -11    1    3    3    0    0  0.27137966077E+02 -0.52451777013E+01  0.86902893686E+02  0.91192620441E+02  0.00000000000E+00 0. -1.
         11    1    3    3    0    0 -0.71531470884E+02 -0.47551019512E+02  0.33027345009E+03  0.34126002200E+03  0.00000000000E+00 0.  1.
</event>
<event>
 7    1  0.5831876E-006  0.1317540E+03  0.7561462E-02  0.1224876E+00
         -1   -1    0    0    0  501 -0.00000000000E+00  0.00000000000E+00  0.14893668936E+02  0.14893668936E+02  0.00000000000E+00 0.  1.
          1   -1    0    0  501    0  0.00000000000E+00 -0.00000000000E+00 -0.27314716425E+04  0.27314716425E+04  0.00000000000E+00 0. -1.
         23    2    1    2    0    0 -0.44330031736E+02  0.22718030223E+02 -0.22719910350E+03  0.25211152957E+03  0.97260115650E+02 0.  0.
          5    1    1    2  502    0  0.82806693223E+02 -0.59716523307E+02 -0.16840637104E+04  0.16871606517E+04  0.41800000000E+01 0. -1.
         -5    1    1    2    0  502 -0.38476661487E+02  0.36998493084E+02 -0.80531515969E+03  0.80709313018E+03  0.41800000000E+01 0.  1.
        -11    1    3    3    0    0 -0.72028164626E+02  0.31662542467E+02 -0.18290481077E+03  0.19910987644E+03  0.00000000000E+00 0.  1.
         11    1    3    3    0    0  0.27698132890E+02 -0.89445122434E+01 -0.44294292735E+02  0.53001653123E+02  0.00000000000E+00 0. -1.
</event>
<event>
 7    1  0.5831876E-006  0.1024265E+03  0.7561462E-02  0.1275275E+00
          2   -1    0    0  501    0  0.00000000000E+00  0.00000000000E+00  0.86120508258E+03  0.86120508258E+03  0.00000000000E+00 0. -1.
         -2   -1    0    0    0  501 -0.00000000000E+00 -0.00000000000E+00 -0.23648668976E+02  0.23648668976E+02  0.00000000000E+00 0.  1.
         23    2    1    2    0    0 -0.86628263582E+02  0.25448791948E+02  0.40631969251E+03  0.42685271321E+03  0.94633235114E+02 0.  0.
          5    1    1    2  502    0  0.16593631424E+02 -0.94265998547E+01 -0.12414946777E+01  0.19576084841E+02  0.41800000000E+01 0.  1.
         -5    1    1    2    0  502  0.70034632158E+02 -0.16022192093E+02  0.43247821577E+03  0.43842495350E+03  0.41800000000E+01 0.  1.
        -11    1    3    3    0    0 -0.56199707011E+01  0.31612724109E+02  0.38328854128E+02  0.50000494548E+02  0.00000000000E+00 0.  1.
         11    1    3    3    0    0 -0.81008292881E+02 -0.61639321618E+01  0.36799083838E+03  0.37685221866E+03  0.00000000000E+00 0. -1.
</event>
<event>
 7    1  0.5831876E-006  0.1932200E+03  0.7561462E-02  0.1155589E+00
         -2   -1    0    0    0  501 -0.00000000000E+00  0.00000000000E+00  0.72677439824E+02  0.72677439824E+02  0.00000000000E+00 0. -1.
          2   -1    0    0  501    0  0.00000000000E+00 -0.00000000000E+00 -0.51730266056E+03  0.51730266056E+03  0.00000000000E+00 0.  1.
         23    2    1    2    0    0 -0.11814593460E+03 -0.10830219172E+03 -0.20428745270E+03  0.27518328976E+03  0.91129869069E+02 0.  0.
          5    1    1    2  502    0  0.77310346354E+02 -0.99045795536E+01 -0.87013324595E+02  0.11689217855E+03  0.41800000000E+01 0.  1.
         -5    1    1    2    0  502  0.40835588244E+02  0.11820677127E+03 -0.15332444344E+03  0.19790463207E+03  0.41800000000E+01 0.  1.
        -11    1    3    3    0    0 -0.64788082939E+02 -0.25906231913E+01 -0.87106861379E+02  0.10859011151E+03  0.00000000000E+00 0. -1.
         11    1    3    3    0    0 -0.53357851660E+02 -0.10571156852E+03 -0.11718059132E+03  0.16659317824E+03  0.00000000000E+00 0.  1.
</event>
<event>
 7    1  0.5831876E-006  0.2123120E+03  0.7561462E-02  0.1139748E+00
          2   -1    0    0  501    0  0.00000000000E+00  0.00000000000E+00  0.17842513887E+04  0.17842513887E+04  0.00000000000E+00 0. -1.
         -2   -1    0    0    0  501 -0.00000000000E+00 -0.00000000000E+00 -0.42259062017E+02  0.42259062017E+02  0.00000000000E+00 0.  1.
         23    2    1    2    0    0 -0.83091505693E+02 -0.10846310038E+03  0.23007415336E+03  0.28252940520E+03  0.90665904839E+02 0.  0.
          5    1    1    2  502    0 -0.73322456976E+02  0.31760964037E+01  0.91569666972E+03  0.91864254943E+03  0.41800000000E+01 0. -1.
         -5    1    1    2    0  502  0.15641396267E+03  0.10528700397E+03  0.59622150360E+03  0.62533849608E+03  0.41800000000E+01 0.  1.
        -11    1    3    3    0    0 -0.55578560538E+02 -0.53930348713E+01  0.61810646944E+02  0.83298363083E+02  0.00000000000E+00 0. -1.
         11    1    3    3    0    0 -0.27512945155E+02 -0.10307006550E+03  0.16826350641E+03  0.19923104212E+03  0.00000000000E+00 0.  1.
</event>
<event>
 7    1  0.5831876E-006  0.7659823E+02  0.7561462E-02  0.1338992E+00
          1   -1    0    0  501    0  0.00000000000E+00  0.00000000000E+00  0.33045347641E+03  0.33045347641E+03  0.00000000000E+00 0. -1.
         -1   -1    0    0    0  501 -0.00000000000E+00 -0.00000000000E+00 -0.40972838218E+02  0.40972838218E+02  0.00000000000E+00 0.  1.
         23    2    1    2    0    0  0.28078698104E+02  0.12724322982E+02  0.95717246613E+02  0.13874226703E+03  0.95589244582E+02 0.  0.
          5    1    1    2  502    0 -0.53106993990E+02 -0.26342043926E+02  0.19500474092E+03  0.20385920993E+03  0.41800000000E+01 0. -1.
         -5    1    1    2    0  502  0.25028295885E+02  0.13617720944E+02 -0.12413493410E+01  0.28824837672E+02  0.41800000000E+01 0. -1.
        -11    1    3    3    0    0 -0.16064425640E+02  0.13250035419E+02 -0.10786490248E+02  0.23451600833E+02  0.00000000000E+00 0.  1.
         11    1    3    3    0    0  0.44143123744E+02 -0.52571243771E+00  0.10650373686E+03  0.11529066620E+03  0.00000000000E+00 0. -1.
</event>
<event>
 7    1  0.5831876E-006  0.1940310E+03  0.7561462E-02  0.1154875E+00
          1   -1    0    0  501    0  0.00000000000E+00  0.00000000000E+00  0.62815648816E+03  0.62815648816E+03  0.00000000000E+00 0. -1.
         -1   -1    0    0    0  501 -0.00000000000E+00 -0.00000000000E+00 -0.62096706778E+02  0.62096706778E+02  0.00000000000E+00 0.  1.
         23    2    1    2    0    0  0.14354393863E+03  0.71907209312E+02  0.21028804203E+03  0.28038345258E+03  0.92834857611E+02 0.  0.
          5    1    1    2  502    0  0.15808889187E+02 -0.35542981797E+02  0.84813372855E+02  0.93402382985E+02  0.41800000000E+01 0.  1.
         -5    1    1    2    0  502 -0.15935282782E+03 -0.36364227515E+02  0.27095836649E+03  0.31646735937E+03  0.41800000000E+01 0.  1.
        -11    1    3    3    0    0  0.25570960272E+02  0.61976940967E+02  0.74026460242E+02  0.99874581535E+02  0.00000000000E+00 0. -1.
         11    1    3    3    0    0  0.11797297836E+03  0.99302683453E+01  0.13626158179E+03  0.18050887104E+03  0.00000000000E+00 0.  1.
</event>
<event>
 7    1  0.5831876E-006  0.1359470E+03  0.7561462E-02  0.1218889E+00
         -1   -1    0    0    0  501 -0.00000000000E+00  0.00000000000E+00  0.93254841808E+02  0.93254841808E+02  0.00000000000E+00 0.  1.
          1   -1    0    0  501    0  0.00000000000E+00 -0.00000000000E+00 -0.25188894287E+03  0.25188894287E+03  0.00000000000E+00 0. -1.
         23    2    1    2    0    0  0.98677469918E+02  0.28868487784E+02 -0.36564637920E+02  0.14236548669E+03  0.91434820485E+02 0.  0.
          5    1    1    2  502    0  0.48219837357E+01  0.19336470724E+02 -0.77518599367E+02  0.80148339191E+02  0.41800000000E+01 0.  1.
         -5    1    1    2    0  502 -0.10349945365E+03 -0.48204958507E+02 -0.44550863771E+02  0.12262995880E+03  0.41800000000E+01 0.  1.
        -11    1    3    3    0    0  0.47896299737E+02  0.60720044774E+02 -0.15856125864E+02  0.78945526113E+02  0.00000000000E+00 0.  1.
         11    1    3    3    0    0  0.50781170181E+02 -0.31851556990E+02 -0.20708512056E+02  0.63419960575E+02  0.00000000000E+00 0. -1.
</event>
<event>
 7    1  0.5831876E-006  0.7914918E+02  0.7561462E-02  0.1331483E+00
         -1   -1    0    0    0  501 -0.00000000000E+00  0.00000000000E+00  0.20617041026E+03  0.20617041026E+03  0.00000000000E+00 0.  1.
          1   -1    0    0  501    0  0.00000000000E+00 -0.00000000000E+00 -0.21610473348E+03  0.21610473348E+03  0.00000000000E+00 0. -1.
         23    2    1    2    0    0 -0.20617742014E+02  0.18861646746E+02  0.15961851992E+03  0.18542958133E+03  0.90139917505E+02 0.  0.
          5    1    1    2  502    0 -0.34096118517E+02  0.16822912666E+01 -0.17467547199E+03  0.17802912210E+03  0.41800000000E+01 0. -1.
         -5    1    1    2    0  502  0.54713860531E+02 -0.20543938012E+02  0.51226288449E+01  0.58816440300E+02  0.41800000000E+01 0.  1.
        -11    1    3    3    0    0 -0.10426179624E+02 -0.21387473730E+02  0.37021934744E+01  0.24079773476E+02  0.00000000000E+00 0. -1.
         11    1    3    3    0    0 -0.10191562391E+02  0.40249120476E+02  0.15591632645E+03  0.16134980786E+03  0.00000000000E+00 0.  1.
</event>
<event>
 7    1  0.5831876E-006  0.1258356E+03  0.7561462E-02  0.1233769E+00
         -2   -1    0    0    0  501 -0.00000000000E+00  0.00000000000E+00  0.57017702161E+03  0.57017702161E+03  0.00000000000E+00 0.  1.
          2   -1    0    0  501    0  0.00000000000E+00 -0.00000000000E+00 -0.35869008311E+02  0.35869008311E+02  0.00000000000E+00 0. -1.
         23    2    1    2    0    0  0.55886721699E+02 -0.69485091417E+02  0.29846712881E+03  0.32458476108E+03  0.91220263942E+02 0.  0.
          5    1    1    2  502    0 -0.10087678683E+02  0.78255695341E+02  0.59227076256E+02  0.98747324401E+02  0.41800000000E+01 0. -1.
         -5    1    1    2    0  502 -0.45799043015E+02 -0.87706039236E+01  0.17661380824E+03  0.18271394444E+03  0.41800000000E+01 0. -1.
        -11    1    3    3    0    0  0.24907410073E+02  0.19489069838E+02  0.10018340551E+03  0.10505673543E+03  0.00000000000E+00 0. -1.
         11    1    3    3    0    0  0.30979311626E+02 -0.88974161255E+02  0.19828372330E+03  0.21952802565E+03  0.00000000000E+00 0.  1.
</event>
<event>
 7    1  0.5831876E-006  0.1336846E+03  0.7561462E-02  0.1222089E+00
          2   -1    0    0  501    0  0.00000000000E+00  0.00000000000E+00  0.44168940681E+03  0.44168940681E+03  0.00000000000E+00 0. -1.
         -2   -1    0    0    0  501 -0.00000000000E+00 -0.00000000000E+00 -0.40806099981E+02  0.40806099981E+02  0.00000000000E+00 0.  1.
         23    2    1    2    0    0  0.64942514238E+01  0.80812110620E+02  0.19375385376E+03  0.22730401009E+03  0.86912511356E+02 0.  0.
          5    1    1    2  502    0 -0.97782004720E+01  0.33228597718E+02  0.49788794813E+02  0.60795965324E+02  0.41800000000E+01 0. -1.
         -5    1    1    2    0  502  0.32839490482E+01 -0.11404070834E+03  0.15734065825E+03  0.19439553138E+03  0.41800000000E+01 0. -1.
        -11    1    3    3    0    0 -0.39591558318E+02  0.45102571661E+02  0.87454582288E+02  0.10606619359E+03  0.00000000000E+00 0.  1.
         11    1    3    3    0    0  0.46085809742E+02  0.35709538959E+02  0.10629927148E+03  0.12123781650E+03  0.00000000000E+00 0. -1.
</event>
<event>
 7    1  0.5831876E-006  0.9705801E+02  0.7561462E-02  0.1286607E+00
         -1   -1    0    0    0  501 -0.00000000000E+00  0.00000000000E+00  0.20642724750E+03  0.20642724750E+03  0.00000000000E+00 0.  1.
          1   -1    0    0  501    0  0.00000000000E+00 -0.00000000000E+00 -0.28813282249E+03  0.28813282249E+03  0.00000000000E+00 0. -1.
         23    2    1    2    0    0  0.33677361310E+02  0.30396316551E+02  0.17673276635E+03  0.20387892824E+03  0.90961782940E+02 0.  0.
          5    1    1    2  502    0 -0.14703012574E+02  0.32859324983E+02 -0.16433596113E+02  0.39792578432E+02  0.41800000000E+01 0.  1.
         -5    1    1    2    0  502 -0.18974348735E+02 -0.63255641533E+02 -0.24200474522E+03  0.25088856332E+03  0.41800000000E+01 0.  1.
        -11    1    3    3    0    0  0.59953782579E+02  0.17647211300E+02  0.15602573770E+03  0.16807709819E+03  0.00000000000E+00 0.  1.
         11    1    3    3    0    0 -0.26276421270E+02  0.12749105251E+02  0.20707028648E+02  0.35801830049E+02  0.00000000000E+00 0. -1.
</event>
<event>
 7    1  0.5831876E-006  0.1634323E+03  0.7561462E-02  0.1184875E+00
          1   -1    0    0  501    0  0.00000000000E+00  0.00000000000E+00  0.38494826627E+02  0.38494826627E+02  0.00000000000E+00 0. -1.
         -1   -1    0    0    0  501 -0.00000000000E+00 -0.00000000000E+00 -0.74191470879E+03  0.74191470879E+03  0.00000000000E+00 0.  1.
         23    2    1    2    0    0  0.91871372533E+02  0.85864263024E+02 -0.40058319582E+03  0.42945235846E+03  0.90274086295E+02 0.  0.
          5    1    1    2  502    0  0.23360048999E+02 -0.50457500178E+02 -0.79109930080E+02  0.96785870099E+02  0.41800000000E+01 0.  1.
         -5    1    1    2    0  502 -0.11523142153E+03 -0.35406762845E+02 -0.22372675626E+03  0.25417130686E+03  0.41800000000E+01 0.  1.
        -11    1    3    3    0    0  0.53537081047E+02 -0.30853369362E+01 -0.19424740460E+03  0.20151375274E+03  0.00000000000E+00 0.  1.
         11    1    3    3    0    0  0.38334291486E+02  0.88949599960E+02 -0.20633579122E+03  0.22793860572E+03  0.00000000000E+00 0. -1.
</event>
<event>
 7    1  0.5831876E-006  0.1115255E+03  0.7561462E-02  0.1257771E+00
         -2   -1    0    0    0  501 -0.00000000000E+00  0.00000000000E+00  0.36210218581E+02  0.36210218581E+02  0.00000000000E+00 0.  1.
          2   -1    0    0  501    0  0.00000000000E+00 -0.00000000000E+00 -0.55658384724E+03  0.55658384724E+03  0.00000000000E+00 0. -1.
         23    2    1    2    0    0 -0.32343420803E+02 -0.50751129927E+02 -0.95332754729E+02  0.14566007291E+03  0.92232037052E+02 0.  0.
          5    1    1    2  502    0 -0.29105152291E+02 -0.24731174652E+02 -0.16576141323E+03  0.17015598551E+03  0.41800000000E+01 0. -1.
         -5    1    1    2    0  502  0.61448573094E+02  0.75482304579E+02 -0.25927946070E+03  0.27697800740E+03  0.41800000000E+01 0. -1.
        -11    1    3    3    0    0 -0.42723402671E+02 -0.83207307597E+01 -0.92090086544E+02  0.10185827279E+03  0.00000000000E+00 0. -1.
         11    1    3    3    0    0  0.10379981868E+02 -0.42430399167E+02 -0.32426681856E+01  0.43801800123E+02  0.00000000000E+00 0.  1.
</event>
<event>
 7    1  0.5831876E-006  0.8836482E+02  0.7561462E-02  0.1306861E+00
         -1   -1    0    0    0  501 -0.00000000000E+00  0.00000000000E+00  0.27229304641E+02  0.27229304641E+02  0.00000000000E+00 0.  1.
          1   -1    0    0  501    0  0.00000000000E+00 -0.00000000000E+00 -0.52372275941E+03  0.52372275941E+03  0.00000000000E+00 0. -1.
         23    2    1    2    0    0  0.81511616809E+01  0.10524727463E+01 -0.10744730951E+03  0.14220429354E+03  0.92787863662E+02 0.  0.
          5    1    1    2  502    0 -0.48716339330E+02  0.59420828497E+01 -0.62427640295E+02  0.79519008666E+02  0.41800000000E+01 0.  1.
         -5    1    1    2    0  502  0.40565177649E+02 -0.69945555960E+01 -0.32661850496E+03  0.32922876185E+03  0.41800000000E+01 0.  1.
        -11    1    3    3    0    0  0.37475106020E+02 -0.26471314756E+02 -0.83831037712E+02  0.95565459032E+02  0.00000000000E+00 0. -1.
         11    1    3    3    0    0 -0.29323944339E+02  0.27523787503E+02 -0.23616271801E+02  0.46638834504E+02  0.00000000000E+00 0.  1.
</event>
<event>
 7    1  0.5831876E-006  0.3520666E+03  0.7561462E-02  0.1061770E+00
          1   -1    0    0  501    0  0.00000000000E+00  0.00000000000E+00  0.11753420349E+03  0.11753420349E+03  0.00000000000E+00 0. -1.
         -1   -1    0    0    0  501 -0.00000000000E+00 -0.00000000000E+00 -0.11560782933E+04  0.11560782933E+04  0.00000000000E+00 0.  1.
         23    2    1    2    0    0 -0.26263066812E+03  0.23405803952E+03 -0.48497358776E+03  0.60589570008E+03  0.90289450440E+02 0.  0.
          5    1    1    2  502    0  0.12037200288E+03 -0.10909111811E+03 -0.36927890999E+03  0.40345343832E+03  0.41800000000E+01 0. -1.
         -5    1    1    2    0  502  0.14225866524E+03 -0.12496692141E+03 -0.18429159205E+03  0.26426335838E+03  0.41800000000E+01 0. -1.
        -11    1    3    3    0    0 -0.27025029890E+02  0.31661702116E+02 -0.11796785111E+03  0.12509688053E+03  0.00000000000E+00 0.  1.
         11    1    3    3    0    0 -0.23560563823E+03  0.20239633740E+03 -0.36700573664E+03  0.48079881956E+03  0.00000000000E+00 0. -1.
</event>
<event>
 7    1  0.5831876E-006  0.2024347E+03  0.7561462E-02  0.1147701E+00
          1   -1    0    0  501    0  0.00000000000E+00  0.00000000000E+00  0.22333806126E+04  0.22333806126E+04  0.00000000000E+00 0. -1.
         -1   -1    0    0    0  501 -0.00000000000E+00 -0.00000000000E+00 -0.24797592623E+02  0.24797592623E+02  0.00000000000E+00 0.  1.
         23    2    1    2    0    0 -0.11668958906E+02  0.18253877778E+03  0.58732080576E+03  0.62184246864E+03  0.91026133224E+02 0.  0.
          5    1    1    2  502    0 -0.35011665102E+02 -0.16921010542E+03  0.12550131822E+04  0.12668596751E+04  0.41800000000E+01 0. -1.
         -5    1    1    2    0  502  0.46680624008E+02 -0.13328672359E+02  0.36624903202E+03  0.36947606150E+03  0.41800000000E+01 0. -1.
        -11    1    3    3    0    0 -0.11773853266E+02  0.90838014803E+02  0.15619343137E+03  0.18107058446E+03  0.00000000000E+00 0.  1.
         11    1    3    3    0    0  0.10489436014E+00  0.91700762975E+02  0.43112737439E+03  0.44077188418E+03  0.00000000000E+00 0. -1.
</event>
<event>
 7    1  0.5831876E-006  0.2382185E+03  0.7561462E-02  0.1120985E+00
         -1   -1    0    0    0  501 -0.00000000000E+00  0.00000000000E+00  0.49209541209E+02  0.49209541209E+02  0.00000000000E+00 0.  1.
          1   -1    0    0  501    0  0.00000000000E+00 -0.00000000000E+00 -0.13229366668E+04  0.13229366668E+04  0.00000000000E+00 0. -1.
         23    2    1    2    0    0  0.15991536550E+03 -0.14910286839E+03 -0.45904947479E+03  0.51941345964E+03  0.10611000080E+03 0.  0.
          5    1    1    2  502    0 -0.16285063992E+03  0.78839924838E+02 -0.60918266005E+03  0.63549748259E+03  0.41800000000E+01 0.  1.
         -5    1    1    2    0  502  0.29352744230E+01  0.70262943550E+02 -0.20549499071E+03  0.21723526573E+03  0.41800000000E+01 0.  1.
        -11    1    3    3    0    0  0.13323371429E+03 -0.91795821101E+02 -0.40542979183E+03  0.43652149030E+03  0.00000000000E+00 0. -1.
         11    1    3    3    0    0  0.26681651212E+02 -0.57307047287E+02 -0.53619682956E+02  0.82891969336E+02  0.00000000000E+00 0.  1.
</event>
<event>
 7    1  0.5831876E-006  0.1031646E+03  0.7561462E-02  0.1273778E+00
          2   -1    0    0  501    0  0.00000000000E+00  0.00000000000E+00  0.15115863780E+03  0.15115863780E+03  0.00000000000E+00 0. -1.
         -2   -1    0    0    0  501 -0.00000000000E+00 -0.00000000000E+00 -0.93904124302E+02  0.93904124302E+02  0.00000000000E+00 0.  1.
         23    2    1    2    0    0 -0.37585204460E+01  0.49093132857E+02  0.27216097126E+02  0.10731867621E+03  0.91391028833E+02 0.  0.
          5    1    1    2  502    0 -0.71116569349E+01 -0.76867329623E+02  0.58000804048E+02  0.96647440203E+02  0.41800000000E+01 0. -1.
         -5    1    1    2    0  502  0.10870177381E+02  0.27774196766E+02 -0.27962387675E+02  0.41096645688E+02  0.41800000000E+01 0. -1.
        -11    1    3    3    0    0 -0.89756622900E+01  0.73448867003E+02  0.53739577179E+01  0.74190147588E+02  0.00000000000E+00 0.  1.
         11    1    3    3    0    0  0.52171418440E+01 -0.24355734146E+02  0.21842139408E+02  0.33128528623E+02  0.00000000000E+00 0. -1.
</event>
<event>
 7    1  0.5831876E-006  0.1269640E+03  0.7561462E-02  0.1232031E+00
          1   -1    0    0  501    0  0.00000000000E+00  0.00000000000E+00  0.31703925364E+03  0.31703925364E+03  0.00000000000E+00 0. -1.
         -1   -1    0    0    0  501 -0.00000000000E+00 -0.00000000000E+00 -0.75519238357E+02  0.75519238357E+02  0.00000000000E+00 0.  1.
         23    2    1    2    0    0 -0.53986466552E+02  0.91138144071E+02  0.83633904322E+02  0.16498999945E+03  0.94901897186E+02 0.  0.
          5    1    1    2  502    0  0.51300270774E+02 -0.96794405684E+02  0.51860575686E+02  0.12127599294E+03  0.41800000000E+01 0.  1.
         -5    1    1    2    0  502  0.26861957778E+01  0.56562616121E+01  0.10602553528E+03  0.10629249961E+03  0.41800000000E+01 0.  1.
        -11    1    3    3    0    0  0.23978786784E+02  0.23018689659E+02  0.41605233013E+02  0.53252584006E+02  0.00000000000E+00 0.  1.
         11    1    3    3    0    0 -0.77965253336E+02  0.68119454413E+02  0.42028671309E+02  0.11173741544E+03  0.00000000000E+00 0. -1.
</event>
<event>
 7    1  0.5831876E-006  0.1209549E+03  0.7561462E-02  0.1241530E+00
          2   -1    0    0  501    0  0.00000000000E+00  0.00000000000E+00  0.55648244096E+03  0.55648244096E+03  0.00000000000E+00 0. -1.
         -2   -1    0    0    0  501 -0.00000000000E+00 -0.00000000000E+00 -0.39240257977E+02  0.39240257977E+02  0.00000000000E+00 0.  1.
         23    2    1    2    0    0  0.75652031251E+02 -0.28056536286E+02  0.14909750790E+03  0.19862233935E+03  0.10349090669E+03 0.  0.
          5    1    1    2  502    0 -0.33037413805E+02  0.76578555982E+02  0.18901205432E+03  0.20663681914E+03  0.41800000000E+01 0. -1.
         -5    1    1    2    0  502 -0.42614617446E+02 -0.48522019696E+02  0.17913262076E+03  0.19046354044E+03  0.41800000000E+01 0. -1.
        -11    1    3    3    0    0  0.18163149244E+02  0.13604314209E+02 -0.96976621409E+01  0.24678371229E+02  0.00000000000E+00 0.  1.
         11    1    3    3    0    0  0.57488882008E+02 -0.41660850495E+02  0.15879517004E+03  0.17394396812E+03  0.00000000000E+00 0. -1.
</event>
<event>
 7    1  0.5831876E-006  0.1707102E+03  0.7561462E-02  0.1177109E+00
         -1   -1    0    0    0  501 -0.00000000000E+00  0.00000000000E+00  0.24480759066E+02  0.24480759066E+02  0.00000000000E+00 0.  1.
          1   -1    0    0  501    0  0.00000000000E+00 -0.00000000000E+00 -0.19440774197E+04  0.19440774197E+04  0.00000000000E+00 0. -1.
         23    2    1    2    0    0 -0.10278356899E+03  0.12375221075E+03 -0.48199326781E+03  0.51658339332E+03  0.93068900925E+02 0.  0.
          5    1    1    2  502    0  0.71916381546E+02 -0.26684492331E+02 -0.98693261103E+03  0.98991791537E+03  0.41800000000E+01 0.  1.
         -5    1    1    2    0  502  0.30867187439E+02 -0.97067718417E+02 -0.45067078182E+03  0.46205687010E+03  0.41800000000E+01 0.  1.
        -11    1    3    3    0    0 -0.10569423352E+02  0.27015186206E+02 -0.18977475598E+02  0.34665221416E+02  0.00000000000E+00 0.  1.
         11    1    3    3    0    0 -0.92214145633E+02  0.96737024542E+02 -0.46301579221E+03  0.48191817190E+03  0.00000000000E+00 0. -1.
</event>
<event>
 7    1  0.5831876E-006  0.9863887E+02  0.7561462E-02  0.1283185E+00
          2   -1    0    0  501    0  0.00000000000E+00  0.00000000000E+00  0.39970649809E+03  0.39970649809E+03  0.00000000000E+00 0. -1.
         -2   -1    0    0    0  501 -0.00000000000E+00 -0.00000000000E+00 -0.26956370262E+03  0.26956370262E+03  0.00000000000E+00 0.  1.
         23    2    1    2    0    0 -0.39187327955E+02 -0.39681377769E+01 -0.25134002943E+03  0.27020704829E+03  0.91042000008E+02 0.  0.
          5    1    1    2  502    0  0.77318835343E+01 -0.41723349934E+02  0.28093479031E+03  0.28415215776E+03  0.41800000000E+01 0. -1.
         -5    1    1    2    0  502  0.31455444421E+02  0.45691487711E+02  0.10054803459E+03  0.11491099465E+03  0.41800000000E+01 0.  1.
        -11    1    3    3    0    0  0.11960431235E+01 -0.42899319891E+02 -0.10077355683E+03  0.10953123719E+03  0.00000000000E+00 0. -1.
         11    1    3    3    0    0 -0.40383371078E+02  0.38931182114E+02 -0.15056647260E+03  0.16067581110E+03  0.00000000000E+00 0.  1.
</event>
<event>
 7    1  0.5831876E-006  0.1563636E+03  0.7561462E-02  0.1192864E+00
         -2   -1    0    0    0  501 -0.00000000000E+00  0.00000000000E+00  0.62566172944E+02  0.62566172944E+02  0.00000000000E+00 0.  1.
          2   -1    0    0  501    0  0.00000000000E+00 -0.00000000000E+00 -0.49560685337E+03  0.49560685337E+03  0.00000000000E+00 0. -1.
         23    2    1    2    0    0  0.13164003724E+03  0.32256929747E+02 -0.15500018458E+03  0.22452126662E+03  0.89527275295E+02 0.  0.
          5    1    1    2  502    0 -0.23191616491E+02 -0.43994933005E+02 -0.18045772013E+03  0.18723211893E+03  0.41800000000E+01 0. -1.
         -5    1    1    2    0  502 -0.10844842075E+03  0.11738003258E+02 -0.97582775712E+02  0.14641964076E+03  0.41800000000E+01 0. -1.
        -11    1    3    3    0    0  0.61049476327E+02  0.52177774890E+02 -0.44272991559E+02  0.91704179479E+02  0.00000000000E+00 0.  1.
         11    1    3    3    0    0  0.70590560917E+02 -0.19920845143E+02 -0.11072719302E+03  0.13281708714E+03  0.00000000000E+00 0. -1.
</event>
<event>
 7    1  0.5831876E-006  0.1431483E+03  0.7561462E-02  0.1209154E+00
          1   -1    0    0  501    0  0.00000000000E+00  0.00000000000E+00  0.21766965030E+03  0.21766965030E+03  0.00000000000E+00 0. -1.
         -1   -1    0    0    0  501 -0.00000000000E+00 -0.00000000000E+00 -0.12900355948E+03  0.12900355948E+03  0.00000000000E+00 0.  1.
         23    2    1    2    0    0 -0.11882308185E+03 -0.27438198712E+01  0.20888164363E+01  0.15363187702E+03  0.97323877620E+02 0.  0.
          5    1    1    2  502    0  0.13700294657E+03 -0.17257951078E+02  0.49035868335E+02  0.14659342764E+03  0.41800000000E+01 0. -1.
         -5    1    1    2    0  502 -0.18179864728E+02  0.20001770949E+02  0.37541406046E+02  0.46447905125E+02  0.41800000000E+01 0. -1.
        -11    1    3    3    0    0 -0.26720150398E+02  0.84311875867E+01 -0.42334407419E+02  0.50766656507E+02  0.00000000000E+00 0.  1.
         11    1    3    3    0    0 -0.92102931447E+02 -0.11175007458E+02  0.44423223855E+02  0.10286522051E+03  0.00000000000E+00 0. -1.
</event>
<event>
 7    1  0.5831876E-006  0.1385262E+03  0.7561462E-02  0.1215326E+00
         -2   -1    0    0    0  501 -0.00000000000E+00  0.00000000000E+00  0.44548296374E+02  0.44548296374E+02  0.00000000000E+00 0.  1.
          2   -1    0    0  501    0  0.00000000000E+00 -0.00000000000E+00 -0.66277964645E+03  0.66277964645E+03  0.00000000000E+00 0. -1.
         23    2    1    2    0    0  0.85477317381E+02 -0.85583019719E+02 -0.19958979778E+03  0.25094107957E+03  0.92219916430E+02 0.  0.
          5    1    1    2  502    0 -0.71485859682E+02  0.40617551976E+02 -0.39507550986E+03  0.40356182247E+03  0.41800000000E+01 0. -1.
         -5    1    1    2    0  502 -0.13991457699E+02  0.44965467744E+02 -0.23566042437E+02  0.52825040787E+02  0.41800000000E+01 0.  1.
        -11    1    3    3    0    0  0.74143507784E+02 -0.10285409636E+03 -0.14523867073E+03  0.19279651542E+03  0.00000000000E+00 0.  1.
         11    1    3    3    0    0  0.11333809597E+02  0.17271076636E+02 -0.54351127049E+02  0.58144564146E+02  0.00000000000E+00 0. -1.
</event>
<event>
 7    1  0.5831876E-006  0.7531655E+02  0.7561462E-02  0.1342894E+00
         -1   -1    0    0    0  501 -0.00000000000E+00  0.00000000000E+00  0.23315689809E+03  0.23315689809E+03  0.00000000000E+00 0.  1.
          1   -1    0    0  501    0  0.00000000000E+00 -0.00000000000E+00 -0.12228750224E+03  0.12228750224E+03  0.00000000000E+00 0. -1.
         23    2    1    2    0    0 -0.13122248548E+02  0.56683607666E+01  0.18892809917E+03  0.20896821407E+03  0.88145130979E+02 0.  0.
          5    1    1    2  502    0  0.10947856170E+02 -0.43121209440E+02  0.14123914385E+02  0.46864182654E+02  0.41800000000E+01 0. -1.
         -5    1    1    2    0  502  0.21743923782E+01  0.37452848673E+02 -0.92182617703E+02  0.99612003606E+02  0.41800000000E+01 0.  1.
        -11    1    3    3    0    0 -0.57712614222E+01 -0.30627783750E+02  0.15702514820E+03  0.16008830614E+03  0.00000000000E+00 0.  1.
         11    1    3    3    0    0 -0.73509871256E+01  0.36296144517E+02  0.31902950967E+02  0.48879907926E+02  0.00000000000E+00 0. -1.
</event>
<event>
 7    1  0.5831876E-006  0.1251335E+03  0.7561462E-02  0.1234861E+00
          2   -1    0    0  501    0  0.00000000000E+00  0.00000000000E+00  0.36639839240E+03  0.36639839240E+03  0.00000000000E+00 0. -1.
         -2   -1    0    0    0  501 -0.00000000000E+00 -0.00000000000E+00 -0.56118895861E+02  0.56118895861E+02  0.00000000000E+00 0.  1.
         23    2    1    2    0    0 -0.15240920355E+02 -0.33781628449E+02  0.69755228309E+02  0.12131517235E+03  0.92076571890E+02 0.  0.
          5    1    1    2  502    0  0.88482693363E+02  0.34654326643E+02  0.78451944180E+02  0.12329756415E+03  0.41800000000E+01 0. -1.
         -5    1    1    2    0  502 -0.73241773008E+02 -0.87269819375E+00  0.16207232405E+03  0.17790455176E+03  0.41800000000E+01 0.  1.
        -11    1    3    3    0    0 -0.35495474702E+02  0.70629122622E+01 -0.20609512692E+01  0.36249978953E+02  0.00000000000E+00 0.  1.
         11    1    3    3    0    0  0.20254554347E+02 -0.40844540712E+02  0.71816179578E+02  0.85065193393E+02  0.00000000000E+00 0. -1.
</event>
<event>
 7    1  0.5831876E-006  0.1555214E+03  0.7561462E-02  0.1193848E+00
          1   -1    0    0  501    0  0.00000000000E+00  0.00000000000E+00  0.17887162261E+04  0.17887162261E+04  0.00000000000E+00 0. -1.
         -1   -1    0    0    0  501 -0.00000000000E+00 -0.00000000000E+00 -0.34093828529E+02  0.34093828529E+02  0.00000000000E+00 0.  1.
         23    2    1    2    0    0  0.25351130511E+02 -0.31625307989E+01  0.62265006808E+02  0.11234272070E+03  0.89951511394E+02 0.  0.
          5    1    1    2  502    0 -0.13066262428E+03  0.68754794268E+00  0.66598195798E+03  0.67869185560E+03  0.41800000000E+01 0. -1.
         -5    1    1    2    0  502  0.10531149377E+03  0.24749828563E+01  0.10263754328E+04  0.10317754783E+04  0.41800000000E+01 0.  1.
        -11    1    3    3    0    0 -0.24728152205E+02 -0.17238630649E+01  0.56765661847E+02  0.61941856448E+02  0.00000000000E+00 0. -1.
         11    1    3    3    0    0  0.50079282717E+02 -0.14386677341E+01  0.54993449615E+01  0.50400864251E+02  0.00000000000E+00 0.  1.
</event>
<event>
 7    1  0.5831876E-006  0.1643016E+03  0.7561462E-02  0.1183924E+00
          2   -1    0    0  501    0  0.00000000000E+00  0.00000000000E+00  0.37667264294E+03  0.37667264294E+03  0.00000000000E+00 0. -1.
         -2   -1    0    0    0  501 -0.00000000000E+00 -0.00000000000E+00 -0.89524989352E+02  0.89524989352E+02  0.00000000000E+00 0.  1.
         23    2    1    2    0    0 -0.16044165829E+02  0.13444648685E+03  0.64205360036E+02  0.17691595890E+03  0.94040710189E+02 0.  0.
          5    1    1    2  502    0  0.18501100257E+02  0.21269964250E+02  0.36896373541E+02  0.46620991736E+02  0.41800000000E+01 0. -1.
         -5    1    1    2    0  502 -0.24569344274E+01 -0.15571645110E+03  0.18604592001E+03  0.24266068165E+03  0.41800000000E+01 0. -1.
        -11    1    3    3    0    0 -0.17767690211E+02  0.11091213461E+02 -0.18864082677E+02  0.28187930870E+02  0.00000000000E+00 0.  1.
         11    1    3    3    0    0  0.17235243817E+01  0.12335527339E+03  0.83069442713E+02  0.14872802803E+03  0.00000000000E+00 0. -1.
</event>
<event>
 7    1  0.5831876E-006  0.3010592E+03  0.7561462E-02  0.1084712E+00
          2   -1    0    0  501    0  0.00000000000E+00  0.00000000000E+00  0.57023901743E+03  0.57023901743E+03  0.00000000000E+00 0. -1.
         -2   -1    0    0    0  501 -0.00000000000E+00 -0.00000000000E+00 -0.17927585910E+03  0.17927585910E+03  0.00000000000E+00 0.  1.
         23    2    1    2    0    0  0.24242609091E+03 -0.16838062096E+03  0.12512544079E+03  0.33305424607E+03  0.90256921195E+02 0.  0.
          5    1    1    2  502    0 -0.14187997230E+03  0.51524772469E+02  0.19532731232E+03  0.24689058317E+03  0.41800000000E+01 0. -1.
         -5    1    1    2    0  502 -0.10054611860E+03  0.11685584849E+03  0.70510405230E+02  0.16957004729E+03  0.41800000000E+01 0. -1.
        -11    1    3    3    0    0  0.97600147040E+02 -0.48984431815E+02  0.32318899880E+01  0.10925066762E+03  0.00000000000E+00 0.  1.
         11    1    3    3    0    0  0.14482594387E+03 -0.11939618915E+03  0.12189355080E+03  0.22380357845E+03  0.00000000000E+00 0. -1.
</event>
<event>
 7    1  0.5831876E-006  0.9102708E+02  0.7561462E-02  0.1300383E+00
          2   -1    0    0  501    0  0.00000000000E+00  0.00000000000E+00  0.37753893435E+03  0.37753893435E+03  0.00000000000E+00 0. -1.
         -2   -1    0    0    0  501 -0.00000000000E+00 -0.00000000000E+00 -0.46779381894E+02  0.46779381894E+02  0.00000000000E+00 0.  1.
         23    2    1    2    0    0 -0.26530338973E+02  0.44567283816E+02  0.58591674495E+02  0.12032480141E+03  0.91405535070E+02 0.  0.
          5    1    1    2  502    0 -0.80243677706E+01 -0.49221039540E+02  0.26297388862E+03  0.26769355560E+03  0.41800000000E+01 0.  1.
         -5    1    1    2    0  502  0.34554706744E+02  0.46537557241E+01  0.91939893376E+01  0.36299959235E+02  0.41800000000E+01 0.  1.
        -11    1    3    3    0    0 -0.48023363309E+02  0.68418584632E+00  0.52382799800E+02  0.71068060679E+02  0.00000000000E+00 0. -1.
         11    1    3    3    0    0  0.21493024336E+02  0.43883097970E+02  0.62088746953E+01  0.49256740732E+02  0.00000000000E+00 0.  1.
</event>
<event>
 7    1  0.5831876E-006  0.1627019E+03  0.7561462E-02  0.1185680E+00
          1   -1    0    0  501    0  0.00000000000E+00  0.00000000000E+00  0.35350880170E+03  0.35350880170E+03  0.00000000000E+00 0. -1.
         -1   -1    0    0    0  501 -0.00000000000E+00 -0.00000000000E+00 -0.99149143323E+02  0.99149143323E+02  0.00000000000E+00 0.  1.
         23    2    1    2    0    0 -0.11154060268E+03  0.10277579438E+03  0.13156532607E+03  0.22086134664E+03  0.92011572419E+02 0.  0.
          5    1    1    2  502    0  0.30295081503E+02 -0.36529237982E+02  0.11745261704E+03  0.12674686127E+03  0.41800000000E+01 0.  1.
         -5    1    1    2    0  502  0.81245521178E+02 -0.66246556398E+02  0.53417152655E+01  0.10504973712E+03  0.41800000000E+01 0.  1.
        -11    1    3    3    0    0 -0.22363233115E+02  0.76764509897E+02  0.36324961628E+02  0.87820310933E+02  0.00000000000E+00 0.  1.
         11    1    3    3    0    0 -0.89177369565E+02  0.26011284483E+02  0.95240364440E+02  0.13304103571E+03  0.00000000000E+00 0. -1.
</event>
<event>
 7    1  0.5831876E-006  0.7723521E+02  0.7561462E-02  0.1337086E+00
          1   -1    0    0  501    0  0.00000000000E+00  0.00000000000E+00  0.13613297908E+04  0.13613297908E+04  0.00000000000E+00 0. -1.
         -1   -1    0    0    0  501 -0.00000000000E+00 -0.00000000000E+00 -0.17756640338E+03  0.17756640338E+03  0.00000000000E+00 0.  1.
         23    2    1    2    0    0 -0.51408467203E+01  0.89596704787E+01 -0.16267104276E+03  0.18681562137E+03  0.91277073998E+02 0.  0.
          5    1    1    2  502    0  0.88515789301E+00 -0.45664465913E+02  0.12039581786E+04  0.12048314385E+04  0.41800000000E+01 0. -1.
         -5    1    1    2    0  502  0.42556888273E+01  0.36704795434E+02  0.14247625154E+03  0.14724913428E+03  0.41800000000E+01 0.  1.
        -11    1    3    3    0    0 -0.10746508348E+02  0.39209373616E+02 -0.14654650792E+03  0.15208136442E+03  0.00000000000E+00 0.  1.
         11    1    3    3    0    0  0.56056616281E+01 -0.30249703138E+02 -0.16124534835E+02  0.34734256950E+02  0.00000000000E+00 0. -1.
</event>
<event>
 7    1  0.5831876E-006  0.2892735E+03  0.7561462E-02  0.1090729E+00
         -2   -1    0    0    0  501 -0.00000000000E+00  0.00000000000E+00  0.41886806717E+03  0.41886806717E+03  0.00000000000E+00 0.  1.
          2   -1    0    0  501    0  0.00000000000E+00 -0.00000000000E+00 -0.28414430747E+03  0.28414430747E+03  0.00000000000E+00 0. -1.
         23    2    1    2    0    0  0.11090914747E+03  0.25030085910E+03  0.24919784944E+03  0.38098794082E+03  0.90004909992E+02 0.  0.
          5    1    1    2  502    0 -0.83124477113E+02 -0.24933930130E+03 -0.12616950925E+03  0.29157500464E+03  0.41800000000E+01 0. -1.
         -5    1    1    2    0  502 -0.27784670359E+02 -0.96155779501E+00  0.11695419502E+02  0.30449429184E+02  0.41800000000E+01 0. -1.
        -11    1    3    3    0    0  0.20019725151E+02  0.15344995459E+03  0.14649421485E+03  0.21309207621E+03  0.00000000000E+00 0.  1.
         11    1    3    3    0    0  0.90889422320E+02  0.96850904513E+02  0.10270363459E+03  0.16789586461E+03  0.00000000000E+00 0. -1.
</event>
<event>
 7    1  0.5831876E-006  0.8015092E+02  0.7561462E-02  0.1328624E+00
         -2   -1    0    0    0  501 -0.00000000000E+00  0.00000000000E+00  0.28760166886E+02  0.28760166886E+02  0.00000000000E+00 0.  1.
          2   -1    0    0  501    0  0.00000000000E+00 -0.00000000000E+00 -0.45868302286E+03  0.45868302286E+03  0.00000000000E+00 0. -1.
         23    2    1    2    0    0  0.76730172930E+01 -0.36334585332E+02 -0.16097558427E+03  0.18851278605E+03  0.90801181078E+02 0.  0.
          5    1    1    2  502    0 -0.26352485589E+02 -0.19633319011E+02 -0.21906168979E+03  0.22155228965E+03  0.41800000000E+01 0. -1.
         -5    1    1    2    0  502  0.18679468296E+02  0.55967904342E+02 -0.49885581906E+02  0.77378114053E+02  0.41800000000E+01 0. -1.
        -11    1    3    3    0    0 -0.24551956982E+02 -0.21129524208E+02 -0.10765497832E+02  0.34134313066E+02  0.00000000000E+00 0.  1.
         11    1    3    3    0    0  0.32224974275E+02 -0.15205061123E+02 -0.15021008644E+03  0.15437847298E+03  0.00000000000E+00 0. -1.
</event>
<event>
 7    1  0.5831876E-006  0.1862023E+03  0.7561462E-02  0.1161932E+00
          1   -1    0    0  501    0  0.00000000000E+00  0.00000000000E+00  0.48819741437E+03  0.48819741437E+03  0.00000000000E+00 0. -1.
         -1   -1    0    0    0  501 -0.00000000000E+00 -0.00000000000E+00 -0.94658696824E+02  0.94658696824E+02  0.00000000000E+00 0.  1.
         23    2    1    2    0    0 -0.34996882215E+02  0.17968535615E+03  0.15530022803E+03  0.25740772834E+03  0.92892242958E+02 0.  0.
          5    1    1    2  502    0  0.25720236119E+02 -0.14706506509E+03  0.92326008947E+02  0.17558823493E+03  0.41800000000E+01 0. -1.
         -5    1    1    2    0  502  0.92766460964E+01 -0.32620291061E+02  0.14591248057E+03  0.14986014793E+03  0.41800000000E+01 0. -1.
        -11    1    3    3    0    0 -0.22208513757E+02  0.24114836768E+02  0.75037062316E+02  0.81885921603E+02  0.00000000000E+00 0. -1.
         11    1    3    3    0    0 -0.12788368458E+02  0.15557051939E+03  0.80263165715E+02  0.17552180674E+03  0.00000000000E+00 0.  1.
</event>
<event>
 7    1  0.5831876E-006  0.1456158E+03  0.7561462E-02  0.1205966E+00
          1   -1    0    0  501    0  0.00000000000E+00  0.00000000000E+00  0.96413538799E+03  0.96413538799E+03  0.00000000000E+00 0. -1.
         -1   -1    0    0    0  501 -0.00000000000E+00 -0.00000000000E+00 -0.38253540992E+02  0.38253540992E+02  0.00000000000E+00 0.  1.
         23    2    1    2    0    0  0.26444852683E+02 -0.12241208509E+03  0.18793157646E+03  0.24350575390E+03  0.91064405466E+02 0.  0.
          5    1    1    2  502    0 -0.46242653980E+02  0.62843532009E+02  0.62267559045E+03  0.62755880673E+03  0.41800000000E+01 0.  1.
         -5    1    1    2    0  502  0.19797801296E+02  0.59568553083E+02  0.11527468009E+03  0.13132436835E+03  0.41800000000E+01 0.  1.
        -11    1    3    3    0    0 -0.17645701083E+02  0.24053201570E+01  0.46476325978E+02  0.49771530097E+02  0.00000000000E+00 0.  1.
         11    1    3    3    0    0  0.44090553767E+02 -0.12481740525E+03  0.14145525048E+03  0.19373422380E+03  0.00000000000E+00 0. -1.
</event>
<event>
 7    1  0.5831876E-006  0.8600640E+02  0.7561462E-02  0.1312821E+00
          2   -1    0    0  501    0  0.00000000000E+00  0.00000000000E+00  0.71452113495E+02  0.71452113495E+02  0.00000000000E+00 0. -1.
         -2   -1    0    0    0  501 -0.00000000000E+00 -0.00000000000E+00 -0.21843376681E+03  0.21843376681E+03  0.00000000000E+00 0.  1.
         23    2    1    2    0    0  0.34048320893E+02 -0.19477024746E+02 -0.12027338184E+03  0.15612771651E+03  0.91496091916E+02 0.  0.
          5    1    1    2  502    0 -0.41219042452E+02  0.46384215485E+02  0.31041403340E+02  0.69509323317E+02  0.41800000000E+01 0. -1.
         -5    1    1    2    0  502  0.71707215585E+01 -0.26907190739E+02 -0.57749674813E+02  0.64248840473E+02  0.41800000000E+01 0. -1.
        -11    1    3    3    0    0 -0.16840257844E+02 -0.25351360029E+02 -0.93495664776E+02  0.98324590370E+02  0.00000000000E+00 0.  1.
         11    1    3    3    0    0  0.50888578737E+02  0.58743352836E+01 -0.26777717066E+02  0.57803126145E+02  0.00000000000E+00 0. -1.
</event>
<event>
 7    1  0.5831876E-006  0.8740604E+02  0.7561462E-02  0.1309258E+00
          2   -1    0    0  501    0  0.00000000000E+00  0.00000000000E+00  0.51523401108E+03  0.51523401108E+03  0.00000000000E+00 0. -1.
         -2   -1    0    0    0  501 -0.00000000000E+00 -0.00000000000E+00 -0.39689885887E+02  0.39689885887E+02  0.00000000000E+00 0.  1.
         23    2    1    2    0    0  0.45212396134E+02 -0.31447977379E+02  0.71183248468E+02  0.12808605046E+03  0.91136411028E+02 0.  0.
          5    1    1    2  502    0  0.33926966578E+01  0.43764170420E+02  0.34999545741E+03  0.35276210909E+03  0.41800000000E+01 0. -1.
         -5    1    1    2    0  502 -0.48605092792E+02 -0.12316193041E+02  0.54365419320E+02  0.74075737419E+02  0.41800000000E+01 0. -1.
        -11    1    3    3    0    0  0.38090763502E+02 -0.48648346268E+02  0.84870950535E+02  0.10497926511E+03  0.00000000000E+00 0. -1.
         11    1    3    3    0    0  0.71216326323E+01  0.17200368889E+02 -0.13687702068E+02  0.23106785349E+02  0.00000000000E+00 0.  1.
</event>
<event>
 7    1  0.5831876E-006  0.9540041E+02  0.7561462E-02  0.1290277E+00
         -2   -1    0    0    0  501 -0.00000000000E+00  0.00000000000E+00  0.54057524818E+02  0.54057524818E+02  0.00000000000E+00 0.  1.
          2   -1    0    0  501    0  0.00000000000E+00 -0.00000000000E+00 -0.57640707929E+03  0.57640707929E+03  0.00000000000E+00 0. -1.
         23    2    1    2    0    0  0.62298974063E+00 -0.90143510391E+01 -0.46903126780E+02  0.10190998643E+03  0.90022749301E+02 0.  0.
          5    1    1    2  502    0 -0.22805079322E+02  0.49616747920E+02 -0.47885316815E+03  0.48197481507E+03  0.41800000000E+01 0. -1.
         -5    1    1    2    0  502  0.22182089582E+02 -0.40602396880E+02  0.34067404526E+01  0.46579802610E+02  0.41800000000E+01 0.  1.
        -11    1    3    3    0    0 -0.34128209631E+02 -0.32905467107E+02 -0.31936003531E+02  0.57161287421E+02  0.00000000000E+00 0.  1.
         11    1    3    3    0    0  0.34751199371E+02  0.23891116068E+02 -0.14967123249E+02  0.44748699010E+02  0.00000000000E+00 0. -1.
</event>
<event>
 7    1  0.5831876E-006  0.5728729E+02  0.7561462E-02  0.1409582E+00
          2   -1    0    0  501    0  0.00000000000E+00  0.00000000000E+00  0.31618922447E+03  0.31618922447E+03  0.00000000000E+00 0. -1.
         -2   -1    0    0    0  501 -0.00000000000E+00 -0.00000000000E+00 -0.39467545246E+02  0.39467545246E+02  0.00000000000E+00 0.  1.
         23    2    1    2    0    0  0.54600212184E+01 -0.18475511491E+02  0.86518960961E+02  0.12720073239E+03  0.91232337237E+02 0.  0.
          5    1    1    2  502    0  0.14438323837E+02 -0.36014506848E+01  0.19706321387E+03  0.19766845551E+03  0.41800000000E+01 0. -1.
         -5    1    1    2    0  502 -0.19898345055E+02  0.22076962176E+02 -0.68604955992E+01  0.30787581827E+02  0.41800000000E+01 0. -1.
        -11    1    3    3    0    0 -0.12939762428E+00 -0.43481351064E+02  0.74901765967E+01  0.44121960287E+02  0.00000000000E+00 0.  1.
         11    1    3    3    0    0  0.55894188426E+01  0.25005839573E+02  0.79028784364E+02  0.83078772101E+02  0.00000000000E+00 0. -1.
</event>
<event>
 7    1  0.5831876E-006  0.2029570E+03  0.7561462E-02  0.1147268E+00
          4   -1    0    0  501    0  0.00000000000E+00  0.00000000000E+00  0.50007682173E+02  0.50007682173E+02  0.00000000000E+00 0. -1.
         -4   -1    0    0    0  501 -0.00000000000E+00 -0.00000000000E+00 -0.93084220051E+03  0.93084220051E+03  0.00000000000E+00 0.  1.
         23    2    1    2    0    0 -0.60613538845E+02 -0.16905686146E+03 -0.50263968405E+03  0.54389268864E+03  0.10449105835E+03 0.  0.
          5    1    1    2  502    0 -0.34370000630E+01 -0.87640102228E+01 -0.10045431164E+03  0.10098099807E+03  0.41800000000E+01 0. -1.
         -5    1    1    2    0  502  0.64050538908E+02  0.17782087168E+03 -0.27774052264E+03  0.33597619597E+03  0.41800000000E+01 0. -1.
        -11    1    3    3    0    0  0.21743022727E+02 -0.89328315831E+02 -0.25325297322E+03  0.26942415536E+03  0.00000000000E+00 0. -1.
         11    1    3    3    0    0 -0.82356561572E+02 -0.79728545626E+02 -0.24938671083E+03  0.27446853328E+03  0.00000000000E+00 0.  1.
</event>
<event>
 7    1  0.5831876E-006  0.6934940E+02  0.7561462E-02  0.1362320E+00
          2   -1    0    0  501    0  0.00000000000E+00  0.00000000000E+00  0.27714550734E+03  0.27714550734E+03  0.00000000000E+00 0. -1.
         -2   -1    0    0    0  501 -0.00000000000E+00 -0.00000000000E+00 -0.10516791484E+03  0.10516791484E+03  0.00000000000E+00 0.  1.
         23    2    1    2    0    0 -0.36333820804E+02 -0.31923174038E+01 -0.57286482070E+02  0.11361407566E+03  0.91082818009E+02 0.  0.
          5    1    1    2  502    0  0.42816578909E+02  0.19377822824E+01  0.24625782300E+03  0.24999480438E+03  0.41800000000E+01 0. -1.
         -5    1    1    2    0  502 -0.64827581057E+01  0.12545351214E+01 -0.16993748427E+02  0.18704542139E+02  0.41800000000E+01 0.  1.
        -11    1    3    3    0    0 -0.27660342202E+02  0.37284525193E+02 -0.55254568658E+02  0.72168536823E+02  0.00000000000E+00 0.  1.
         11    1    3    3    0    0 -0.86734786019E+01 -0.40476842597E+02 -0.20319134118E+01  0.41445538841E+02  0.00000000000E+00 0. -1.
</event>
<event>
 7    1  0.5831876E-006  0.1273781E+03  0.7561462E-02  0.1231399E+00
         -2   -1    0    0    0  501 -0.00000000000E+00  0.00000000000E+00  0.21160440169E+02  0.21160440169E+02  0.00000000000E+00 0.  1.
          2   -1    0    0  501    0  0.00000000000E+00 -0.00000000000E+00 -0.91656403356E+03  0.91656403356E+03  0.00000000000E+00 0. -1.
         23    2    1    2    0    0  0.67550922170E+02  0.24956844436E+02 -0.23867639247E+03  0.26532376746E+03  0.90798183295E+02 0.  0.
          5    1    1    2  502    0 -0.19031199847E+02  0.50471981065E+02 -0.27305428293E+03  0.27836257160E+03  0.41800000000E+01 0.  1.
         -5    1    1    2    0  502 -0.48519722323E+02 -0.75428825502E+02 -0.38367291799E+03  0.39403813466E+03  0.41800000000E+01 0.  1.
        -11    1    3    3    0    0  0.70491277970E+02  0.49510249887E+02 -0.14708848866E+03  0.17045617797E+03  0.00000000000E+00 0.  1.
         11    1    3    3    0    0 -0.29403558001E+01 -0.24553405450E+02 -0.91587903811E+02  0.94867589491E+02  0.00000000000E+00 0. -1.
</event>
<event>
 7    1  0.5831876E-006  0.1310631E+03  0.7561462E-02  0.1225887E+00
          1   -1    0    0  501    0  0.00000000000E+00  0.00000000000E+00  0.69746739482E+03  0.69746739482E+03  0.00000000000E+00 0. -1.
         -1   -1    0    0    0  501 -0.00000000000E+00 -0.00000000000E+00 -0.26782139659E+02  0.26782139659E+02  0.00000000000E+00 0.  1.
         23    2    1    2    0    0  0.61839541296E+02  0.26415580522E+02  0.22481048940E+03  0.25630331899E+03  0.10310055005E+03 0.  0.
          5    1    1    2  502    0 -0.86271351060E+02  0.17947674708E+02  0.32643271588E+03  0.33814295119E+03  0.41800000000E+01 0. -1.
         -5    1    1    2    0  502  0.24431809763E+02 -0.44363255230E+02  0.11944204988E+03  0.12980326430E+03  0.41800000000E+01 0. -1.
        -11    1    3    3    0    0  0.76123170761E+02 -0.16473637202E+02  0.14163258331E+03  0.16163510294E+03  0.00000000000E+00 0.  1.
         11    1    3    3    0    0 -0.14283629465E+02  0.42889217724E+02  0.83177906093E+02  0.94668216048E+02  0.00000000000E+00 0. -1.
</event>
<event>
 7    1  0.5831876E-006  0.1009573E+03  0.7561462E-02  0.1278296E+00
         -2   -1    0    0    0  501 -0.00000000000E+00  0.00000000000E+00  0.68945360830E+02  0.68945360830E+02  0.00000000000E+00 0.  1.
          2   -1    0    0  501    0  0.00000000000E+00 -0.00000000000E+00 -0.19280707584E+03  0.19280707584E+03  0.00000000000E+00 0. -1.
         23    2    1    2    0    0 -0.72838741571E+01 -0.38645885802E+02 -0.61980308883E+02  0.11675964730E+03  0.90800315171E+02 0.  0.
          5    1    1    2  502    0  0.64067389550E+02  0.36107796284E+02 -0.40943120101E+02  0.84274639363E+02  0.41800000000E+01 0.  1.
         -5    1    1    2    0  502 -0.56783515393E+02  0.25380895186E+01 -0.20938286024E+02  0.60718150008E+02  0.41800000000E+01 0.  1.
        -11    1    3    3    0    0 -0.59233120112E+01 -0.54764789051E+02 -0.77007440929E+02  0.94680587786E+02  0.00000000000E+00 0. -1.
         11    1    3    3    0    0 -0.13605621459E+01  0.16118903248E+02  0.15027132047E+02  0.22079059510E+02  0.00000000000E+00 0.  1.
</event>
<event>
 7    1  0.5831876E-006  0.9585514E+02  0.7561462E-02  0.1289262E+00
          1   -1    0    0  501    0  0.00000000000E+00  0.00000000000E+00  0.90086329743E+02  0.90086329743E+02  0.00000000000E+00 0. -1.
         -1   -1    0    0    0  501 -0.00000000000E+00 -0.00000000000E+00 -0.19922297593E+03  0.19922297593E+03  0.00000000000E+00 0.  1.
         23    2    1    2    0    0  0.73710925980E+01  0.31155078068E+02 -0.12709188833E+03  0.15894457211E+03  0.89922505680E+02 0.  0.
          5    1    1    2  502    0 -0.55498994461E+02 -0.14558714503E+02 -0.25853593812E+02  0.63071192054E+02  0.41800000000E+01 0.  1.
         -5    1    1    2    0  502  0.48127901863E+02 -0.16596363564E+02  0.43808835956E+02  0.67293541511E+02  0.41800000000E+01 0.  1.
        -11    1    3    3    0    0  0.12036210843E+02 -0.24475662916E+02 -0.96893845198E+01  0.28944992987E+02  0.00000000000E+00 0. -1.
         11    1    3    3    0    0 -0.46651182450E+01  0.55630740983E+02 -0.11740250382E+03  0.12999957912E+03  0.00000000000E+00 0.  1.
</event>
<event>
 7    1  0.5831876E-006  0.1396938E+03  0.7561462E-02  0.1213742E+00
          2   -1    0    0  501    0  0.00000000000E+00  0.00000000000E+00  0.72372548951E+03  0.72372548951E+03  0.00000000000E+00 0. -1.
         -2   -1    0    0    0  501 -0.00000000000E+00 -0.00000000000E+00 -0.37797389764E+02  0.37797389764E+02  0.00000000000E+00 0.  1.
         23    2    1    2    0    0 -0.12291507759E+03  0.72910204911E+01  0.27455282748E+03  0.31426758372E+03  0.90683977769E+02 0.  0.
          5    1    1    2  502    0  0.10257941495E+03  0.23325279985E+02  0.39120108656E+03  0.40512018906E+03  0.41800000000E+01 0. -1.
         -5    1    1    2    0  502  0.20335662637E+02 -0.30616300476E+02  0.20174185703E+02  0.42135106485E+02  0.41800000000E+01 0. -1.
        -11    1    3    3    0    0 -0.97836335421E+02  0.30973049365E+02  0.25440033141E+03  0.27431880529E+03  0.00000000000E+00 0. -1.
         11    1    3    3    0    0 -0.25078742171E+02 -0.23682028874E+02  0.20152496072E+02  0.39948778434E+02  0.00000000000E+00 0.  1.
</event>
<event>
 7    1  0.5831876E-006  0.1090634E+03  0.7561462E-02  0.1262314E+00
          2   -1    0    0  501    0  0.00000000000E+00  0.00000000000E+00  0.88610527768E+03  0.88610527768E+03  0.00000000000E+00 0. -1.
         -2   -1    0    0    0  501 -0.00000000000E+00 -0.00000000000E+00 -0.14427437718E+02  0.14427437718E+02  0.00000000000E+00 0.  1.
         23    2    1    2    0    0  0.11714280476E+02  0.79893845082E+01  0.26043855327E+03  0.27646578350E+03  0.91673522794E+02 0.  0.
          5    1    1    2  502    0 -0.12969432686E+02  0.57835540668E+02  0.26223745312E+03  0.26888493853E+03  0.41800000000E+01 0.  1.
         -5    1    1    2    0  502  0.12551522099E+01 -0.65824925176E+02  0.34900183357E+03  0.35518199337E+03  0.41800000000E+01 0.  1.
        -11    1    3    3    0    0 -0.29946032158E+02  0.32668263626E+02  0.12122514276E+03  0.12907174566E+03  0.00000000000E+00 0. -1.
         11    1    3    3    0    0  0.41660312634E+02 -0.24678879118E+02  0.13921341052E+03  0.14739403784E+03  0.00000000000E+00 0.  1.
</event>
<event>
 7    1  0.5831876E-006  0.1355877E+03  0.7561462E-02  0.1219392E+00
         -2   -1    0    0    0  501 -0.00000000000E+00  0.00000000000E+00  0.25910225804E+03  0.25910225804E+03  0.00000000000E+00 0.  1.
          2   -1    0    0  501    0  0.00000000000E+00 -0.00000000000E+00 -0.10755510995E+03  0.10755510995E+03  0.00000000000E+00 0. -1.
         23    2    1    2    0    0  0.90639263122E+02 -0.37888263164E+00  0.16618155673E+03  0.21149414637E+03  0.94328386940E+02 0.  0.
          5    1    1    2  502    0 -0.41332483812E+02 -0.53150433109E+02 -0.39461809713E+02  0.78154011947E+02  0.41800000000E+01 0.  1.
         -5    1    1    2    0  502 -0.49306779310E+02  0.53529315740E+02  0.24827401083E+02  0.77009209671E+02  0.41800000000E+01 0.  1.
        -11    1    3    3    0    0  0.48986302151E+01  0.36972192534E+02  0.47493625656E+02  0.60386952868E+02  0.00000000000E+00 0.  1.
         11    1    3    3    0    0  0.85740632907E+02 -0.37351075165E+02  0.11868793107E+03  0.15110719351E+03  0.00000000000E+00 0. -1.
</event>
<event>
 7    1  0.5831876E-006  0.1542686E+03  0.7561462E-02  0.1195324E+00
          2   -1    0    0  501    0  0.00000000000E+00  0.00000000000E+00  0.75083455056E+03  0.75083455056E+03  0.00000000000E+00 0. -1.
         -2   -1    0    0    0  501 -0.00000000000E+00 -0.00000000000E+00 -0.47117911821E+02  0.47117911821E+02  0.00000000000E+00 0.  1.
         23    2    1    2    0    0  0.52723503946E+02 -0.13489883932E+03  0.22054687633E+03  0.27826632840E+03  0.88395475807E+02 0.  0.
          5    1    1    2  502    0 -0.65617398432E+02  0.13422206555E+03  0.29193684635E+03  0.32797225570E+03  0.41800000000E+01 0.  1.
         -5    1    1    2    0  502  0.12893894486E+02  0.67677377078E+00  0.19123291607E+03  0.19171387828E+03  0.41800000000E+01 0.  1.
        -11    1    3    3    0    0  0.23530731310E+02 -0.79164403732E+02  0.19232939533E+03  0.20931147709E+03  0.00000000000E+00 0. -1.
         11    1    3    3    0    0  0.29192772636E+02 -0.55734435590E+02  0.28217480996E+02  0.68954851304E+02  0.00000000000E+00 0.  1.
</event>
<event>
 7    1  0.5831876E-006  0.1279747E+03  0.7561462E-02  0.1230492E+00
         -1   -1    0    0    0  501 -0.00000000000E+00  0.00000000000E+00  0.26443388082E+02  0.26443388082E+02  0.00000000000E+00 0.  1.
          1   -1    0    0  501    0  0.00000000000E+00 -0.00000000000E+00 -0.86771819373E+03  0.86771819373E+03  0.00000000000E+00 0. -1.
         23    2    1    2    0    0  0.58298804189E+02  0.63231618474E+02 -0.22954875297E+03  0.26388145004E+03  0.97692382193E+02 0.  0.
          5    1    1    2  502    0 -0.84412584092E+02 -0.54648416555E+02 -0.28269578323E+03  0.30007717680E+03  0.41800000000E+01 0. -1.
         -5    1    1    2    0  502  0.26113779902E+02 -0.85832019197E+01 -0.32903026945E+03  0.33020295497E+03  0.41800000000E+01 0. -1.
        -11    1    3    3    0    0  0.59094334062E+02 -0.49616916859E+01 -0.13354935390E+03  0.14612388111E+03  0.00000000000E+00 0. -1.
         11    1    3    3    0    0 -0.79552987310E+00  0.68193310160E+02 -0.95999399069E+02  0.11775756893E+03  0.00000000000E+00 0.  1.
</event>
<event>
 7    1  0.5831876E-006  0.1108387E+03  0.7561462E-02  0.1259025E+00
         -1   -1    0    0    0  501 -0.00000000000E+00  0.00000000000E+00  0.27370018997E+02  0.27370018997E+02  0.00000000000E+00 0.  1.
          1   -1    0    0  501    0  0.00000000000E+00 -0.00000000000E+00 -0.59018697593E+03  0.59018697593E+03  0.00000000000E+00 0. -1.
         23    2    1    2    0    0  0.12549784935E+02 -0.63706728740E+02 -0.28622584031E+03  0.30712855058E+03  0.90480221784E+02 0.  0.
          5    1    1    2  502    0 -0.53230362172E+00 -0.35470855257E+02 -0.11483615132E+03  0.12026337335E+03  0.41800000000E+01 0.  1.
         -5    1    1    2    0  502 -0.12017481314E+02  0.99177583997E+02 -0.16175496530E+03  0.19016507099E+03  0.41800000000E+01 0.  1.
        -11    1    3    3    0    0 -0.13733187535E+01  0.10437024577E+02  0.60352323682E+00  0.10544274594E+02  0.00000000000E+00 0.  1.
         11    1    3    3    0    0  0.13923103689E+02 -0.74143753317E+02 -0.28682936354E+03  0.29658427599E+03  0.00000000000E+00 0. -1.
</event>
<event>
 7    1  0.5831876E-006  0.1624444E+03  0.7561462E-02  0.1185964E+00
          2   -1    0    0  501    0  0.00000000000E+00  0.00000000000E+00  0.78273287272E+03  0.78273287272E+03  0.00000000000E+00 0. -1.
         -2   -1    0    0    0  501 -0.00000000000E+00 -0.00000000000E+00 -0.48145426725E+02  0.48145426725E+02  0.00000000000E+00 0.  1.
         23    2    1    2    0    0 -0.21001357793E+02  0.12851111863E+03  0.14911905748E+03  0.21819704226E+03  0.91745797215E+02 0.  0.
          5    1    1    2  502    0  0.80381137870E+01 -0.15193718139E+03  0.52022747517E+03  0.54203654552E+03  0.41800000000E+01 0.  1.
         -5    1    1    2    0  502  0.12963244006E+02  0.23426062764E+02  0.65240913345E+02  0.70644711663E+02  0.41800000000E+01 0.  1.
        -11    1    3    3    0    0 -0.19940970466E+02  0.31145542631E+01  0.62788485855E+02  0.65952533744E+02  0.00000000000E+00 0. -1.
         11    1    3    3    0    0 -0.10603873267E+01  0.12539656436E+03  0.86330571628E+02  0.15224450852E+03  0.00000000000E+00 0.  1.
</event>
<event>
 7    1  0.5831876E-006  0.9496802E+02  0.7561462E-02  0.1291248E+00
          1   -1    0    0  501    0  0.00000000000E+00  0.00000000000E+00  0.50931902701E+03  0.50931902701E+03  0.00000000000E+00 0. -1.
         -1   -1    0    0    0  501 -0.00000000000E+00 -0.00000000000E+00 -0.37224850849E+02  0.37224850849E+02  0.00000000000E+00 0.  1.
         23    2    1    2    0    0 -0.73396104604E+02  0.26752028542E+02  0.15884864328E+03  0.20031653481E+03  0.93761204353E+02 0.  0.
          5    1    1    2  502    0  0.77038316229E+02  0.34371204595E+01  0.80827191468E+02  0.11179098016E+03  0.41800000000E+01 0. -1.
         -5    1    1    2    0  502 -0.36422116248E+01 -0.30189149002E+02  0.23241834141E+03  0.23443636290E+03  0.41800000000E+01 0. -1.
        -11    1    3    3    0    0 -0.65556090519E+02  0.13984098581E+02  0.16927449140E+03  0.18206320181E+03  0.00000000000E+00 0. -1.
         11    1    3    3    0    0 -0.78400140848E+01  0.12767929961E+02 -0.10425848115E+02  0.18253332991E+02  0.00000000000E+00 0.  1.
</event>
<event>
 7    1  0.5831876E-006  0.7664607E+02  0.7561462E-02  0.1338848E+00
          2   -1    0    0  501    0  0.00000000000E+00  0.00000000000E+00  0.11431106227E+03  0.11431106227E+03  0.00000000000E+00 0. -1.
         -2   -1    0    0    0  501 -0.00000000000E+00 -0.00000000000E+00 -0.10731986786E+03  0.10731986786E+03  0.00000000000E+00 0.  1.
         23    2    1    2    0    0 -0.92381799066E+01 -0.15651246118E+02 -0.11283465283E+02  0.93914875115E+02  0.91446058997E+02 0.  0.
          5    1    1    2  502    0 -0.35209884473E+01 -0.25631507139E+02  0.61255782674E+02  0.66626682560E+02  0.41800000000E+01 0.  1.
         -5    1    1    2    0  502  0.12759168354E+02  0.41282753257E+02 -0.42981122987E+02  0.61089372454E+02  0.41800000000E+01 0.  1.
        -11    1    3    3    0    0 -0.42463443657E+02 -0.24847157454E+02  0.14012547398E+02  0.51155417751E+02  0.00000000000E+00 0.  1.
         11    1    3    3    0    0  0.33225263750E+02  0.91959113360E+01 -0.25296012680E+02  0.42759457364E+02  0.00000000000E+00 0. -1.
</event>
<event>
 7    1  0.5831876E-006  0.1625793E+03  0.7561462E-02  0.1185815E+00
         -4   -1    0    0    0  501 -0.00000000000E+00  0.00000000000E+00  0.26672074725E+03  0.26672074725E+03  0.00000000000E+00 0.  1.
          4   -1    0    0  501    0  0.00000000000E+00 -0.00000000000E+00 -0.10014423732E+03  0.10014423732E+03  0.00000000000E+00 0. -1.
         23    2    1    2    0    0 -0.51848197236E+02 -0.11498866858E+03  0.88043153202E+02  0.18022968674E+03  0.93917589940E+02 0.  0.
          5    1    1    2  502    0 -0.20418659646E+02  0.89203391758E+02  0.52026850300E+02  0.10534909736E+03  0.41800000000E+01 0. -1.
         -5    1    1    2    0  502  0.72266856881E+02  0.25785276820E+02  0.26506506426E+02  0.81286200471E+02  0.41800000000E+01 0.  1.
        -11    1    3    3    0    0 -0.49753030384E+02 -0.88302988146E+01  0.21444529922E+02  0.54892677773E+02  0.00000000000E+00 0. -1.
         11    1    3    3    0    0 -0.20951668516E+01 -0.10615836976E+03  0.66598623280E+02  0.12533700897E+03  0.00000000000E+00 0.  1.
</event>
<event>
 7    1  0.5831876E-006  0.1379296E+03  0.7561462E-02  0.1216142E+00
          1   -1    0    0  501    0  0.00000000000E+00  0.00000000000E+00  0.17190020676E+04  0.17190020676E+04  0.00000000000E+00 0. -1.
         -1   -1    0    0    0  501 -0.00000000000E+00 -0.00000000000E+00 -0.12794592814E+02  0.12794592814E+02  0.00000000000E+00 0.  1.
         23    2    1    2    0    0 -0.61761281641E+02  0.59554526919E+02  0.47324976430E+03  0.48954310704E+03  0.91246461065E+02 0.  0.
          5    1    1    2  502    0  0.99091254515E+02 -0.32650277677E+02  0.78344835518E+03  0.79037580617E+03  0.41800000000E+01 0.  1.
         -5    1    1    2    0  502 -0.37329972875E+02 -0.26904249242E+02  0.44950935532E+03  0.45187774721E+03  0.41800000000E+01 0.  1.
        -11    1    3    3    0    0  0.27373669366E+01  0.60669463479E+02  0.22659922439E+03  0.23459643107E+03  0.00000000000E+00 0. -1.
         11    1    3    3    0    0 -0.64498648577E+02 -0.11149365600E+01  0.24665053990E+03  0.25494667597E+03  0.00000000000E+00 0.  1.
</event>
<event>
 7    1  0.5831876E-006  0.1682746E+03  0.7561462E-02  0.1179659E+00
         -1   -1    0    0    0  501 -0.00000000000E+00  0.00000000000E+00  0.35395457771E+02  0.35395457771E+02  0.00000000000E+00 0.  1.
          1   -1    0    0  501    0  0.00000000000E+00 -0.00000000000E+00 -0.13188136326E+04  0.13188136326E+04  0.00000000000E+00 0. -1.
         23    2    1    2    0    0 -0.41621694605E+02  0.12405516546E+03 -0.19365550973E+03  0.24951388464E+03  0.87365168354E+02 0.  0.
          5    1    1    2  502    0 -0.31187465970E+02  0.45271304870E+01 -0.25108286242E+03  0.25308739429E+03  0.41800000000E+01 0. -1.
         -5    1    1    2    0  502  0.72809160575E+02 -0.12858229595E+03 -0.83867980267E+03  0.85160781144E+03  0.41800000000E+01 0. -1.
        -11    1    3    3    0    0  0.20182721943E+02  0.76033194318E+02 -0.10598380533E+03  0.13198846879E+03  0.00000000000E+00 0. -1.
         11    1    3    3    0    0 -0.61804416549E+02  0.48021971142E+02 -0.87671704406E+02  0.11752541585E+03  0.00000000000E+00 0.  1.
</event>
<event>
 7    1  0.5831876E-006  0.9795149E+02  0.7561462E-02  0.1284664E+00
         -2   -1    0    0    0  501 -0.00000000000E+00  0.00000000000E+00  0.22238851087E+02  0.22238851087E+02  0.00000000000E+00 0.  1.
          2   -1    0    0  501    0  0.00000000000E+00 -0.00000000000E+00 -0.71394249072E+03  0.71394249072E+03  0.00000000000E+00 0. -1.
         23    2    1    2    0    0  0.36767528133E+02 -0.25586823895E+02 -0.17494088932E+03  0.20261241007E+03  0.91874573601E+02 0.  0.
          5    1    1    2  502    0  0.34325388135E+02 -0.22327955102E+02 -0.24917037688E+03  0.25254726085E+03  0.41800000000E+01 0. -1.
         -5    1    1    2    0  502 -0.71092916267E+02  0.47914778997E+02 -0.26759237343E+03  0.28102167089E+03  0.41800000000E+01 0. -1.
        -11    1    3    3    0    0  0.19491619777E+02 -0.41227782782E+02 -0.17335628839E+03  0.17925416603E+03  0.00000000000E+00 0. -1.
         11    1    3    3    0    0  0.17275908356E+02  0.15640958887E+02 -0.15846009332E+01  0.23358244038E+02  0.00000000000E+00 0.  1.
</event>
<event>
 7    1  0.5831876E-006  0.1432079E+03  0.7561462E-02  0.1209077E+00
         -2   -1    0    0    0  501 -0.00000000000E+00  0.00000000000E+00  0.13716617785E+02  0.13716617785E+02  0.00000000000E+00 0.  1.
          2   -1    0    0  501    0  0.00000000000E+00 -0.00000000000E+00 -0.16810480627E+04  0.16810480627E+04  0.00000000000E+00 0. -1.
         23    2    1    2    0    0  0.10473699394E+03 -0.14142629971E+02 -0.69276445500E+03  0.70653471248E+03  0.89993655013E+02 0.  0.
          5    1    1    2  502    0 -0.12579451554E+03  0.14048714673E+02 -0.60878622808E+03  0.62181972502E+03  0.41800000000E+01 0. -1.
         -5    1    1    2    0  502  0.21057521603E+02  0.93915298183E-01 -0.36578076184E+03  0.36641024299E+03  0.41800000000E+01 0. -1.
        -11    1    3    3    0    0  0.11764609701E+03 -0.26321100352E+02 -0.62230928684E+03  0.63387873679E+03  0.00000000000E+00 0. -1.
         11    1    3    3    0    0 -0.12909103070E+02  0.12178470380E+02 -0.70455168162E+02  0.72655975691E+02  0.00000000000E+00 0.  1.
</event>
<event>
 7    1  0.5831876E-006  0.1049690E+03  0.7561462E-02  0.1270181E+00
         -2   -1    0    0    0  501 -0.00000000000E+00  0.00000000000E+00  0.69554982770E+02  0.69554982770E+02  0.00000000000E+00 0.  1.
          2   -1    0    0  501    0  0.00000000000E+00 -0.00000000000E+00 -0.17370984313E+03  0.17370984313E+03  0.00000000000E+00 0. -1.
         23    2    1    2    0    0 -0.92567515620E+01 -0.51299851768E+01 -0.21789116222E+02  0.93118810606E+02  0.89912975179E+02 0.  0.
          5    1    1    2  502    0 -0.25206345695E+02 -0.52248474478E+02 -0.32983071158E+02  0.66862682653E+02  0.41800000000E+01 0.  1.
         -5    1    1    2    0  502  0.34463097257E+02  0.57378459655E+02 -0.49382672979E+02  0.83283332639E+02  0.41800000000E+01 0.  1.
        -11    1    3    3    0    0 -0.26933170923E+02 -0.38479724065E+02  0.44055425441E+01  0.47175138210E+02  0.00000000000E+00 0. -1.
         11    1    3    3    0    0  0.17676419361E+02  0.33349738888E+02 -0.26194658766E+02  0.45943672396E+02  0.00000000000E+00 0.  1.
</event>
<event>
 7    1  0.5831876E-006  0.8958362E+02  0.7561462E-02  0.1303863E+00
          1   -1    0    0  501    0  0.00000000000E+00  0.00000000000E+00  0.23986734770E+03  0.23986734770E+03  0.00000000000E+00 0. -1.
         -1   -1    0    0    0  501 -0.00000000000E+00 -0.00000000000E+00 -0.67284678476E+02  0.67284678476E+02  0.00000000000E+00 0.  1.
         23    2    1    2    0    0 -0.11946274286E+02  0.61262903972E+02  0.79477256502E+02  0.13921213170E+03  0.95747200689E+02 0.  0.
          5    1    1    2  502    0  0.13804808949E+02 -0.29233843945E+02 -0.27761355611E+02  0.42817702499E+02  0.41800000000E+01 0.  1.
         -5    1    1    2    0  502 -0.18585346632E+01 -0.32029060027E+02  0.12086676833E+03  0.12512219197E+03  0.41800000000E+01 0.  1.
        -11    1    3    3    0    0  0.33750430044E+02  0.59593972093E+02  0.45086435099E+02  0.81995851528E+02  0.00000000000E+00 0.  1.
         11    1    3    3    0    0 -0.45696704330E+02  0.16689318790E+01  0.34390821404E+02  0.57216280175E+02  0.00000000000E+00 0. -1.
</event>
<event>
 7    1  0.5831876E-006  0.1427178E+03  0.7561462E-02  0.1209718E+00
         -2   -1    0    0    0  501 -0.00000000000E+00  0.00000000000E+00  0.18994367267E+02  0.18994367267E+02  0.00000000000E+00 0.  1.
          2   -1    0    0  501    0  0.00000000000E+00 -0.00000000000E+00 -0.13546767869E+04  0.13546767869E+04  0.00000000000E+00 0. -1.
         23    2    1    2    0    0  0.85187935837E+02 -0.59558388857E+02 -0.35459028773E+03  0.37918980378E+03  0.85126077343E+02 0.  0.
          5    1    1    2  502    0 -0.90727971273E+02 -0.30461116640E+01 -0.72886075886E+03  0.73450413326E+03  0.41800000000E+01 0.  1.
         -5    1    1    2    0  502  0.55400354360E+01  0.62604500521E+02 -0.25223137304E+03  0.25997721712E+03  0.41800000000E+01 0.  1.
        -11    1    3    3    0    0  0.43563455651E+02  0.15090233944E+02 -0.16310808396E+03  0.16949848637E+03  0.00000000000E+00 0. -1.
         11    1    3    3    0    0  0.41624480186E+02 -0.74648622801E+02 -0.19148220376E+03  0.20969131741E+03  0.00000000000E+00 0.  1.
</event>
<event>
 7    1  0.5831876E-006  0.1010754E+03  0.7561462E-02  0.1278051E+00
         -2   -1    0    0    0  501 -0.00000000000E+00  0.00000000000E+00  0.10486963439E+04  0.10486963439E+04  0.00000000000E+00 0.  1.
          2   -1    0    0  501    0  0.00000000000E+00 -0.00000000000E+00 -0.11826823832E+02  0.11826823832E+02  0.00000000000E+00 0. -1.
         23    2    1    2    0    0  0.19250697576E+02  0.83619846879E+01  0.46516211129E+03  0.47491441448E+03  0.93420549966E+02 0.  0.
          5    1    1    2  502    0  0.74024419340E+01 -0.54626795646E+02  0.13885847975E+03  0.14945913404E+03  0.41800000000E+01 0.  1.
         -5    1    1    2    0  502 -0.26653139510E+02  0.46264810958E+02  0.43284892901E+03  0.43614961920E+03  0.41800000000E+01 0.  1.
        -11    1    3    3    0    0  0.54853900411E+02 -0.54448402536E+01  0.32508988300E+03  0.32973023626E+03  0.00000000000E+00 0.  1.
         11    1    3    3    0    0 -0.35603202834E+02  0.13806824942E+02  0.14007222829E+03  0.14518417822E+03  0.00000000000E+00 0. -1.
</event>
<event>
 7    1  0.5831876E-006  0.7737685E+02  0.7561462E-02  0.1336665E+00
         -1   -1    0    0    0  501 -0.00000000000E+00  0.00000000000E+00  0.16070035858E+03  0.16070035858E+03  0.00000000000E+00 0.  1.
          1   -1    0    0  501    0  0.00000000000E+00 -0.00000000000E+00 -0.11662765886E+03  0.11662765886E+03  0.00000000000E+00 0. -1.
         23    2    1    2    0    0 -0.28737665190E+02 -0.38979770231E+02  0.88782117137E+02  0.13593789883E+03  0.90838164492E+02 0.  0.
          5    1    1    2  502    0 -0.10771371672E+02  0.72223867733E+01 -0.78923523002E+02  0.80091074419E+02  0.41800000000E+01 0. -1.
         -5    1    1    2    0  502  0.39509036863E+02  0.31757383458E+02  0.34214105579E+02  0.61299044189E+02  0.41800000000E+01 0. -1.
        -11    1    3    3    0    0 -0.40353007300E+02  0.86250401238E+01  0.88833312225E+01  0.42209834030E+02  0.00000000000E+00 0. -1.
         11    1    3    3    0    0  0.11615342110E+02 -0.47604810355E+02  0.79898785915E+02  0.93728064804E+02  0.00000000000E+00 0.  1.
</event>
<event>
 7    1  0.5831876E-006  0.1073722E+03  0.7561462E-02  0.1265515E+00
         -2   -1    0    0    0  501 -0.00000000000E+00  0.00000000000E+00  0.16910626349E+03  0.16910626349E+03  0.00000000000E+00 0.  1.
          2   -1    0    0  501    0  0.00000000000E+00 -0.00000000000E+00 -0.92208124437E+02  0.92208124437E+02  0.00000000000E+00 0. -1.
         23    2    1    2    0    0  0.47592090342E+02 -0.24903796261E+02  0.70101767248E+02  0.12500400897E+03  0.88467724945E+02 0.  0.
          5    1    1    2  502    0 -0.13167795084E+02 -0.49107188952E+02 -0.12085612595E+02  0.52425578356E+02  0.41800000000E+01 0. -1.
         -5    1    1    2    0  502 -0.34424295258E+02  0.74010985213E+02  0.18881984401E+02  0.83884800596E+02  0.41800000000E+01 0. -1.
        -11    1    3    3    0    0  0.33684267801E+02  0.17082979005E+02  0.71378992850E+02  0.80755301307E+02  0.00000000000E+00 0.  1.
         11    1    3    3    0    0  0.13907822541E+02 -0.41986775265E+02 -0.12772256014E+01  0.44248707667E+02  0.00000000000E+00 0. -1.
</event>
<event>
 7    1  0.5831876E-006  0.1044281E+03  0.7561462E-02  0.1271250E+00
          2   -1    0    0  501    0  0.00000000000E+00  0.00000000000E+00  0.84535213397E+03  0.84535213397E+03  0.00000000000E+00 0.  1.
         -2   -1    0    0    0  501 -0.00000000000E+00 -0.00000000000E+00 -0.20298368898E+02  0.20298368898E+02  0.00000000000E+00 0. -1.
         23    2    1    2    0    0 -0.68861811223E+02  0.19482410837E+02  0.31155333021E+03  0.33231049478E+03  0.90792477673E+02 0.  0.
          5    1    1    2  502    0 -0.33291169045E+01  0.13448748365E+02  0.36180818701E+03  0.36209748472E+03  0.41800000000E+01 0. -1.
         -5    1    1    2    0  502  0.72190928127E+02 -0.32931159201E+02  0.15169224785E+03  0.17124252336E+03  0.41800000000E+01 0. -1.
        -11    1    3    3    0    0 -0.39668542401E+01  0.45015659752E+02  0.10532615342E+03  0.11461127409E+03  0.00000000000E+00 0. -1.
         11    1    3    3    0    0 -0.64894956983E+02 -0.25533248915E+02  0.20622717679E+03  0.21769922069E+03  0.00000000000E+00 0.  1.
</event>
<event>
 7    1  0.5831876E-006  0.6306068E+02  0.7561462E-02  0.1385419E+00
         -1   -1    0    0    0  501 -0.00000000000E+00  0.00000000000E+00  0.13052122816E+02  0.13052122816E+02  0.00000000000E+00 0.  1.
          1   -1    0    0  501    0  0.00000000000E+00 -0.00000000000E+00 -0.10000998454E+04  0.10000998454E+04  0.00000000000E+00 0. -1.
         23    2    1    2    0    0 -0.35613903542E+01  0.79930024470E+01 -0.30338234725E+03  0.31808175706E+03  0.95176593578E+02 0.  0.
          5    1    1    2  502    0  0.13183918377E+01 -0.22157659468E+02 -0.67906419397E+03  0.67943973387E+03  0.41800000000E+01 0. -1.
         -5    1    1    2    0  502  0.22429985165E+01  0.14164657021E+02 -0.46011813991E+01  0.15630477316E+02  0.41800000000E+01 0. -1.
        -11    1    3    3    0    0 -0.29577450704E+02 -0.30273439849E+02 -0.86264811563E+02  0.96088107820E+02  0.00000000000E+00 0.  1.
         11    1    3    3    0    0  0.26016060350E+02  0.38266442296E+02 -0.21711753568E+03  0.22199364924E+03  0.00000000000E+00 0. -1.
</event>
<event>
 7    1  0.5831876E-006  0.1188446E+03  0.7561462E-02  0.1245015E+00
         -1   -1    0    0    0  501 -0.00000000000E+00  0.00000000000E+00  0.38599835991E+02  0.38599835991E+02  0.00000000000E+00 0.  1.
          1   -1    0    0  501    0  0.00000000000E+00 -0.00000000000E+00 -0.70399772762E+03  0.70399772762E+03  0.00000000000E+00 0. -1.
         23    2    1    2    0    0  0.66660651985E+02 -0.96193144823E+02 -0.21984892847E+03  0.26525209884E+03  0.91259854005E+02 0.  0.
          5    1    1    2  502    0 -0.12978252203E+02  0.34616530457E+02 -0.16727962683E+02  0.40792601616E+02  0.41800000000E+01 0.  1.
         -5    1    1    2    0  502 -0.53682399782E+02  0.61576614367E+02 -0.42882100047E+03  0.43655286316E+03  0.41800000000E+01 0.  1.
        -11    1    3    3    0    0  0.19850436560E+02 -0.45742357254E+02 -0.17766674304E+03  0.18453150046E+03  0.00000000000E+00 0. -1.
         11    1    3    3    0    0  0.46810215425E+02 -0.50450787569E+02 -0.42182185427E+02  0.80720598374E+02  0.00000000000E+00 0.  1.
</event>
<event>
 7    1  0.5831876E-006  0.1190807E+03  0.7561462E-02  0.1244621E+00
         -1   -1    0    0    0  501 -0.00000000000E+00  0.00000000000E+00  0.16608327019E+02  0.16608327019E+02  0.00000000000E+00 0.  1.
          1   -1    0    0  501    0  0.00000000000E+00 -0.00000000000E+00 -0.15262789205E+04  0.15262789205E+04  0.00000000000E+00 0. -1.
         23    2    1    2    0    0 -0.57766037682E+02  0.36686506771E+01 -0.21597430482E+03  0.24186911342E+03  0.92224690703E+02 0.  0.
          5    1    1    2  502    0  0.92457419566E+02  0.15305162880E+02 -0.74496273342E+03  0.75084590231E+03  0.41800000000E+01 0.  1.
         -5    1    1    2    0  502 -0.34691381884E+02 -0.18973813557E+02 -0.54873355520E+03  0.55017223174E+03  0.41800000000E+01 0.  1.
        -11    1    3    3    0    0 -0.47402686278E+02 -0.38562422604E+02 -0.15795607899E+03  0.16936409890E+03  0.00000000000E+00 0.  1.
         11    1    3    3    0    0 -0.10363351404E+02  0.42231073281E+02 -0.58018225827E+02  0.72505014522E+02  0.00000000000E+00 0. -1.
</event>
<event>
 7    1  0.5831876E-006  0.9311384E+02  0.7561462E-02  0.1295482E+00
          1   -1    0    0  501    0  0.00000000000E+00  0.00000000000E+00  0.49868859214E+02  0.49868859214E+02  0.00000000000E+00 0. -1.
         -1   -1    0    0    0  501 -0.00000000000E+00 -0.00000000000E+00 -0.25256087076E+03  0.25256087076E+03  0.00000000000E+00 0.  1.
         23    2    1    2    0    0  0.12577590452E+02  0.24206359859E+02 -0.10157735890E+03  0.13929279854E+03  0.91325682290E+02 0.  0.
          5    1    1    2  502    0  0.63451420603E+01 -0.54498394312E+02 -0.11265075798E+03  0.12537145403E+03  0.41800000000E+01 0. -1.
         -5    1    1    2    0  502 -0.18922732513E+02  0.30292034453E+02  0.11536105339E+02  0.37765477403E+02  0.41800000000E+01 0. -1.
        -11    1    3    3    0    0  0.51214079654E+02  0.24109379726E+02 -0.62995827584E+02  0.84691312651E+02  0.00000000000E+00 0. -1.
         11    1    3    3    0    0 -0.38636489202E+02  0.96980133295E-01 -0.38581531317E+02  0.54601485893E+02  0.00000000000E+00 0.  1.
</event>
<event>
 7    1  0.5831876E-006  0.1235403E+03  0.7561462E-02  0.1237368E+00
         -2   -1    0    0    0  501 -0.00000000000E+00  0.00000000000E+00  0.41706740779E+02  0.41706740779E+02  0.00000000000E+00 0.  1.
          2   -1    0    0  501    0  0.00000000000E+00 -0.00000000000E+00 -0.59361389269E+03  0.59361389269E+03  0.00000000000E+00 0. -1.
         23    2    1    2    0    0  0.11675632990E+02  0.11300980203E+03 -0.24290414902E+03  0.28312958984E+03  0.90842739240E+02 0.  0.
          5    1    1    2  502    0  0.17371833135E+02 -0.92891514593E+02 -0.30128117593E+03  0.31578225637E+03  0.41800000000E+01 0. -1.
         -5    1    1    2    0  502 -0.29047466125E+02 -0.20118287436E+02 -0.77218269583E+01  0.36408787252E+02  0.41800000000E+01 0. -1.
        -11    1    3    3    0    0 -0.47094347243E+01  0.79149351146E+02 -0.68704436943E+02  0.10491471879E+03  0.00000000000E+00 0.  1.
         11    1    3    3    0    0  0.16385067714E+02  0.33860450883E+02 -0.17419971208E+03  0.17821487105E+03  0.00000000000E+00 0. -1.
</event>
<event>
 7    1  0.5831876E-006  0.9495590E+02  0.7561462E-02  0.1291275E+00
         -1   -1    0    0    0  501 -0.00000000000E+00  0.00000000000E+00  0.76743862588E+02  0.76743862588E+02  0.00000000000E+00 0.  1.
          1   -1    0    0  501    0  0.00000000000E+00 -0.00000000000E+00 -0.38359422798E+03  0.38359422798E+03  0.00000000000E+00 0. -1.
         23    2    1    2    0    0 -0.43773454170E+02  0.31215220797E+01  0.26282928483E+02  0.10485576610E+03  0.91531853281E+02 0.  0.
          5    1    1    2  502    0  0.62993196675E+02  0.40188816423E+02 -0.23088471165E+03  0.24271074609E+03  0.41800000000E+01 0. -1.
         -5    1    1    2    0  502 -0.19219742506E+02 -0.43310338502E+02 -0.10224858223E+03  0.11277157838E+03  0.41800000000E+01 0.  1.
        -11    1    3    3    0    0 -0.42557032003E+02 -0.18102625364E+02 -0.22656207010E+02  0.51498638177E+02  0.00000000000E+00 0. -1.
         11    1    3    3    0    0 -0.12164221665E+01  0.21224147444E+02  0.48939135493E+02  0.53357127925E+02  0.00000000000E+00 0.  1.
</event>
<event>
 7    1  0.5831876E-006  0.3097164E+03  0.7561462E-02  0.1080482E+00
         -3   -1    0    0    0  501 -0.00000000000E+00  0.00000000000E+00  0.14862980736E+04  0.14862980736E+04  0.00000000000E+00 0.  1.
          3   -1    0    0  501    0  0.00000000000E+00 -0.00000000000E+00 -0.65904714335E+02  0.65904714335E+02  0.00000000000E+00 0. -1.
         23    2    1    2    0    0 -0.28872284119E+03 -0.41056214626E+02  0.61777547168E+03  0.68913317004E+03  0.90617332017E+02 0.  0.
          5    1    1    2  502    0  0.24829658496E+03 -0.13539075714E+02  0.60827832100E+03  0.65715636561E+03  0.41800000000E+01 0. -1.
         -5    1    1    2    0  502  0.40426256228E+02  0.54595290340E+02  0.19433956657E+03  0.20591325226E+03  0.41800000000E+01 0. -1.
        -11    1    3    3    0    0 -0.26825359394E+03 -0.59886905318E+02  0.58348019126E+03  0.64497718230E+03  0.00000000000E+00 0.  1.
         11    1    3    3    0    0 -0.20469247253E+02  0.18830690691E+02  0.34295280418E+02  0.44155987748E+02  0.00000000000E+00 0. -1.
</event>
<event>
 7    1  0.5831876E-006  0.1302589E+03  0.7561462E-02  0.1227072E+00
         -1   -1    0    0    0  501 -0.00000000000E+00  0.00000000000E+00  0.17737969967E+03  0.17737969967E+03  0.00000000000E+00 0.  1.
          1   -1    0    0  501    0  0.00000000000E+00 -0.00000000000E+00 -0.12130510105E+03  0.12130510105E+03  0.00000000000E+00 0. -1.
         23    2    1    2    0    0 -0.36501312907E+02 -0.96460408266E+02  0.21382866559E+02  0.13288347837E+03  0.81017502029E+02 0.  0.
          5    1    1    2  502    0  0.43199491109E+01  0.10016156047E+03 -0.19794193255E+02  0.10227552318E+03  0.41800000000E+01 0. -1.
         -5    1    1    2    0  502  0.32181363796E+02 -0.37011521987E+01  0.54485925316E+02  0.63525799176E+02  0.41800000000E+01 0. -1.
        -11    1    3    3    0    0 -0.53891765868E+02 -0.96029528921E+02  0.29031072188E+02  0.11388062173E+03  0.00000000000E+00 0.  1.
         11    1    3    3    0    0  0.17390452961E+02 -0.43087934501E+00 -0.76482056287E+01  0.19002856642E+02  0.00000000000E+00 0. -1.
</event>
<event>
 7    1  0.5831876E-006  0.1333278E+03  0.7561462E-02  0.1222600E+00
         -3   -1    0    0    0  501 -0.00000000000E+00  0.00000000000E+00  0.13762655849E+03  0.13762655849E+03  0.00000000000E+00 0.  1.
          3   -1    0    0  501    0  0.00000000000E+00 -0.00000000000E+00 -0.17839472753E+03  0.17839472753E+03  0.00000000000E+00 0. -1.
         23    2    1    2    0    0 -0.58164010306E+01  0.11471386609E+03 -0.23185749439E+02  0.14529081065E+03  0.85899587236E+02 0.  0.
          5    1    1    2  502    0 -0.77284471012E+01 -0.10820871289E+03 -0.61047609287E+02  0.12455174603E+03  0.41800000000E+01 0.  1.
         -5    1    1    2    0  502  0.13544848132E+02 -0.65051532030E+01  0.43465189683E+02  0.46178729338E+02  0.41800000000E+01 0.  1.
        -11    1    3    3    0    0 -0.37350033204E+02  0.10176980497E+03 -0.24642729163E+02  0.11117275874E+03  0.00000000000E+00 0.  1.
         11    1    3    3    0    0  0.31533632173E+02  0.12944061116E+02  0.14569797242E+01  0.34118051910E+02  0.00000000000E+00 0. -1.
</event>
<event>
 7    1  0.5831876E-006  0.1176856E+03  0.7561462E-02  0.1246965E+00
          2   -1    0    0  501    0  0.00000000000E+00  0.00000000000E+00  0.43773952831E+03  0.43773952831E+03  0.00000000000E+00 0. -1.
         -2   -1    0    0    0  501 -0.00000000000E+00 -0.00000000000E+00 -0.37314057153E+02  0.37314057153E+02  0.00000000000E+00 0.  1.
         23    2    1    2    0    0 -0.66185371960E+02  0.14991568937E+02  0.11446995822E+03  0.15564311444E+03  0.80722717610E+02 0.  0.
          5    1    1    2  502    0  0.10325130332E+03 -0.62641558070E+01  0.21989809003E+03  0.24304878869E+03  0.41800000000E+01 0.  1.
         -5    1    1    2    0  502 -0.37065931355E+02 -0.87274131302E+01  0.66057422916E+02  0.76361682338E+02  0.41800000000E+01 0.  1.
        -11    1    3    3    0    0 -0.68811524920E+02  0.32311005834E+02  0.55492978012E+02  0.94119592373E+02  0.00000000000E+00 0.  1.
         11    1    3    3    0    0  0.26261529600E+01 -0.17319436896E+02  0.58976980203E+02  0.61523522068E+02  0.00000000000E+00 0. -1.
</event>
<event>
 7    1  0.5831876E-006  0.1636268E+03  0.7561462E-02  0.1184662E+00
          1   -1    0    0  501    0  0.00000000000E+00  0.00000000000E+00  0.73694317986E+03  0.73694317986E+03  0.00000000000E+00 0. -1.
         -1   -1    0    0    0  501 -0.00000000000E+00 -0.00000000000E+00 -0.40731205953E+02  0.40731205953E+02  0.00000000000E+00 0.  1.
         23    2    1    2    0    0  0.95035410516E+02  0.89130719971E+02  0.26442446627E+03  0.30963005321E+03  0.94733610699E+02 0.  0.
          5    1    1    2  502    0 -0.11814492370E+03 -0.68407084890E+02  0.40295262639E+03  0.42547155460E+03  0.41800000000E+01 0. -1.
         -5    1    1    2    0  502  0.23109513181E+02 -0.20723635081E+02  0.28834881253E+02  0.42572778008E+02  0.41800000000E+01 0. -1.
        -11    1    3    3    0    0  0.98922923301E+01  0.71776607039E+02  0.97871131982E+02  0.12177231722E+03  0.00000000000E+00 0.  1.
         11    1    3    3    0    0  0.85143118186E+02  0.17354112931E+02  0.16655333429E+03  0.18785773599E+03  0.00000000000E+00 0. -1.
</event>
<event>
 7    1  0.5831876E-006  0.6096489E+02  0.7561462E-02  0.1393827E+00
         -2   -1    0    0    0  501 -0.00000000000E+00  0.00000000000E+00  0.51792702515E+02  0.51792702515E+02  0.00000000000E+00 0.  1.
          2   -1    0    0  501    0  0.00000000000E+00 -0.00000000000E+00 -0.23410906872E+03  0.23410906872E+03  0.00000000000E+00 0. -1.
         23    2    1    2    0    0 -0.85233951735E+01  0.17506739228E+02 -0.67208381585E+02  0.11480125543E+03  0.91012238236E+02 0.  0.
          5    1    1    2  502    0  0.22502946219E+02 -0.25969610311E+02  0.16548191974E+02  0.38368193935E+02  0.41800000000E+01 0. -1.
         -5    1    1    2    0  502 -0.13979551046E+02  0.84628710830E+01 -0.13165617659E+03  0.13273232187E+03  0.41800000000E+01 0. -1.
        -11    1    3    3    0    0 -0.37575551432E+02  0.17363572253E+02  0.20516682285E+00  0.41393934341E+02  0.00000000000E+00 0.  1.
         11    1    3    3    0    0  0.29052156259E+02  0.14316697479E+00 -0.67413548408E+02  0.73407321086E+02  0.00000000000E+00 0. -1.
</event>
<event>
 7    1  0.5831876E-006  0.8885260E+02  0.7561462E-02  0.1305654E+00
         -1   -1    0    0    0  501 -0.00000000000E+00  0.00000000000E+00  0.71058422200E+02  0.71058422200E+02  0.00000000000E+00 0.  1.
          1   -1    0    0  501    0  0.00000000000E+00 -0.00000000000E+00 -0.20821023911E+03  0.20821023911E+03  0.00000000000E+00 0. -1.
         23    2    1    2    0    0 -0.23659137031E+02  0.20172470164E+02 -0.33314610075E+01  0.93468609024E+02  0.88082909369E+02 0.  0.
          5    1    1    2  502    0 -0.24063570016E+02 -0.60114547178E+02 -0.53449759502E+02  0.84066422400E+02  0.41800000000E+01 0. -1.
         -5    1    1    2    0  502  0.47722707047E+02  0.39942077014E+02 -0.80370596403E+02  0.10173362989E+03  0.41800000000E+01 0. -1.
        -11    1    3    3    0    0 -0.34699410049E+02  0.18362655368E+02 -0.39450926441E+02  0.55656192530E+02  0.00000000000E+00 0. -1.
         11    1    3    3    0    0  0.11040273018E+02  0.18098147961E+01  0.36119465434E+02  0.37812416494E+02  0.00000000000E+00 0.  1.
</event>
<event>
 7    1  0.5831876E-006  0.4771370E+02  0.7561462E-02  0.1458078E+00
         -3   -1    0    0    0  501 -0.00000000000E+00  0.00000000000E+00  0.58519704473E+02  0.58519704473E+02  0.00000000000E+00 0.  1.
          3   -1    0    0  501    0  0.00000000000E+00 -0.00000000000E+00 -0.20415195273E+03  0.20415195273E+03  0.00000000000E+00 0. -1.
         23    2    1    2    0    0  0.98838060250E+01  0.24325115188E+02 -0.60062895130E+02  0.10885563077E+03  0.86905673744E+02 0.  0.
          5    1    1    2  502    0 -0.24863071451E+01  0.14003000924E+02 -0.10772294002E+03  0.10873807964E+03  0.41800000000E+01 0. -1.
         -5    1    1    2    0  502 -0.73974988799E+01 -0.38328116112E+02  0.22153586892E+02  0.45077946787E+02  0.41800000000E+01 0. -1.
        -11    1    3    3    0    0 -0.11702775851E+02  0.67584166234E+01  0.19974980415E+02  0.24117027189E+02  0.00000000000E+00 0.  1.
         11    1    3    3    0    0  0.21586581876E+02  0.17566698564E+02 -0.80037875544E+02  0.84738603583E+02  0.00000000000E+00 0. -1.
</event>
<event>
 7    1  0.5831876E-006  0.1030019E+03  0.7561462E-02  0.1274107E+00
          1   -1    0    0  501    0  0.00000000000E+00  0.00000000000E+00  0.26394140973E+04  0.26394140973E+04  0.00000000000E+00 0. -1.
         -1   -1    0    0    0  501 -0.00000000000E+00 -0.00000000000E+00 -0.10481269027E+02  0.10481269027E+02  0.00000000000E+00 0.  1.
         23    2    1    2    0    0 -0.50380228478E+02  0.18898401431E+02  0.31546815131E+03  0.33242675005E+03  0.89955948450E+02 0.  0.
          5    1    1    2  502    0 -0.17903054494E+02  0.16280223434E+02  0.11200883564E+03  0.11466916193E+03  0.41800000000E+01 0. -1.
         -5    1    1    2    0  502  0.68283282972E+02 -0.35178624865E+02  0.22014558414E+04  0.22027994544E+04  0.41800000000E+01 0. -1.
        -11    1    3    3    0    0 -0.14557066358E+02  0.53059820242E+02  0.15347301089E+03  0.16303747353E+03  0.00000000000E+00 0.  1.
         11    1    3    3    0    0 -0.35823162121E+02 -0.34161418811E+02  0.16199514042E+03  0.16938927652E+03  0.00000000000E+00 0. -1.
</event>
<event>
 7    1  0.5831876E-006  0.1336089E+03  0.7561462E-02  0.1222197E+00
          2   -1    0    0  501    0  0.00000000000E+00  0.00000000000E+00  0.26333291424E+03  0.26333291424E+03  0.00000000000E+00 0. -1.
         -2   -1    0    0    0  501 -0.00000000000E+00 -0.00000000000E+00 -0.70093300898E+02  0.70093300898E+02  0.00000000000E+00 0.  1.
         23    2    1    2    0    0  0.65149523939E+02 -0.43629314993E+02  0.59488897589E+02  0.13421435574E+03  0.91250132900E+02 0.  0.
          5    1    1    2  502    0 -0.31298746539E+02  0.86917880536E+02  0.81341280129E+02  0.12315926983E+03  0.41800000000E+01 0.  1.
         -5    1    1    2    0  502 -0.33850777400E+02 -0.43288565543E+02  0.52409435620E+02  0.76052589564E+02  0.41800000000E+01 0.  1.
        -11    1    3    3    0    0 -0.21934099741E+02  0.63424817764E+00  0.16658086696E+02  0.27549933839E+02  0.00000000000E+00 0.  1.
         11    1    3    3    0    0  0.87083623679E+02 -0.44263563171E+02  0.42830810894E+02  0.10666442190E+03  0.00000000000E+00 0. -1.
</event>
<event>
 7    1  0.5831876E-006  0.9842366E+02  0.7561462E-02  0.1283646E+00
         -2   -1    0    0    0  501 -0.00000000000E+00  0.00000000000E+00  0.11169315390E+03  0.11169315390E+03  0.00000000000E+00 0.  1.
          2   -1    0    0  501    0  0.00000000000E+00 -0.00000000000E+00 -0.16567494148E+03  0.16567494148E+03  0.00000000000E+00 0. -1.
         23    2    1    2    0    0 -0.51069750796E+02 -0.54107774252E+02  0.60052601057E+01  0.11994369843E+03  0.93886404572E+02 0.  0.
          5    1    1    2  502    0  0.54706999268E+02  0.46008549834E+02  0.21957070912E+02  0.74894778121E+02  0.41800000000E+01 0. -1.
         -5    1    1    2    0  502 -0.36372484725E+01  0.80992244180E+01 -0.81944118596E+02  0.82529618836E+02  0.41800000000E+01 0. -1.
        -11    1    3    3    0    0  0.16524001310E+02 -0.44107016883E+02  0.18274063558E+02  0.50521410872E+02  0.00000000000E+00 0.  1.
         11    1    3    3    0    0 -0.67593752106E+02 -0.10000757369E+02 -0.12268803452E+02  0.69422287559E+02  0.00000000000E+00 0. -1.
</event>
<event>
 7    1  0.5831876E-006  0.1357648E+03  0.7561462E-02  0.1219144E+00
         -1   -1    0    0    0  501 -0.00000000000E+00  0.00000000000E+00  0.51615081713E+02  0.51615081713E+02  0.00000000000E+00 0.  1.
          1   -1    0    0  501    0  0.00000000000E+00 -0.00000000000E+00 -0.47659601940E+03  0.47659601940E+03  0.00000000000E+00 0. -1.
         23    2    1    2    0    0 -0.84290734982E+02 -0.71248312769E+02 -0.15421353930E+03  0.21017982556E+03  0.90622807788E+02 0.  0.
          5    1    1    2  502    0  0.94853068234E+02  0.89228549859E+02 -0.16548355304E+03  0.21062079050E+03  0.41800000000E+01 0.  1.
         -5    1    1    2    0  502 -0.10562333252E+02 -0.17980237090E+02 -0.10528384534E+03  0.10741048505E+03  0.41800000000E+01 0.  1.
        -11    1    3    3    0    0 -0.57594496289E+02 -0.17897686280E+02 -0.20396111487E+02  0.63666745957E+02  0.00000000000E+00 0.  1.
         11    1    3    3    0    0 -0.26696238693E+02 -0.53350626488E+02 -0.13381742782E+03  0.14651307960E+03  0.00000000000E+00 0. -1.
</event>
<event>
 7    1  0.5831876E-006  0.1215180E+03  0.7561462E-02  0.1240614E+00
         -1   -1    0    0    0  501 -0.00000000000E+00  0.00000000000E+00  0.14150739316E+03  0.14150739316E+03  0.00000000000E+00 0.  1.
          1   -1    0    0  501    0  0.00000000000E+00 -0.00000000000E+00 -0.13871696674E+03  0.13871696674E+03  0.00000000000E+00 0. -1.
         23    2    1    2    0    0  0.71554701364E+01 -0.85675843546E+02  0.12927794599E+02  0.12811348612E+03  0.94097749886E+02 0.  0.
          5    1    1    2  502    0 -0.32938068743E+02  0.40606745658E+01  0.40537171837E+02  0.52556066738E+02  0.41800000000E+01 0.  1.
         -5    1    1    2    0  502  0.25782598607E+02  0.81615168980E+02 -0.50674540017E+02  0.99554807039E+02  0.41800000000E+01 0.  1.
        -11    1    3    3    0    0  0.20982097900E+02 -0.10105643214E+03 -0.93407107689E+00  0.10321590671E+03  0.00000000000E+00 0. -1.
         11    1    3    3    0    0 -0.13826627764E+02  0.15380588592E+02  0.13861865676E+02  0.24897579416E+02  0.00000000000E+00 0.  1.
</event>
<event>
 7    1  0.5831876E-006  0.1011945E+03  0.7561462E-02  0.1277804E+00
         -1   -1    0    0    0  501 -0.00000000000E+00  0.00000000000E+00  0.92589729954E+01  0.92589729954E+01  0.00000000000E+00 0.  1.
          1   -1    0    0  501    0  0.00000000000E+00 -0.00000000000E+00 -0.15834883373E+04  0.15834883373E+04  0.00000000000E+00 0. -1.
         23    2    1    2    0    0  0.26174376368E+02 -0.31676893909E+02 -0.48278999107E+03  0.49339482528E+03  0.93079291707E+02 0.  0.
          5    1    1    2  502    0  0.21497508315E+02 -0.20392892393E+02 -0.75343398294E+03  0.75402801803E+03  0.41800000000E+01 0.  1.
         -5    1    1    2    0  502 -0.47671884683E+02  0.52069786302E+02 -0.33800539029E+03  0.34532446699E+03  0.41800000000E+01 0.  1.
        -11    1    3    3    0    0  0.57679287630E+02 -0.38708563048E+02 -0.33106007505E+03  0.33826916261E+03  0.00000000000E+00 0.  1.
         11    1    3    3    0    0 -0.31504911262E+02  0.70316691389E+01 -0.15172991602E+03  0.15512566267E+03  0.00000000000E+00 0. -1.
</event>
<event>
 7    1  0.5831876E-006  0.1921731E+03  0.7561462E-02  0.1156516E+00
         -2   -1    0    0    0  501 -0.00000000000E+00  0.00000000000E+00  0.23873714574E+03  0.23873714574E+03  0.00000000000E+00 0.  1.
          2   -1    0    0  501    0  0.00000000000E+00 -0.00000000000E+00 -0.99519557026E+03  0.99519557026E+03  0.00000000000E+00 0. -1.
         23    2    1    2    0    0  0.40634396987E+02  0.36313272782E+02  0.14149471667E+03  0.17655853573E+03  0.90456363491E+02 0.  0.
          5    1    1    2  502    0 -0.35969636885E+02  0.11870489485E+03 -0.89359126839E+03  0.90216821834E+03  0.41800000000E+01 0. -1.
         -5    1    1    2    0  502 -0.46647601015E+01 -0.15501816764E+03 -0.43618727967E+01  0.15520596193E+03  0.41800000000E+01 0.  1.
        -11    1    3    3    0    0 -0.36550829735E+01 -0.27322082147E+02  0.29818883462E+02  0.40608147154E+02  0.00000000000E+00 0. -1.
         11    1    3    3    0    0  0.44289479960E+02  0.63635354928E+02  0.11167583320E+03  0.13595038858E+03  0.00000000000E+00 0.  1.
</event>
<event>
 7    1  0.5831876E-006  0.1171346E+03  0.7561462E-02  0.1247900E+00
         -2   -1    0    0    0  501 -0.00000000000E+00  0.00000000000E+00  0.27976521288E+02  0.27976521288E+02  0.00000000000E+00 0.  1.
          2   -1    0    0  501    0  0.00000000000E+00 -0.00000000000E+00 -0.96053033664E+03  0.96053033664E+03  0.00000000000E+00 0. -1.
         23    2    1    2    0    0 -0.10919091752E+03  0.34118120548E+02 -0.29952606088E+03  0.33317589209E+03  0.90573789285E+02 0.  0.
          5    1    1    2  502    0  0.37310611997E+02 -0.20167394370E+02 -0.42225450409E+02  0.59993888235E+02  0.41800000000E+01 0.  1.
         -5    1    1    2    0  502  0.71880305522E+02 -0.13950726178E+02 -0.59080230407E+03  0.59533707761E+03  0.41800000000E+01 0.  1.
        -11    1    3    3    0    0 -0.30292879162E+02 -0.42298380325E+01 -0.12498016242E+02  0.33041647472E+02  0.00000000000E+00 0.  1.
         11    1    3    3    0    0 -0.78898038357E+02  0.38347958581E+02 -0.28702804463E+03  0.30013424461E+03  0.00000000000E+00 0. -1.
</event>
<event>
 7    1  0.5831876E-006  0.1443182E+03  0.7561462E-02  0.1207634E+00
          2   -1    0    0  501    0  0.00000000000E+00  0.00000000000E+00  0.10385960068E+04  0.10385960068E+04  0.00000000000E+00 0.  1.
         -2   -1    0    0    0  501 -0.00000000000E+00 -0.00000000000E+00 -0.26558519248E+02  0.26558519248E+02  0.00000000000E+00 0. -1.
         23    2    1    2    0    0 -0.69344379718E+02 -0.66515826710E+02  0.21181444797E+03  0.24953467162E+03  0.90383592364E+02 0.  0.
          5    1    1    2  502    0  0.88022268596E+02  0.43605270086E+00  0.40787325555E+03  0.41728428547E+03  0.41800000000E+01 0.  1.
         -5    1    1    2    0  502 -0.18677888878E+02  0.66079774009E+02  0.39234978401E+03  0.39833556893E+03  0.41800000000E+01 0.  1.
        -11    1    3    3    0    0 -0.75854925239E+02 -0.83928472511E+02  0.17690880673E+03  0.20998734266E+03  0.00000000000E+00 0. -1.
         11    1    3    3    0    0  0.65105455211E+01  0.17412645801E+02  0.34905641246E+02  0.39547328956E+02  0.00000000000E+00 0.  1.
</event>
<event>
 7    1  0.5831876E-006  0.1323829E+03  0.7561462E-02  0.1223962E+00
         -1   -1    0    0    0  501 -0.00000000000E+00  0.00000000000E+00  0.23858422355E+03  0.23858422355E+03  0.00000000000E+00 0.  1.
          1   -1    0    0  501    0  0.00000000000E+00 -0.00000000000E+00 -0.11824401855E+03  0.11824401855E+03  0.00000000000E+00 0. -1.
         23    2    1    2    0    0  0.26896869138E+02 -0.10801669108E+03  0.12175873494E+03  0.18937169906E+03  0.92980663317E+02 0.  0.
          5    1    1    2  502    0  0.10996314183E+02  0.99283363386E+02 -0.44356957363E+02  0.10937603594E+03  0.41800000000E+01 0.  1.
         -5    1    1    2    0  502 -0.37893183321E+02  0.87333276959E+01  0.42938427421E+02  0.58080507094E+02  0.41800000000E+01 0.  1.
        -11    1    3    3    0    0  0.29247783493E+01 -0.10051687220E+03  0.12868558923E+03  0.16331618659E+03  0.00000000000E+00 0.  1.
         11    1    3    3    0    0  0.23972090788E+02 -0.74998188844E+01 -0.69268542945E+01  0.26055512478E+02  0.00000000000E+00 0. -1.
</event>
<event>
 7    1  0.5831876E-006  0.1337016E+03  0.7561462E-02  0.1222064E+00
         -2   -1    0    0    0  501 -0.00000000000E+00  0.00000000000E+00  0.52313891600E+03  0.52313891600E+03  0.00000000000E+00 0.  1.
          2   -1    0    0  501    0  0.00000000000E+00 -0.00000000000E+00 -0.45079110446E+02  0.45079110446E+02  0.00000000000E+00 0. -1.
         23    2    1    2    0    0 -0.45726053766E+02 -0.93406329007E+02  0.16518018365E+03  0.21557790536E+03  0.91508064773E+02 0.  0.
          5    1    1    2  502    0  0.56388906822E+02  0.11958854073E+03  0.23485649200E+03  0.26954808870E+03  0.41800000000E+01 0.  1.
         -5    1    1    2    0  502 -0.10662853056E+02 -0.26182211721E+02  0.78023129905E+02  0.83092032386E+02  0.41800000000E+01 0.  1.
        -11    1    3    3    0    0 -0.37502978259E+02 -0.50759752208E+02  0.15980331758E+03  0.17181421982E+03  0.00000000000E+00 0.  1.
         11    1    3    3    0    0 -0.82230755074E+01 -0.42646576799E+02  0.53768660669E+01  0.43763685542E+02  0.00000000000E+00 0. -1.
</event>
<event>
 7    1  0.5831876E-006  0.2110777E+03  0.7561462E-02  0.1140715E+00
          2   -1    0    0  501    0  0.00000000000E+00  0.00000000000E+00  0.15740483001E+03  0.15740483001E+03  0.00000000000E+00 0. -1.
         -2   -1    0    0    0  501 -0.00000000000E+00 -0.00000000000E+00 -0.32848858533E+03  0.32848858533E+03  0.00000000000E+00 0.  1.
         23    2    1    2    0    0  0.16944640707E+03  0.10265652065E+03 -0.10727898897E+03  0.24305657201E+03  0.91199065891E+02 0.  0.
          5    1    1    2  502    0 -0.78706927707E+02  0.68829146496E+01 -0.62010023124E+02  0.10052298419E+03  0.41800000000E+01 0. -1.
         -5    1    1    2    0  502 -0.90739479364E+02 -0.10953943530E+03 -0.17947432238E+01  0.14231385914E+03  0.41800000000E+01 0. -1.
        -11    1    3    3    0    0  0.93925811838E+02  0.38013989140E+02 -0.65550319508E+01  0.10153861307E+03  0.00000000000E+00 0. -1.
         11    1    3    3    0    0  0.75520595233E+02  0.64642531510E+02 -0.10072395702E+03  0.14151795894E+03  0.00000000000E+00 0.  1.
</event>
<event>
 7    1  0.5831876E-006  0.8966699E+02  0.7561462E-02  0.1303660E+00
         -1   -1    0    0    0  501 -0.00000000000E+00  0.00000000000E+00  0.34566059356E+02  0.34566059356E+02  0.00000000000E+00 0.  1.
          1   -1    0    0  501    0  0.00000000000E+00 -0.00000000000E+00 -0.84318405390E+03  0.84318405390E+03  0.00000000000E+00 0. -1.
         23    2    1    2    0    0  0.63082167935E+01 -0.21993714958E+02 -0.47514116390E+02  0.10609565633E+03  0.92060740485E+02 0.  0.
          5    1    1    2  502    0 -0.18158874320E+02 -0.49516639964E+02 -0.26108285799E+03  0.26638951459E+03  0.41800000000E+01 0. -1.
         -5    1    1    2    0  502  0.11850657527E+02  0.71510354922E+02 -0.50002102016E+03  0.50526494233E+03  0.41800000000E+01 0. -1.
        -11    1    3    3    0    0  0.27675832534E+02 -0.13918725095E+02  0.18608917918E+02  0.36138268370E+02  0.00000000000E+00 0.  1.
         11    1    3    3    0    0 -0.21367615741E+02 -0.80749898630E+01 -0.66123034308E+02  0.69957387958E+02  0.00000000000E+00 0. -1.
</event>
<event>
 7    1  0.5831876E-006  0.1366886E+03  0.7561462E-02  0.1217855E+00
         -1   -1    0    0    0  501 -0.00000000000E+00  0.00000000000E+00  0.35620165007E+02  0.35620165007E+02  0.00000000000E+00 0.  1.
          1   -1    0    0  501    0  0.00000000000E+00 -0.00000000000E+00 -0.74961330347E+03  0.74961330347E+03  0.00000000000E+00 0. -1.
         23    2    1    2    0    0 -0.85459848013E+01  0.81669852878E+02 -0.16252090674E+03  0.21382092127E+03  0.11208631727E+03 0.  0.
          5    1    1    2  502    0 -0.23048540254E+02  0.23121621216E+02 -0.21650041336E+03  0.21898800415E+03  0.41800000000E+01 0.  1.
         -5    1    1    2    0  502  0.31594525055E+02 -0.10479147409E+03 -0.33497181836E+03  0.35242454306E+03  0.41800000000E+01 0.  1.
        -11    1    3    3    0    0 -0.26129578857E+02 -0.16695667581E+02 -0.12208246918E+02  0.33324788072E+02  0.00000000000E+00 0.  1.
         11    1    3    3    0    0  0.17583594056E+02  0.98365520460E+02 -0.15031265983E+03  0.18049613320E+03  0.00000000000E+00 0. -1.
</event>
<event>
 7    1  0.5831876E-006  0.8740457E+02  0.7561462E-02  0.1309261E+00
          1   -1    0    0  501    0  0.00000000000E+00  0.00000000000E+00  0.66649926812E+03  0.66649926812E+03  0.00000000000E+00 0. -1.
         -1   -1    0    0    0  501 -0.00000000000E+00 -0.00000000000E+00 -0.19731798617E+02  0.19731798617E+02  0.00000000000E+00 0.  1.
         23    2    1    2    0    0 -0.45958005221E+02 -0.13776341475E+02  0.22519723382E+03  0.24749767952E+03  0.90771038443E+02 0.  0.
          5    1    1    2  502    0  0.32316649666E+02  0.45538816829E+02  0.94722972569E+02  0.11003664670E+03  0.41800000000E+01 0. -1.
         -5    1    1    2    0  502  0.13641355555E+02 -0.31762475354E+02  0.32684726312E+03  0.32869674052E+03  0.41800000000E+01 0.  1.
        -11    1    3    3    0    0 -0.52114790934E+02  0.15266230353E+02  0.20377730693E+03  0.21088907047E+03  0.00000000000E+00 0.  1.
         11    1    3    3    0    0  0.61567857134E+01 -0.29042571828E+02  0.21419926884E+02  0.36608609048E+02  0.00000000000E+00 0. -1.
</event>
<event>
 7    1  0.5831876E-006  0.1257593E+03  0.7561462E-02  0.1233887E+00
          1   -1    0    0  501    0  0.00000000000E+00  0.00000000000E+00  0.28935938609E+02  0.28935938609E+02  0.00000000000E+00 0. -1.
         -1   -1    0    0    0  501 -0.00000000000E+00 -0.00000000000E+00 -0.72119457603E+03  0.72119457603E+03  0.00000000000E+00 0.  1.
         23    2    1    2    0    0  0.64684396342E+02 -0.37204270227E+02 -0.46916517982E+03  0.48369809593E+03  0.90992599697E+02 0.  0.
          5    1    1    2  502    0 -0.70120675955E+02 -0.23275421579E+02 -0.17096730872E+03  0.18629532334E+03  0.41800000000E+01 0.  1.
         -5    1    1    2    0  502  0.54362796138E+01  0.60479691806E+02 -0.52126148874E+02  0.80137095365E+02  0.41800000000E+01 0.  1.
        -11    1    3    3    0    0  0.46562365441E+02 -0.67110797294E+02 -0.35614677527E+03  0.36539353924E+03  0.00000000000E+00 0.  1.
         11    1    3    3    0    0  0.18122030901E+02  0.29906527068E+02 -0.11301840455E+03  0.11830455669E+03  0.00000000000E+00 0. -1.
</event>
<event>
 7    1  0.5831876E-006  0.7700716E+02  0.7561462E-02  0.1337766E+00
         -2   -1    0    0    0  501 -0.00000000000E+00  0.00000000000E+00  0.14150977923E+03  0.14150977923E+03  0.00000000000E+00 0.  1.
          2   -1    0    0  501    0  0.00000000000E+00 -0.00000000000E+00 -0.85658068218E+02  0.85658068218E+02  0.00000000000E+00 0. -1.
         23    2    1    2    0    0 -0.58367299042E+01  0.23548836905E+02  0.29617150073E+02  0.97087302992E+02  0.89219693389E+02 0.  0.
          5    1    1    2  502    0  0.31000175270E+02  0.17862879671E+02 -0.36112174845E+02  0.51006420272E+02  0.41800000000E+01 0. -1.
         -5    1    1    2    0  502 -0.25163445365E+02 -0.41411716576E+02  0.62346735785E+02  0.79074124183E+02  0.41800000000E+01 0. -1.
        -11    1    3    3    0    0 -0.23064364031E+02  0.39588128150E+02  0.48641648025E+02  0.66822112367E+02  0.00000000000E+00 0.  1.
         11    1    3    3    0    0  0.17227634126E+02 -0.16039291246E+02 -0.19024497952E+02  0.30265190625E+02  0.00000000000E+00 0. -1.
</event>
<event>
 7    1  0.5831876E-006  0.1254181E+03  0.7561462E-02  0.1234417E+00
         -2   -1    0    0    0  501 -0.00000000000E+00  0.00000000000E+00  0.49333826145E+02  0.49333826145E+02  0.00000000000E+00 0.  1.
          2   -1    0    0  501    0  0.00000000000E+00 -0.00000000000E+00 -0.38399325204E+03  0.38399325204E+03  0.00000000000E+00 0. -1.
         23    2    1    2    0    0  0.33987307287E+02 -0.69758149432E+02 -0.10215721772E+03  0.15814190304E+03  0.92473930894E+02 0.  0.
          5    1    1    2  502    0  0.41839068617E+02  0.52049227459E+02 -0.83406656306E+02  0.10692881959E+03  0.41800000000E+01 0.  1.
         -5    1    1    2    0  502 -0.75826375904E+02  0.17708921974E+02 -0.14909555186E+03  0.16825635556E+03  0.41800000000E+01 0.  1.
        -11    1    3    3    0    0  0.38320484617E+02 -0.83319484607E+02 -0.50781613334E+02  0.10483018797E+03  0.00000000000E+00 0.  1.
         11    1    3    3    0    0 -0.43331773298E+01  0.13561335175E+02 -0.51375604390E+02  0.53311715073E+02  0.00000000000E+00 0. -1.
</event>
<event>
 7    1  0.5831876E-006  0.1161744E+03  0.7561462E-02  0.1249545E+00
         -2   -1    0    0    0  501 -0.00000000000E+00  0.00000000000E+00  0.43114161629E+02  0.43114161629E+02  0.00000000000E+00 0.  1.
          2   -1    0    0  501    0  0.00000000000E+00 -0.00000000000E+00 -0.55170594499E+03  0.55170594499E+03  0.00000000000E+00 0. -1.
         23    2    1    2    0    0 -0.55067468897E+02  0.29797121157E+02 -0.62951609422E+02  0.12774097808E+03  0.91839848610E+02 0.  0.
          5    1    1    2  502    0 -0.70027246628E+01 -0.64317183851E+02 -0.15829499552E+03  0.17105705568E+03  0.41800000000E+01 0. -1.
         -5    1    1    2    0  502  0.62070193560E+02  0.34520062694E+02 -0.28734517842E+03  0.29602207286E+03  0.41800000000E+01 0. -1.
        -11    1    3    3    0    0 -0.42879940906E+01 -0.22835775979E+02  0.92142443614E+01  0.24995236687E+02  0.00000000000E+00 0.  1.
         11    1    3    3    0    0 -0.50779474807E+02  0.52632897136E+02 -0.72165853783E+02  0.10274574140E+03  0.00000000000E+00 0. -1.
</event>
<event>
 7    1  0.5831876E-006  0.9599651E+02  0.7561462E-02  0.1288947E+00
         -2   -1    0    0    0  501 -0.00000000000E+00  0.00000000000E+00  0.16788244450E+03  0.16788244450E+03  0.00000000000E+00 0.  1.
          2   -1    0    0  501    0  0.00000000000E+00 -0.00000000000E+00 -0.10576237234E+03  0.10576237234E+03  0.00000000000E+00 0. -1.
         23    2    1    2    0    0  0.86831219811E+01  0.48804292237E+02  0.68669533678E+02  0.11709110851E+03  0.80855224244E+02 0.  0.
          5    1    1    2  502    0  0.98939222387E+01 -0.68953708466E+02 -0.62774793063E+02  0.93865066199E+02  0.41800000000E+01 0. -1.
         -5    1    1    2    0  502 -0.18577044220E+02  0.20149416229E+02  0.56225331539E+02  0.62688642137E+02  0.41800000000E+01 0.  1.
        -11    1    3    3    0    0 -0.15220898284E+02  0.64247527485E+02  0.52540305019E+02  0.84379524672E+02  0.00000000000E+00 0.  1.
         11    1    3    3    0    0  0.23904020265E+02 -0.15443235248E+02  0.16129228659E+02  0.32711583833E+02  0.00000000000E+00 0. -1.
</event>
<event>
 7    1  0.5831876E-006  0.7187729E+02  0.7561462E-02  0.1353823E+00
          1   -1    0    0  501    0  0.00000000000E+00  0.00000000000E+00  0.15345605247E+04  0.15345605247E+04  0.00000000000E+00 0. -1.
         -1   -1    0    0    0  501 -0.00000000000E+00 -0.00000000000E+00 -0.20099050097E+02  0.20099050097E+02  0.00000000000E+00 0.  1.
         23    2    1    2    0    0  0.81365346613E+01  0.23490551223E+01  0.94654324065E+02  0.12994937426E+03  0.88632260209E+02 0.  0.
          5    1    1    2  502    0 -0.48338217816E+01  0.38215163942E+02  0.17530479692E+03  0.17953553634E+03  0.41800000000E+01 0. -1.
         -5    1    1    2    0  502 -0.33027128797E+01 -0.40564219065E+02  0.12445023537E+04  0.12451746642E+04  0.41800000000E+01 0.  1.
        -11    1    3    3    0    0 -0.16826742179E+02 -0.23013782248E+02 -0.33657524160E+00  0.28511168138E+02  0.00000000000E+00 0.  1.
         11    1    3    3    0    0  0.24963276840E+02  0.25362837370E+02  0.94990899306E+02  0.10143820612E+03  0.00000000000E+00 0. -1.
</event>
<event>
 7    1  0.5831876E-006  0.1664634E+03  0.7561462E-02  0.1181587E+00
          2   -1    0    0  501    0  0.00000000000E+00  0.00000000000E+00  0.11394540838E+04  0.11394540838E+04  0.00000000000E+00 0. -1.
         -2   -1    0    0    0  501 -0.00000000000E+00 -0.00000000000E+00 -0.33606758779E+02  0.33606758779E+02  0.00000000000E+00 0.  1.
         23    2    1    2    0    0 -0.15043347517E+02  0.15026217183E+03  0.34341622919E+03  0.38581726565E+03  0.90084590361E+02 0.  0.
          5    1    1    2  502    0  0.32630799267E+02 -0.11486256292E+03  0.71696503840E+03  0.72685247204E+03  0.41800000000E+01 0.  1.
         -5    1    1    2    0  502 -0.17587451750E+02 -0.35399608913E+02  0.45466057418E+02  0.60391104870E+02  0.41800000000E+01 0.  1.
        -11    1    3    3    0    0  0.35815439252E+02  0.53458229207E+02  0.99267449127E+02  0.11829858163E+03  0.00000000000E+00 0.  1.
         11    1    3    3    0    0 -0.50858786769E+02  0.96803942624E+02  0.24414878006E+03  0.26751868403E+03  0.00000000000E+00 0. -1.
</event>
<event>
 7    1  0.5831876E-006  0.1042746E+03  0.7561462E-02  0.1271555E+00
         -1   -1    0    0    0  501 -0.00000000000E+00  0.00000000000E+00  0.11349903443E+03  0.11349903443E+03  0.00000000000E+00 0.  1.
          1   -1    0    0  501    0  0.00000000000E+00 -0.00000000000E+00 -0.11677315001E+03  0.11677315001E+03  0.00000000000E+00 0. -1.
         23    2    1    2    0    0  0.11611439708E+02 -0.40577183087E+02  0.22089234360E+02  0.10390104285E+03  0.92337203294E+02 0.  0.
          5    1    1    2  502    0 -0.13829195237E+02 -0.37562856201E+02  0.84077721251E+01  0.41114204832E+02  0.41800000000E+01 0. -1.
         -5    1    1    2    0  502  0.22177555296E+01  0.78140039287E+02 -0.33771122062E+02  0.85256936754E+02  0.41800000000E+01 0.  1.
        -11    1    3    3    0    0 -0.31538964497E+02 -0.33993469938E+02  0.35319751099E+02  0.58290197269E+02  0.00000000000E+00 0.  1.
         11    1    3    3    0    0  0.43150404204E+02 -0.65837131488E+01 -0.13230516739E+02  0.45610845585E+02  0.00000000000E+00 0. -1.
</event>
<event>
 6    1  0.5831876E-006  0.4614846E+02  0.7561462E-02  0.1467297E+00
          3   -1    0    0  501    0  0.00000000000E+00  0.00000000000E+00  0.21843219976E+03  0.21843219976E+03  0.00000000000E+00 0. -1.
         -3   -1    0    0    0  501 -0.00000000000E+00 -0.00000000000E+00 -0.42199890589E+02  0.42199890589E+02  0.00000000000E+00 0.  1.
          5    1    1    2  502    0 -0.20965886977E+02 -0.11386098259E+02 -0.12927418257E+02  0.27455458348E+02  0.41800000000E+01 0.  1.
         -5    1    1    2    0  502 -0.32189805751E+01  0.23251092701E+02  0.18739336237E+03  0.18890399628E+03  0.41800000000E+01 0.  1.
        -11    1    1    2    0    0  0.24790176917E+02  0.66831311461E+01  0.72559808885E+00  0.25685474612E+02  0.00000000000E+00 0.  1.
         11    1    1    2    0    0 -0.60530936402E+00 -0.18548125588E+02  0.10407669631E+01  0.18587161110E+02  0.00000000000E+00 0. -1.
</event>
<event>
 7    1  0.5831876E-006  0.1363400E+03  0.7561462E-02  0.1218340E+00
         -2   -1    0    0    0  501 -0.00000000000E+00  0.00000000000E+00  0.13702372040E+03  0.13702372040E+03  0.00000000000E+00 0.  1.
          2   -1    0    0  501    0  0.00000000000E+00 -0.00000000000E+00 -0.23273200603E+03  0.23273200603E+03  0.00000000000E+00 0. -1.
         23    2    1    2    0    0 -0.98628026879E+02  0.63717595768E+02  0.38197554222E+02  0.15211737989E+03  0.88843820383E+02 0.  0.
          5    1    1    2  502    0  0.59808688507E+02 -0.88816942069E+01 -0.13746021047E+03  0.15022897715E+03  0.41800000000E+01 0. -1.
         -5    1    1    2    0  502  0.38819338373E+02 -0.54835901561E+02  0.35543706158E+01  0.67409369395E+02  0.41800000000E+01 0. -1.
        -11    1    3    3    0    0 -0.37598652557E+01  0.48534680902E+02 -0.12669924744E+00  0.48680261808E+02  0.00000000000E+00 0. -1.
         11    1    3    3    0    0 -0.94868161624E+02  0.15182914866E+02  0.38324253470E+02  0.10343711808E+03  0.00000000000E+00 0.  1.
</event>
<event>
 7    1  0.5831876E-006  0.9363949E+02  0.7561462E-02  0.1294270E+00
         -1   -1    0    0    0  501 -0.00000000000E+00  0.00000000000E+00  0.42151825677E+03  0.42151825677E+03  0.00000000000E+00 0.  1.
          1   -1    0    0  501    0  0.00000000000E+00 -0.00000000000E+00 -0.42023332923E+02  0.42023332923E+02  0.00000000000E+00 0. -1.
         23    2    1    2    0    0 -0.45272664801E+02  0.22265364689E+02  0.27369875394E+03  0.29211944320E+03  0.88754721274E+02 0.  0.
          5    1    1    2  502    0  0.56708320334E+02  0.12477160906E+02  0.11886655464E+03  0.13235650098E+03  0.41800000000E+01 0. -1.
         -5    1    1    2    0  502 -0.11435655533E+02 -0.34742525595E+02 -0.13070384728E+02  0.39065645511E+02  0.41800000000E+01 0. -1.
        -11    1    3    3    0    0 -0.22512077083E+02  0.50908899468E+02  0.22142608162E+03  0.22831561331E+03  0.00000000000E+00 0.  1.
         11    1    3    3    0    0 -0.22760587719E+02 -0.28643534779E+02  0.52272672312E+02  0.63803829890E+02  0.00000000000E+00 0. -1.
</event>
<event>
 7    1  0.5831876E-006  0.1101350E+03  0.7561462E-02  0.1260320E+00
          2   -1    0    0  501    0  0.00000000000E+00  0.00000000000E+00  0.96550825896E+02  0.96550825896E+02  0.00000000000E+00 0. -1.
         -2   -1    0    0    0  501 -0.00000000000E+00 -0.00000000000E+00 -0.24074693392E+03  0.24074693392E+03  0.00000000000E+00 0.  1.
         23    2    1    2    0    0 -0.80709138187E+02 -0.68942144339E+02 -0.58188769245E+02  0.15207000146E+03  0.92045468243E+02 0.  0.
          5    1    1    2  502    0  0.76531301581E+02  0.72271791022E+02 -0.11470456630E+03  0.15573972463E+03  0.41800000000E+01 0.  1.
         -5    1    1    2    0  502  0.41778366062E+01 -0.33296466832E+01  0.28697227518E+02  0.29488033725E+02  0.41800000000E+01 0.  1.
        -11    1    3    3    0    0 -0.72472741112E+02 -0.51671857481E+02  0.18804656558E+01  0.89027047636E+02  0.00000000000E+00 0.  1.
         11    1    3    3    0    0 -0.82363970758E+01 -0.17270286858E+02 -0.60069234901E+02  0.63042953821E+02  0.00000000000E+00 0. -1.
</event>
<event>
 7    1  0.5831876E-006  0.9720496E+02  0.7561462E-02  0.1286286E+00
          4   -1    0    0  501    0  0.00000000000E+00  0.00000000000E+00  0.75965472155E+02  0.75965472155E+02  0.00000000000E+00 0. -1.
         -4   -1    0    0    0  501 -0.00000000000E+00 -0.00000000000E+00 -0.19020196769E+03  0.19020196769E+03  0.00000000000E+00 0.  1.
         23    2    1    2    0    0 -0.15677212937E+01  0.45727454823E+02 -0.84871822221E+02  0.12977296886E+03  0.86858156588E+02 0.  0.
          5    1    1    2  502    0 -0.22078980982E+02  0.39061308935E+02 -0.10670313353E+02  0.46309774821E+02  0.41800000000E+01 0. -1.
         -5    1    1    2    0  502  0.23646702276E+02 -0.84788763758E+02 -0.18694359962E+02  0.90084696161E+02  0.41800000000E+01 0. -1.
        -11    1    3    3    0    0  0.16496978099E+02  0.59533555995E+01  0.13503554941E+02  0.22134559524E+02  0.00000000000E+00 0. -1.
         11    1    3    3    0    0 -0.18064699392E+02  0.39774099223E+02 -0.98375377162E+02  0.10763840934E+03  0.00000000000E+00 0.  1.
</event>
<event>
 7    1  0.5831876E-006  0.1740850E+03  0.7561462E-02  0.1173654E+00
         -2   -1    0    0    0  501 -0.00000000000E+00  0.00000000000E+00  0.35066241640E+02  0.35066241640E+02  0.00000000000E+00 0.  1.
          2   -1    0    0  501    0  0.00000000000E+00 -0.00000000000E+00 -0.15810737604E+04  0.15810737604E+04  0.00000000000E+00 0. -1.
         23    2    1    2    0    0  0.12124566384E+03  0.89863245662E+02 -0.25056968160E+03  0.30595642858E+03  0.89712077950E+02 0.  0.
          5    1    1    2  502    0 -0.11267835866E+03 -0.77574800562E+01 -0.78571479661E+03  0.79380211956E+03  0.41800000000E+01 0. -1.
         -5    1    1    2    0  502 -0.85673051809E+01 -0.82105765605E+02 -0.50972304058E+03  0.51638145393E+03  0.41800000000E+01 0. -1.
        -11    1    3    3    0    0  0.19132962276E+02  0.25142784357E+02 -0.46610651390E+01  0.31936740267E+02  0.00000000000E+00 0.  1.
         11    1    3    3    0    0  0.10211270157E+03  0.64720461305E+02 -0.24590861646E+03  0.27401968831E+03  0.00000000000E+00 0. -1.
</event>
<event>
 7    1  0.5831876E-006  0.1071603E+03  0.7561462E-02  0.1265921E+00
         -2   -1    0    0    0  501 -0.00000000000E+00  0.00000000000E+00  0.12768006465E+02  0.12768006465E+02  0.00000000000E+00 0.  1.
          2   -1    0    0  501    0  0.00000000000E+00 -0.00000000000E+00 -0.11137847079E+04  0.11137847079E+04  0.00000000000E+00 0. -1.
         23    2    1    2    0    0  0.34496436983E+01  0.29654987965E+02 -0.31433556584E+03  0.32942847272E+03  0.93941217416E+02 0.  0.
          5    1    1    2  502    0 -0.53625872708E+02  0.17464812783E+02 -0.26980139002E+03  0.27566468103E+03  0.41800000000E+01 0.  1.
         -5    1    1    2    0  502  0.50176229010E+02 -0.47119800747E+02 -0.51687974552E+03  0.52145956057E+03  0.41800000000E+01 0.  1.
        -11    1    3    3    0    0  0.43550941246E+02  0.17098327411E+02 -0.23540146295E+03  0.24000601251E+03  0.00000000000E+00 0.  1.
         11    1    3    3    0    0 -0.40101297548E+02  0.12556660554E+02 -0.78934102896E+02  0.89422460206E+02  0.00000000000E+00 0. -1.
</event>
<event>
 7    1  0.5831876E-006  0.8249744E+02  0.7561462E-02  0.1322110E+00
          1   -1    0    0  501    0  0.00000000000E+00  0.00000000000E+00  0.11106521000E+03  0.11106521000E+03  0.00000000000E+00 0. -1.
         -1   -1    0    0    0  501 -0.00000000000E+00 -0.00000000000E+00 -0.10820224275E+03  0.10820224275E+03  0.00000000000E+00 0.  1.
         23    2    1    2    0    0  0.74696692452E+01  0.15290782691E+02 -0.21689561741E+02  0.89997837823E+02  0.85671288834E+02 0.  0.
          5    1    1    2  502    0 -0.39839402704E+02  0.25602447660E+02  0.51774419176E+02  0.70290299580E+02  0.41800000000E+01 0. -1.
         -5    1    1    2    0  502  0.32369733459E+02 -0.40893230350E+02 -0.27221890185E+02  0.58979315340E+02  0.41800000000E+01 0.  1.
        -11    1    3    3    0    0 -0.20788658139E+02 -0.13502829082E+02 -0.38907763650E+02  0.46133597006E+02  0.00000000000E+00 0. -1.
         11    1    3    3    0    0  0.28258327384E+02  0.28793611773E+02  0.17218201909E+02  0.43864240817E+02  0.00000000000E+00 0.  1.
</event>
<event>
 7    1  0.5831876E-006  0.8940718E+02  0.7561462E-02  0.1304294E+00
          2   -1    0    0  501    0  0.00000000000E+00  0.00000000000E+00  0.11276735291E+04  0.11276735291E+04  0.00000000000E+00 0. -1.
         -2   -1    0    0    0  501 -0.00000000000E+00 -0.00000000000E+00 -0.28789922696E+02  0.28789922696E+02  0.00000000000E+00 0.  1.
         23    2    1    2    0    0  0.45487664842E+02  0.27185999950E+01  0.79380615022E+02  0.12830475140E+03  0.89912784138E+02 0.  0.
          5    1    1    2  502    0  0.15926267311E+02  0.32732721556E+01  0.79818748256E+03  0.79836400847E+03  0.41800000000E+01 0. -1.
         -5    1    1    2    0  502 -0.61413932153E+02 -0.59918721505E+01  0.22131550887E+03  0.22979469197E+03  0.41800000000E+01 0. -1.
        -11    1    3    3    0    0  0.22774544757E+01  0.41833170120E+02  0.40294519576E+02  0.58127869641E+02  0.00000000000E+00 0.  1.
         11    1    3    3    0    0  0.43210210367E+02 -0.39114570125E+02  0.39086095446E+02  0.70176881758E+02  0.00000000000E+00 0. -1.
</event>
<event>
 7    1  0.5831876E-006  0.1401114E+03  0.7561462E-02  0.1213179E+00
         -1   -1    0    0    0  501 -0.00000000000E+00  0.00000000000E+00  0.20935053404E+02  0.20935053404E+02  0.00000000000E+00 0.  1.
          1   -1    0    0  501    0  0.00000000000E+00 -0.00000000000E+00 -0.13678005982E+04  0.13678005982E+04  0.00000000000E+00 0. -1.
         23    2    1    2    0    0 -0.11385648859E+03  0.61429494210E+02 -0.59519412271E+03  0.61584486253E+03  0.90950361444E+02 0.  0.
          5    1    1    2  502    0 -0.94464849030E+00 -0.24866581411E+02 -0.22459573068E+02  0.33780823765E+02  0.41800000000E+01 0. -1.
         -5    1    1    2    0  502  0.11480113708E+03 -0.36562912798E+02 -0.72921184906E+03  0.73910996535E+03  0.41800000000E+01 0. -1.
        -11    1    3    3    0    0 -0.33196717616E+02  0.25090006774E+00 -0.42364532194E+02  0.53822287200E+02  0.00000000000E+00 0.  1.
         11    1    3    3    0    0 -0.80659770972E+02  0.61178594142E+02 -0.55282959051E+03  0.56202257533E+03  0.00000000000E+00 0. -1.
</event>
<event>
 7    1  0.5831876E-006  0.9941003E+02  0.7561462E-02  0.1281541E+00
         -2   -1    0    0    0  501 -0.00000000000E+00  0.00000000000E+00  0.43257603477E+02  0.43257603477E+02  0.00000000000E+00 0.  1.
          2   -1    0    0  501    0  0.00000000000E+00 -0.00000000000E+00 -0.35313581953E+03  0.35313581953E+03  0.00000000000E+00 0. -1.
         23    2    1    2    0    0  0.40330618118E+02 -0.23892526905E+02 -0.17021629320E+03  0.20312962810E+03  0.10045221621E+03 0.  0.
          5    1    1    2  502    0 -0.29537614905E+01  0.46476411002E+02  0.12200061608E+00  0.46757553088E+02  0.41800000000E+01 0. -1.
         -5    1    1    2    0  502 -0.37376856627E+02 -0.22583884097E+02 -0.13978392347E+03  0.14650624182E+03  0.41800000000E+01 0. -1.
        -11    1    3    3    0    0  0.48856072053E+02  0.27523251373E+02 -0.11016896129E+03  0.12361895152E+03  0.00000000000E+00 0. -1.
         11    1    3    3    0    0 -0.85254539354E+01 -0.51415778278E+02 -0.60047331908E+02  0.79510676579E+02  0.00000000000E+00 0.  1.
</event>
<event>
 6    1  0.8465693E-006  0.6037281E+02  0.7561462E-02  0.1396274E+00
         -2   -1    0    0    0  501 -0.00000000000E+00  0.00000000000E+00  0.56269189734E+01  0.56269189734E+01  0.00000000000E+00 0.  1.
          2   -1    0    0  501    0  0.00000000000E+00 -0.00000000000E+00 -0.15809124873E+04  0.15809124873E+04  0.00000000000E+00 0. -1.
          5    1    1    2  502    0  0.32639947393E+02 -0.73488284680E+01 -0.11939620055E+04  0.11944379910E+04  0.41800000000E+01 0. -1.
         -5    1    1    2    0  502 -0.57551707810E+02  0.66216871697E+01 -0.29954894835E+03  0.30512799064E+03  0.41800000000E+01 0.  1.
        -11    1    1    2    0    0  0.16682188534E+02  0.74978167992E+01 -0.60087991203E+02  0.62809866724E+02  0.00000000000E+00 0. -1.
         11    1    1    2    0    0  0.82295718830E+01 -0.67706755010E+01 -0.21686623220E+02  0.24163557826E+02  0.00000000000E+00 0.  1.
</event>
<event>
 7    1  0.5831876E-006  0.1335682E+03  0.7561462E-02  0.1222255E+00
          1   -1    0    0  501    0  0.00000000000E+00  0.00000000000E+00  0.14724839561E+03  0.14724839561E+03  0.00000000000E+00 0. -1.
         -1   -1    0    0    0  501 -0.00000000000E+00 -0.00000000000E+00 -0.16409624977E+03  0.16409624977E+03  0.00000000000E+00 0.  1.
         23    2    1    2    0    0 -0.66149681227E+02  0.49400557794E+02 -0.83639837880E+02  0.14725582054E+03  0.88726877349E+02 0.  0.
          5    1    1    2  502    0 -0.32022977334E+02  0.87611279723E+01  0.37883336240E+01  0.33675693198E+02  0.41800000000E+01 0. -1.
         -5    1    1    2    0  502  0.98172658562E+02 -0.58161685766E+02  0.63003650103E+02  0.13041313165E+03  0.41800000000E+01 0. -1.
        -11    1    3    3    0    0  0.19652130476E+02  0.21817366635E+02 -0.31802723487E+02  0.43285297046E+02  0.00000000000E+00 0. -1.
         11    1    3    3    0    0 -0.85801811703E+02  0.27583191158E+02 -0.51837114393E+02  0.10397052349E+03  0.00000000000E+00 0.  1.
</event>
<event>
 7    1  0.5831876E-006  0.1414149E+03  0.7561462E-02  0.1211438E+00
          1   -1    0    0  501    0  0.00000000000E+00  0.00000000000E+00  0.30647792457E+03  0.30647792457E+03  0.00000000000E+00 0. -1.
         -1   -1    0    0    0  501 -0.00000000000E+00 -0.00000000000E+00 -0.90187824438E+02  0.90187824438E+02  0.00000000000E+00 0.  1.
         23    2    1    2    0    0 -0.90647031124E+01 -0.12106043099E+03  0.58337385084E+02  0.16160304276E+03  0.89300034370E+02 0.  0.
          5    1    1    2  502    0  0.28674892613E+02  0.10479510810E+03  0.42468336694E+02  0.11672744394E+03  0.41800000000E+01 0.  1.
         -5    1    1    2    0  502 -0.19610189501E+02  0.16265322888E+02  0.11548437836E+03  0.11833526231E+03  0.41800000000E+01 0.  1.
        -11    1    3    3    0    0 -0.40670218236E+02 -0.10547448584E+03  0.31627864904E+02  0.11738507424E+03  0.00000000000E+00 0.  1.
         11    1    3    3    0    0  0.31605515124E+02 -0.15585945142E+02  0.26709520181E+02  0.44217968525E+02  0.00000000000E+00 0. -1.
</event>
<event>
 7    1  0.5831876E-006  0.1022594E+03  0.7561462E-02  0.1275615E+00
          3   -1    0    0  501    0  0.00000000000E+00  0.00000000000E+00  0.12679870264E+03  0.12679870264E+03  0.00000000000E+00 0. -1.
         -3   -1    0    0    0  501 -0.00000000000E+00 -0.00000000000E+00 -0.14388624169E+03  0.14388624169E+03  0.00000000000E+00 0.  1.
         23    2    1    2    0    0  0.94279189578E+01 -0.52030311643E+02 -0.67203688675E+02  0.12592577142E+03  0.92438764335E+02 0.  0.
          5    1    1    2  502    0 -0.27839181865E+01  0.92983311541E+02  0.42550107457E+02  0.10237983429E+03  0.41800000000E+01 0.  1.
         -5    1    1    2    0  502 -0.66440007712E+01 -0.40952999898E+02  0.75660421726E+01  0.42379338610E+02  0.41800000000E+01 0.  1.
        -11    1    3    3    0    0  0.21219547440E+02 -0.58097796310E+01  0.17901941165E+02  0.28363748525E+02  0.00000000000E+00 0. -1.
         11    1    3    3    0    0 -0.11791628482E+02 -0.46220532012E+02 -0.85105629841E+02  0.97562022900E+02  0.00000000000E+00 0.  1.
</event>
<event>
 7    1  0.5831876E-006  0.6704594E+02  0.7561462E-02  0.1370437E+00
         -1   -1    0    0    0  501 -0.00000000000E+00  0.00000000000E+00  0.95966110868E+02  0.95966110868E+02  0.00000000000E+00 0.  1.
          1   -1    0    0  501    0  0.00000000000E+00 -0.00000000000E+00 -0.14970709885E+03  0.14970709885E+03  0.00000000000E+00 0. -1.
         23    2    1    2    0    0  0.23322902344E+02  0.15676215477E+02  0.18291856957E+02  0.98618881249E+02  0.92743680121E+02 0.  0.
          5    1    1    2  502    0 -0.32349844700E+01 -0.21020427537E+02 -0.10535334480E+03  0.10755985850E+03  0.41800000000E+01 0.  1.
         -5    1    1    2    0  502 -0.20087917874E+02  0.53442120604E+01  0.33320499865E+02  0.39494469972E+02  0.41800000000E+01 0.  1.
        -11    1    3    3    0    0  0.50656589550E+02 -0.12271815130E+02  0.26804455436E+02  0.58610292122E+02  0.00000000000E+00 0.  1.
         11    1    3    3    0    0 -0.27333687206E+02  0.27948030607E+02 -0.85125984790E+01  0.40008589127E+02  0.00000000000E+00 0. -1.
</event>
<event>
 7    1  0.5831876E-006  0.1119138E+03  0.7561462E-02  0.1257066E+00
         -3   -1    0    0    0  501 -0.00000000000E+00  0.00000000000E+00  0.89789452717E+02  0.89789452717E+02  0.00000000000E+00 0.  1.
          3   -1    0    0  501    0  0.00000000000E+00 -0.00000000000E+00 -0.31885536024E+03  0.31885536024E+03  0.00000000000E+00 0. -1.
         23    2    1    2    0    0 -0.38920399615E+02 -0.11428201595E+01 -0.20086970457E+02  0.10122802777E+03  0.91255266590E+02 0.  0.
          5    1    1    2  502    0  0.10052201638E+01  0.67839116005E+02 -0.21957476471E+03  0.22985583705E+03  0.41800000000E+01 0. -1.
         -5    1    1    2    0  502  0.37915179451E+02 -0.66696295845E+02  0.10595827645E+02  0.77560948136E+02  0.41800000000E+01 0.  1.
        -11    1    3    3    0    0 -0.50113349572E+02  0.20899891048E+02  0.16787915576E+02  0.56832977755E+02  0.00000000000E+00 0.  1.
         11    1    3    3    0    0  0.11192949958E+02 -0.22042711207E+02 -0.36874886033E+02  0.44395050017E+02  0.00000000000E+00 0. -1.
</event>
<event>
 7    1  0.5831876E-006  0.8248297E+02  0.7561462E-02  0.1322149E+00
         -1   -1    0    0    0  501 -0.00000000000E+00  0.00000000000E+00  0.31290196822E+03  0.31290196822E+03  0.00000000000E+00 0.  1.
          1   -1    0    0  501    0  0.00000000000E+00 -0.00000000000E+00 -0.38945908487E+02  0.38945908487E+02  0.00000000000E+00 0. -1.
         23    2    1    2    0    0 -0.19808934798E+02 -0.60777836970E+01  0.13203087335E+03  0.16154243629E+03  0.90744001745E+02 0.  0.
          5    1    1    2  502    0  0.76405790119E+01 -0.38239130951E+02 -0.18939973633E+01  0.39264095679E+02  0.41800000000E+01 0. -1.
         -5    1    1    2    0  502  0.12168355786E+02  0.44316914648E+02  0.14381918375E+03  0.15104134474E+03  0.41800000000E+01 0. -1.
        -11    1    3    3    0    0 -0.45195470464E+02 -0.21339287309E+02  0.11921511528E+03  0.12926809136E+03  0.00000000000E+00 0. -1.
         11    1    3    3    0    0  0.25386535665E+02  0.15261503612E+02  0.12815758068E+02  0.32274344927E+02  0.00000000000E+00 0.  1.
</event>
<event>
 7    1  0.5831876E-006  0.1439390E+03  0.7561462E-02  0.1208125E+00
         -2   -1    0    0    0  501 -0.00000000000E+00  0.00000000000E+00  0.25120548416E+02  0.25120548416E+02  0.00000000000E+00 0. -1.
          2   -1    0    0  501    0  0.00000000000E+00 -0.00000000000E+00 -0.97904789109E+03  0.97904789109E+03  0.00000000000E+00 0.  1.
         23    2    1    2    0    0 -0.32911165062E+01  0.10559527162E+03 -0.32774360442E+03  0.35693185844E+03  0.93932361307E+02 0.  0.
          5    1    1    2  502    0  0.65482473630E+01  0.28358780999E+02 -0.98952554095E+02  0.10322877683E+03  0.41800000000E+01 0. -1.
         -5    1    1    2    0  502 -0.32571308568E+01 -0.13395405262E+03 -0.52723118417E+03  0.54400780424E+03  0.41800000000E+01 0. -1.
        -11    1    3    3    0    0  0.13273359403E+02  0.10697355941E+03 -0.32164423696E+03  0.33922638407E+03  0.00000000000E+00 0.  1.
         11    1    3    3    0    0 -0.16564475909E+02 -0.13782877887E+01 -0.60993674580E+01  0.17705474372E+02  0.00000000000E+00 0. -1.
</event>
<event>
 7    1  0.5831876E-006  0.9764811E+02  0.7561462E-02  0.1285321E+00
         -1   -1    0    0    0  501 -0.00000000000E+00  0.00000000000E+00  0.19709098356E+03  0.19709098356E+03  0.00000000000E+00 0.  1.
          1   -1    0    0  501    0  0.00000000000E+00 -0.00000000000E+00 -0.11782172062E+03  0.11782172062E+03  0.00000000000E+00 0. -1.
         23    2    1    2    0    0  0.28320197239E+02  0.63915927740E+02  0.11754274890E+03  0.16659066817E+03  0.95125567068E+02 0.  0.
          5    1    1    2  502    0  0.23952282638E+02 -0.35134327269E+02  0.33928520606E+02  0.54559597751E+02  0.41800000000E+01 0. -1.
         -5    1    1    2    0  502 -0.52272479877E+02 -0.28781600471E+02 -0.72202006568E+02  0.93762438272E+02  0.41800000000E+01 0. -1.
        -11    1    3    3    0    0  0.44705229373E+02  0.26660872335E+02  0.11450246183E+03  0.12577827082E+03  0.00000000000E+00 0.  1.
         11    1    3    3    0    0 -0.16385032134E+02  0.37255055406E+02  0.30402870739E+01  0.40812397342E+02  0.00000000000E+00 0. -1.
</event>
<event>
 7    1  0.5831876E-006  0.1034516E+03  0.7561462E-02  0.1273201E+00
         -3   -1    0    0    0  501 -0.00000000000E+00  0.00000000000E+00  0.15741320177E+03  0.15741320177E+03  0.00000000000E+00 0.  1.
          3   -1    0    0  501    0  0.00000000000E+00 -0.00000000000E+00 -0.10465497389E+03  0.10465497389E+03  0.00000000000E+00 0. -1.
         23    2    1    2    0    0  0.31655845735E+02  0.56221574800E+02  0.51500265537E+02  0.12131114882E+03  0.88888466267E+02 0.  0.
          5    1    1    2  502    0 -0.45207161863E+02 -0.83455305138E+02  0.29044941451E+02  0.99345641390E+02  0.41800000000E+01 0. -1.
         -5    1    1    2    0  502  0.13551316127E+02  0.27233730338E+02 -0.27786979107E+02  0.41411385449E+02  0.41800000000E+01 0. -1.
        -11    1    3    3    0    0  0.23532539294E+02 -0.84867249065E+00  0.58672178040E+02  0.63221239521E+02  0.00000000000E+00 0.  1.
         11    1    3    3    0    0  0.81233064415E+01  0.57070247291E+02 -0.71719125026E+01  0.58089909299E+02  0.00000000000E+00 0. -1.
</event>
<event>
 7    1  0.5831876E-006  0.8711390E+02  0.7561462E-02  0.1309995E+00
          2   -1    0    0  501    0  0.00000000000E+00  0.00000000000E+00  0.16023325688E+03  0.16023325688E+03  0.00000000000E+00 0.  1.
         -2   -1    0    0    0  501 -0.00000000000E+00 -0.00000000000E+00 -0.94350661735E+02  0.94350661735E+02  0.00000000000E+00 0. -1.
         23    2    1    2    0    0  0.49568477966E+02  0.22382412631E+02  0.52278639310E+01  0.10530646440E+03  0.90022855320E+02 0.  0.
          5    1    1    2  502    0  0.21340728310E+02  0.97234652255E+01 -0.24266071788E+02  0.34004221808E+02  0.41800000000E+01 0. -1.
         -5    1    1    2    0  502 -0.70909206275E+02 -0.32105877856E+02  0.84920803006E+02  0.11527323241E+03  0.41800000000E+01 0. -1.
        -11    1    3    3    0    0  0.68206026489E+01  0.28470742046E+02  0.40207292211E+02  0.49736607444E+02  0.00000000000E+00 0.  1.
         11    1    3    3    0    0  0.42747875317E+02 -0.60883294147E+01 -0.34979428280E+02  0.55569856955E+02  0.00000000000E+00 0. -1.
</event>
<event>
 7    1  0.5831876E-006  0.9873568E+02  0.7561462E-02  0.1282977E+00
          2   -1    0    0  501    0  0.00000000000E+00  0.00000000000E+00  0.85942089715E+03  0.85942089715E+03  0.00000000000E+00 0.  1.
         -2   -1    0    0    0  501 -0.00000000000E+00 -0.00000000000E+00 -0.13741527420E+02  0.13741527420E+02  0.00000000000E+00 0. -1.
         23    2    1    2    0    0 -0.55933979450E+01  0.16038403812E+02  0.33995081586E+03  0.35191624304E+03  0.89386623224E+02 0.  0.
          5    1    1    2  502    0  0.49395205069E+02 -0.34391338367E+02  0.14032507401E+03  0.15274570120E+03  0.41800000000E+01 0.  1.
         -5    1    1    2    0  502 -0.43801807124E+02  0.18352934555E+02  0.36540347985E+03  0.36850048033E+03  0.41800000000E+01 0.  1.
        -11    1    3    3    0    0  0.39061420222E+02 -0.62442529473E+01  0.11911306576E+03  0.12550979117E+03  0.00000000000E+00 0.  1.
         11    1    3    3    0    0 -0.44654818167E+02  0.22282656759E+02  0.22083775010E+03  0.22640645187E+03  0.00000000000E+00 0. -1.
</event>
<event>
 7    1  0.5831876E-006  0.1370709E+03  0.7561462E-02  0.1217326E+00
         -1   -1    0    0    0  501 -0.00000000000E+00  0.00000000000E+00  0.31963175519E+03  0.31963175519E+03  0.00000000000E+00 0.  1.
          1   -1    0    0  501    0  0.00000000000E+00 -0.00000000000E+00 -0.66681470064E+02  0.66681470064E+02  0.00000000000E+00 0. -1.
         23    2    1    2    0    0 -0.86082580258E+02 -0.38181093700E+02  0.14897490079E+03  0.19836326963E+03  0.91029990287E+02 0.  0.
          5    1    1    2  502    0 -0.24502319215E+02  0.18024558307E+02  0.59570902822E+02  0.67018006626E+02  0.41800000000E+01 0.  1.
         -5    1    1    2    0  502  0.11058489947E+03  0.20156535392E+02  0.44404481511E+02  0.12093194900E+03  0.41800000000E+01 0.  1.
        -11    1    3    3    0    0 -0.10165989644E+03 -0.14616175875E+02  0.11534137829E+03  0.15444092944E+03  0.00000000000E+00 0.  1.
         11    1    3    3    0    0  0.15577316181E+02 -0.23564917824E+02  0.33633522503E+02  0.43922340186E+02  0.00000000000E+00 0. -1.
</event>
<event>
 7    1  0.5831876E-006  0.1054764E+03  0.7561462E-02  0.1269184E+00
          2   -1    0    0  501    0  0.00000000000E+00  0.00000000000E+00  0.52191104592E+03  0.52191104592E+03  0.00000000000E+00 0. -1.
         -2   -1    0    0    0  501 -0.00000000000E+00 -0.00000000000E+00 -0.40935039118E+02  0.40935039118E+02  0.00000000000E+00 0.  1.
         23    2    1    2    0    0 -0.14622777549E+02  0.62638540577E+02  0.77629442022E+02  0.13567899471E+03  0.90802240874E+02 0.  0.
          5    1    1    2  502    0  0.55287038847E+02 -0.70776009915E+02  0.33722879752E+03  0.34900807228E+03  0.41800000000E+01 0. -1.
         -5    1    1    2    0  502 -0.40664261298E+02  0.81374693388E+01  0.66117767262E+02  0.78159018045E+02  0.41800000000E+01 0. -1.
        -11    1    3    3    0    0 -0.18711840769E+02  0.22600268144E+01 -0.15643374893E+02  0.24493996902E+02  0.00000000000E+00 0.  1.
         11    1    3    3    0    0  0.40890632201E+01  0.60378513762E+02  0.93272816915E+02  0.11118499781E+03  0.00000000000E+00 0. -1.
</event>
<event>
 7    1  0.5831876E-006  0.6042966E+02  0.7561462E-02  0.1396037E+00
         -2   -1    0    0    0  501 -0.00000000000E+00  0.00000000000E+00  0.10653847813E+03  0.10653847813E+03  0.00000000000E+00 0.  1.
          2   -1    0    0  501    0  0.00000000000E+00 -0.00000000000E+00 -0.12075718530E+03  0.12075718530E+03  0.00000000000E+00 0. -1.
         23    2    1    2    0    0 -0.12549208272E+01  0.26641704435E+02  0.13796652045E+02  0.96364218552E+02  0.91566149684E+02 0.  0.
          5    1    1    2  502    0 -0.24414489792E+02 -0.13373874808E+02  0.44558216193E+02  0.52705169286E+02  0.41800000000E+01 0.  1.
         -5    1    1    2    0  502  0.25669410619E+02 -0.13267829627E+02 -0.72573575414E+02  0.78226275592E+02  0.41800000000E+01 0.  1.
        -11    1    3    3    0    0  0.24779886725E+02 -0.19350796384E+01 -0.29331469171E+02  0.38446357474E+02  0.00000000000E+00 0. -1.
         11    1    3    3    0    0 -0.26034807552E+02  0.28576784073E+02  0.43128121215E+02  0.57917861078E+02  0.00000000000E+00 0.  1.
</event>
<event>
 7    1  0.5831876E-006  0.8594479E+02  0.7561462E-02  0.1312980E+00
          3   -1    0    0  501    0  0.00000000000E+00  0.00000000000E+00  0.40005633525E+02  0.40005633525E+02  0.00000000000E+00 0. -1.
         -3   -1    0    0    0  501 -0.00000000000E+00 -0.00000000000E+00 -0.30070259288E+03  0.30070259288E+03  0.00000000000E+00 0.  1.
         23    2    1    2    0    0 -0.13137727572E+02  0.67534417141E+01 -0.13937031681E+03  0.16582044807E+03  0.88623512281E+02 0.  0.
          5    1    1    2  502    0  0.15762022299E+02  0.47825991319E+02 -0.10686596663E+03  0.11820987276E+03  0.41800000000E+01 0. -1.
         -5    1    1    2    0  502 -0.26242947274E+01 -0.54579433033E+02 -0.14460675911E+02  0.56677905579E+02  0.41800000000E+01 0. -1.
        -11    1    3    3    0    0 -0.87677521200E+01  0.35966498428E+02 -0.12948355875E+03  0.13467165430E+03  0.00000000000E+00 0.  1.
         11    1    3    3    0    0 -0.43699754516E+01 -0.29213056713E+02 -0.98867580588E+01  0.31148793763E+02  0.00000000000E+00 0. -1.
</event>
<event>
 7    1  0.5831876E-006  0.1373550E+03  0.7561462E-02  0.1216933E+00
         -2   -1    0    0    0  501 -0.00000000000E+00  0.00000000000E+00  0.73054599421E+02  0.73054599421E+02  0.00000000000E+00 0.  1.
          2   -1    0    0  501    0  0.00000000000E+00 -0.00000000000E+00 -0.53073122168E+03  0.53073122168E+03  0.00000000000E+00 0. -1.
         23    2    1    2    0    0  0.12653470266E+03  0.15153973886E+02 -0.57393133835E+02  0.16547611383E+03  0.88587236870E+02 0.  0.
          5    1    1    2  502    0 -0.11872717378E+03  0.46108179712E+01 -0.17251862216E+03  0.20951741891E+03  0.41800000000E+01 0.  1.
         -5    1    1    2    0  502 -0.78075288770E+01 -0.19764791857E+02 -0.22776486627E+03  0.22879228835E+03  0.41800000000E+01 0.  1.
        -11    1    3    3    0    0  0.12172184905E+03  0.24023970018E+02 -0.75147973913E+02  0.14505370610E+03  0.00000000000E+00 0. -1.
         11    1    3    3    0    0  0.48128536112E+01 -0.88699961323E+01  0.17754840078E+02  0.20422407730E+02  0.00000000000E+00 0.  1.
</event>
<event>
 7    1  0.5831876E-006  0.1213670E+03  0.7561462E-02  0.1240859E+00
          1   -1    0    0  501    0  0.00000000000E+00  0.00000000000E+00  0.20500339994E+04  0.20500339994E+04  0.00000000000E+00 0. -1.
         -1   -1    0    0    0  501 -0.00000000000E+00 -0.00000000000E+00 -0.10844150139E+02  0.10844150139E+02  0.00000000000E+00 0.  1.
         23    2    1    2    0    0  0.72279006484E+02 -0.52469756934E+02  0.58251093669E+03  0.59611261352E+03  0.89743670928E+02 0.  0.
          5    1    1    2  502    0  0.94819684171E+01 -0.90164570400E+01  0.80294624517E+03  0.80306372677E+03  0.41800000000E+01 0.  1.
         -5    1    1    2    0  502 -0.81760974901E+02  0.61486213974E+02  0.65373266737E+03  0.66170180921E+03  0.41800000000E+01 0.  1.
        -11    1    3    3    0    0 -0.20857660376E+02 -0.17150824922E+02  0.12576740633E+03  0.12863371753E+03  0.00000000000E+00 0.  1.
         11    1    3    3    0    0  0.93136666860E+02 -0.35318932012E+02  0.45674353036E+03  0.46747889599E+03  0.00000000000E+00 0. -1.
</event>
<event>
 7    1  0.5831876E-006  0.7598019E+02  0.7561462E-02  0.1340862E+00
         -3   -1    0    0    0  501 -0.00000000000E+00  0.00000000000E+00  0.38632988237E+03  0.38632988237E+03  0.00000000000E+00 0.  1.
          3   -1    0    0  501    0  0.00000000000E+00 -0.00000000000E+00 -0.98396861717E+02  0.98396861717E+02  0.00000000000E+00 0. -1.
         23    2    1    2    0    0  0.51530603481E+02  0.12275736662E+02  0.32558783160E+03  0.34376055136E+03  0.96735638627E+02 0.  0.
          5    1    1    2  502    0  0.10371141867E+02 -0.36402069149E+01 -0.69644132745E+02  0.70629946310E+02  0.41800000000E+01 0. -1.
         -5    1    1    2    0  502 -0.61901745348E+02 -0.86355297472E+01  0.31989321805E+02  0.70336246422E+02  0.41800000000E+01 0. -1.
        -11    1    3    3    0    0  0.37441913454E+02  0.34718652631E+02  0.30742055762E+03  0.31163228487E+03  0.00000000000E+00 0.  1.
         11    1    3    3    0    0  0.14088690027E+02 -0.22442915969E+02  0.18167273971E+02  0.32128266486E+02  0.00000000000E+00 0. -1.
</event>
<event>
 7    1  0.5831876E-006  0.1247319E+03  0.7561462E-02  0.1235489E+00
          1   -1    0    0  501    0  0.00000000000E+00  0.00000000000E+00  0.28480910187E+03  0.28480910187E+03  0.00000000000E+00 0. -1.
         -1   -1    0    0    0  501 -0.00000000000E+00 -0.00000000000E+00 -0.11306809417E+03  0.11306809417E+03  0.00000000000E+00 0.  1.
         23    2    1    2    0    0 -0.74876526376E+02 -0.29887772515E+02 -0.49578541792E+02  0.13117042974E+03  0.90817821407E+02 0.  0.
          5    1    1    2  502    0 -0.30465903766E+02  0.22266972974E+02  0.93046849596E+02  0.10049466651E+03  0.41800000000E+01 0.  1.
         -5    1    1    2    0  502  0.10534243014E+03  0.76207995403E+01  0.12827269990E+03  0.16621209978E+03  0.41800000000E+01 0.  1.
        -11    1    3    3    0    0 -0.36891835491E+02  0.20880759510E+02 -0.52765567771E+02  0.67684701268E+02  0.00000000000E+00 0.  1.
         11    1    3    3    0    0 -0.37984690886E+02 -0.50768532025E+02  0.31870259788E+01  0.63485728477E+02  0.00000000000E+00 0. -1.
</event>
<event>
 7    1  0.5831876E-006  0.1041015E+03  0.7561462E-02  0.1271900E+00
          2   -1    0    0  501    0  0.00000000000E+00  0.00000000000E+00  0.42153973386E+03  0.42153973386E+03  0.00000000000E+00 0. -1.
         -2   -1    0    0    0  501 -0.00000000000E+00 -0.00000000000E+00 -0.37340271474E+02  0.37340271474E+02  0.00000000000E+00 0.  1.
         23    2    1    2    0    0  0.10092705657E+02 -0.72854939325E+02  0.83970625847E+02  0.12542118956E+03  0.57181324687E+02 0.  0.
          5    1    1    2  502    0 -0.50818829587E+02  0.21352839052E+02  0.23271053721E+03  0.23918646221E+03  0.41800000000E+01 0. -1.
         -5    1    1    2    0  502  0.40726123930E+02  0.51502100273E+02  0.67518299327E+02  0.94272353566E+02  0.41800000000E+01 0. -1.
        -11    1    3    3    0    0  0.26913790365E+02 -0.60633257898E+02  0.41815842029E+02  0.78417528141E+02  0.00000000000E+00 0.  1.
         11    1    3    3    0    0 -0.16821084708E+02 -0.12221681427E+02  0.42154783818E+02  0.47003661415E+02  0.00000000000E+00 0. -1.
</event>
<event>
 7    1  0.5831876E-006  0.1139650E+03  0.7561462E-02  0.1253399E+00
         -2   -1    0    0    0  501 -0.00000000000E+00  0.00000000000E+00  0.15962408240E+02  0.15962408240E+02  0.00000000000E+00 0.  1.
          2   -1    0    0  501    0  0.00000000000E+00 -0.00000000000E+00 -0.23952286489E+04  0.23952286489E+04  0.00000000000E+00 0. -1.
         23    2    1    2    0    0 -0.59936511939E+01 -0.58065124131E+00 -0.11803416407E+03  0.14509333448E+03  0.84165021308E+02 0.  0.
          5    1    1    2  502    0  0.59401465688E+02 -0.45906205105E+02 -0.13612593698E+04  0.13633343163E+04  0.41800000000E+01 0. -1.
         -5    1    1    2    0  502 -0.53407814494E+02  0.46486856346E+02 -0.89997270684E+03  0.90276340639E+03  0.41800000000E+01 0.  1.
        -11    1    3    3    0    0 -0.88962260422E+01 -0.40663048244E+02 -0.77750751466E+02  0.88191868582E+02  0.00000000000E+00 0.  1.
         11    1    3    3    0    0  0.29025748482E+01  0.40082397003E+02 -0.40283412608E+02  0.56901465900E+02  0.00000000000E+00 0. -1.
</event>
<event>
 7    1  0.5831876E-006  0.1226339E+03  0.7561462E-02  0.1238814E+00
          3   -1    0    0  501    0  0.00000000000E+00  0.00000000000E+00  0.33752235799E+03  0.33752235799E+03  0.00000000000E+00 0. -1.
         -3   -1    0    0    0  501 -0.00000000000E+00 -0.00000000000E+00 -0.66811222957E+02  0.66811222957E+02  0.00000000000E+00 0.  1.
         23    2    1    2    0    0 -0.26518444375E+02  0.98810815272E+02  0.14750213476E+03  0.20112287064E+03  0.90701291221E+02 0.  0.
          5    1    1    2  502    0  0.30302382257E+02 -0.19901189886E+02 -0.18500067119E+02  0.40914748108E+02  0.41800000000E+01 0. -1.
         -5    1    1    2    0  502 -0.37839378822E+01 -0.78909625386E+02  0.14170906739E+03  0.16229596220E+03  0.41800000000E+01 0. -1.
        -11    1    3    3    0    0  0.20186359417E+02  0.74148736036E+02  0.11744590539E+03  0.14035335712E+03  0.00000000000E+00 0. -1.
         11    1    3    3    0    0 -0.46704803792E+02  0.24662079236E+02  0.30056229371E+02  0.60769513520E+02  0.00000000000E+00 0.  1.
</event>
<event>
 7    1  0.5831876E-006  0.6817417E+02  0.7561462E-02  0.1366414E+00
          2   -1    0    0  501    0  0.00000000000E+00  0.00000000000E+00  0.12540462941E+03  0.12540462941E+03  0.00000000000E+00 0. -1.
         -2   -1    0    0    0  501 -0.00000000000E+00 -0.00000000000E+00 -0.11158202555E+03  0.11158202555E+03  0.00000000000E+00 0.  1.
         23    2    1    2    0    0 -0.67779504556E+01 -0.39401415932E+02 -0.24244004710E+02  0.10025724907E+03  0.88686707215E+02 0.  0.
          5    1    1    2  502    0 -0.18623062698E+02  0.58190377787E+02 -0.24937480842E+02  0.66123285475E+02  0.41800000000E+01 0.  1.
         -5    1    1    2    0  502  0.25401013154E+02 -0.18788961855E+02  0.63004089410E+02  0.70606120409E+02  0.41800000000E+01 0.  1.
        -11    1    3    3    0    0  0.14381569961E+01 -0.32431354681E+02 -0.57098159534E+02  0.65681510976E+02  0.00000000000E+00 0.  1.
         11    1    3    3    0    0 -0.82161074517E+01 -0.69700612518E+01  0.32854154824E+02  0.34575738093E+02  0.00000000000E+00 0. -1.
</event>
<event>
 7    1  0.5831876E-006  0.1503811E+03  0.7561462E-02  0.1200006E+00
         -2   -1    0    0    0  501 -0.00000000000E+00  0.00000000000E+00  0.56293584639E+02  0.56293584639E+02  0.00000000000E+00 0.  1.
          2   -1    0    0  501    0  0.00000000000E+00 -0.00000000000E+00 -0.63975609450E+03  0.63975609450E+03  0.00000000000E+00 0. -1.
         23    2    1    2    0    0  0.47906188808E+02  0.12455300494E+03 -0.13036892957E+03  0.20742907050E+03  0.90676940421E+02 0.  0.
          5    1    1    2  502    0 -0.55183820556E+02 -0.10868036760E+03 -0.19563538169E+03  0.23053709316E+03  0.41800000000E+01 0. -1.
         -5    1    1    2    0  502  0.72776317485E+01 -0.15872637335E+02 -0.25745819860E+03  0.25808351548E+03  0.41800000000E+01 0. -1.
        -11    1    3    3    0    0 -0.14213214820E+02  0.87225463104E+02 -0.63529761889E+02  0.10884083579E+03  0.00000000000E+00 0. -1.
         11    1    3    3    0    0  0.62119403627E+02  0.37327541832E+02 -0.66839167683E+02  0.98588234708E+02  0.00000000000E+00 0.  1.
</event>
<event>
 7    1  0.5831876E-006  0.1302130E+03  0.7561462E-02  0.1227140E+00
         -1   -1    0    0    0  501 -0.00000000000E+00  0.00000000000E+00  0.33317133635E+03  0.33317133635E+03  0.00000000000E+00 0.  1.
          1   -1    0    0  501    0  0.00000000000E+00 -0.00000000000E+00 -0.65731802873E+02  0.65731802873E+02  0.00000000000E+00 0. -1.
         23    2    1    2    0    0 -0.97995758893E+02 -0.50547694800E+01  0.95692173778E+02  0.16486531098E+03  0.91623464170E+02 0.  0.
          5    1    1    2  502    0  0.93094169958E+02  0.42774440372E+02  0.16632320483E+03  0.19538950354E+03  0.41800000000E+01 0.  1.
         -5    1    1    2    0  502  0.49015889349E+01 -0.37719670892E+02  0.54241548702E+01  0.38648324703E+02  0.41800000000E+01 0.  1.
        -11    1    3    3    0    0 -0.41715176242E+02  0.31710125633E+02  0.80327303310E+02  0.95907057371E+02  0.00000000000E+00 0.  1.
         11    1    3    3    0    0 -0.56280582651E+02 -0.36764895113E+02  0.15364870468E+02  0.68958253608E+02  0.00000000000E+00 0. -1.
</event>
<event>
 7    1  0.5831876E-006  0.1163872E+03  0.7561462E-02  0.1249179E+00
          2   -1    0    0  501    0  0.00000000000E+00  0.00000000000E+00  0.60105009880E+03  0.60105009880E+03  0.00000000000E+00 0. -1.
         -2   -1    0    0    0  501 -0.00000000000E+00 -0.00000000000E+00 -0.25087890602E+02  0.25087890602E+02  0.00000000000E+00 0.  1.
         23    2    1    2    0    0  0.40793223318E+02 -0.29523292656E+02  0.17488194071E+03  0.20299582064E+03  0.89932742271E+02 0.  0.
          5    1    1    2  502    0 -0.29839340924E+02 -0.47790827668E+02  0.15834244591E+03  0.16811945769E+03  0.41800000000E+01 0.  1.
         -5    1    1    2    0  502 -0.10953882394E+02  0.77314120324E+02  0.24273782158E+03  0.25502271108E+03  0.41800000000E+01 0.  1.
        -11    1    3    3    0    0  0.46125484511E+02 -0.55154755277E+02  0.96386540656E+02  0.12024962607E+03  0.00000000000E+00 0.  1.
         11    1    3    3    0    0 -0.53322611938E+01  0.25631462620E+02  0.78495400054E+02  0.82746194566E+02  0.00000000000E+00 0. -1.
</event>
<event>
 7    1  0.5831876E-006  0.2062406E+03  0.7561462E-02  0.1144578E+00
          2   -1    0    0  501    0  0.00000000000E+00  0.00000000000E+00  0.75869873724E+03  0.75869873724E+03  0.00000000000E+00 0.  1.
         -2   -1    0    0    0  501 -0.00000000000E+00 -0.00000000000E+00 -0.62386466715E+02  0.62386466715E+02  0.00000000000E+00 0. -1.
         23    2    1    2    0    0 -0.14116104752E+03 -0.12125899588E+03  0.28532596739E+03  0.35291198655E+03  0.92226770348E+02 0.  0.
          5    1    1    2  502    0  0.57212232014E+02 -0.13452405433E+02  0.66459319254E+02  0.88817341885E+02  0.41800000000E+01 0.  1.
         -5    1    1    2    0  502  0.83948815502E+02  0.13471140131E+03  0.34452698389E+03  0.37935587552E+03  0.41800000000E+01 0.  1.
        -11    1    3    3    0    0 -0.88769651205E+02 -0.38344305560E+02  0.20302358047E+03  0.22487532317E+03  0.00000000000E+00 0.  1.
         11    1    3    3    0    0 -0.52391396311E+02 -0.82914690316E+02  0.82302386922E+02  0.12803666338E+03  0.00000000000E+00 0. -1.
</event>
<event>
 7    1  0.5831876E-006  0.1555137E+03  0.7561462E-02  0.1193857E+00
          2   -1    0    0  501    0  0.00000000000E+00  0.00000000000E+00  0.64380353817E+03  0.64380353817E+03  0.00000000000E+00 0. -1.
         -2   -1    0    0    0  501 -0.00000000000E+00 -0.00000000000E+00 -0.50715484474E+02  0.50715484474E+02  0.00000000000E+00 0.  1.
         23    2    1    2    0    0 -0.85027713569E+02 -0.74657874169E+02  0.12919466134E+03  0.20091107391E+03  0.10426163653E+03 0.  0.
          5    1    1    2  502    0  0.10556541727E+03  0.24381539382E+02  0.36429363536E+03  0.38008662427E+03  0.41800000000E+01 0. -1.
         -5    1    1    2    0  502 -0.20537703702E+02  0.50276334787E+02  0.99599756994E+02  0.11352132446E+03  0.41800000000E+01 0. -1.
        -11    1    3    3    0    0  0.15728958383E+02  0.81486727218E+01  0.37534284558E+02  0.41504499952E+02  0.00000000000E+00 0.  1.
         11    1    3    3    0    0 -0.10075667195E+03 -0.82806546891E+02  0.91660376781E+02  0.15940657396E+03  0.00000000000E+00 0. -1.
</event>
<event>
 7    1  0.5831876E-006  0.1161548E+03  0.7561462E-02  0.1249579E+00
         -1   -1    0    0    0  501 -0.00000000000E+00  0.00000000000E+00  0.48242837275E+02  0.48242837275E+02  0.00000000000E+00 0.  1.
          1   -1    0    0  501    0  0.00000000000E+00 -0.00000000000E+00 -0.37553273565E+03  0.37553273565E+03  0.00000000000E+00 0. -1.
         23    2    1    2    0    0 -0.18072116004E+02  0.74401826334E+02 -0.12391944751E+03  0.17304043030E+03  0.93406251977E+02 0.  0.
          5    1    1    2  502    0  0.68300361044E+02 -0.38172441139E+02 -0.14842634086E+03  0.16783898725E+03  0.41800000000E+01 0.  1.
         -5    1    1    2    0  502 -0.50228245040E+02 -0.36229385195E+02 -0.54944110008E+02  0.82896155375E+02  0.41800000000E+01 0.  1.
        -11    1    3    3    0    0 -0.18564881729E+02  0.11196690602E+01  0.94510766730E+01  0.20862198894E+02  0.00000000000E+00 0.  1.
         11    1    3    3    0    0  0.49276572502E+00  0.73282157274E+02 -0.13337052418E+03  0.15217823141E+03  0.00000000000E+00 0. -1.
</event>
<event>
 7    1  0.5831876E-006  0.1407530E+03  0.7561462E-02  0.1212319E+00
          1   -1    0    0  501    0  0.00000000000E+00  0.00000000000E+00  0.33360637410E+03  0.33360637410E+03  0.00000000000E+00 0. -1.
         -1   -1    0    0    0  501 -0.00000000000E+00 -0.00000000000E+00 -0.81869474038E+02  0.81869474038E+02  0.00000000000E+00 0.  1.
         23    2    1    2    0    0  0.10873836225E+03  0.32060161248E+02  0.53290038043E+02  0.15493570761E+03  0.91177628695E+02 0.  0.
          5    1    1    2  502    0 -0.13127369809E+03 -0.27475578475E+02  0.12471149361E+03  0.18318875583E+03  0.41800000000E+01 0. -1.
         -5    1    1    2    0  502  0.22535335841E+02 -0.45845827737E+01  0.73735368405E+02  0.77351384697E+02  0.41800000000E+01 0. -1.
        -11    1    3    3    0    0  0.40928092633E+02  0.38039128887E+02 -0.15675227519E+02  0.58032722242E+02  0.00000000000E+00 0.  1.
         11    1    3    3    0    0  0.67810269616E+02 -0.59789676383E+01  0.68965265562E+02  0.96902985369E+02  0.00000000000E+00 0. -1.
</event>
<event>
 7    1  0.5831876E-006  0.9475738E+02  0.7561462E-02  0.1291723E+00
          1   -1    0    0  501    0  0.00000000000E+00  0.00000000000E+00  0.47420244616E+03  0.47420244616E+03  0.00000000000E+00 0. -1.
         -1   -1    0    0    0  501 -0.00000000000E+00 -0.00000000000E+00 -0.29837945145E+02  0.29837945145E+02  0.00000000000E+00 0.  1.
         23    2    1    2    0    0  0.53471385561E+02  0.11127482251E+02  0.18642024523E+03  0.21220912788E+03  0.85423627823E+02 0.  0.
          5    1    1    2  502    0  0.15149021613E+02  0.68680737118E+01 -0.62444055032E+01  0.18251802443E+02  0.41800000000E+01 0. -1.
         -5    1    1    2    0  502 -0.68620407174E+02 -0.17995555963E+02  0.26418866129E+03  0.27357946098E+03  0.41800000000E+01 0. -1.
        -11    1    3    3    0    0  0.11127017719E+02 -0.36155089119E+02  0.65312606520E+02  0.75476735243E+02  0.00000000000E+00 0. -1.
         11    1    3    3    0    0  0.42344367842E+02  0.47282571370E+02  0.12110763871E+03  0.13673239264E+03  0.00000000000E+00 0.  1.
</event>
<event>
 7    1  0.5831876E-006  0.9146219E+02  0.7561462E-02  0.1299349E+00
         -3   -1    0    0    0  501 -0.00000000000E+00  0.00000000000E+00  0.46236327809E+02  0.46236327809E+02  0.00000000000E+00 0.  1.
          3   -1    0    0  501    0  0.00000000000E+00 -0.00000000000E+00 -0.31061237288E+03  0.31061237288E+03  0.00000000000E+00 0. -1.
         23    2    1    2    0    0 -0.21793830230E+02  0.54802648028E+01 -0.53226712793E+02  0.11039996850E+03  0.94074788073E+02 0.  0.
          5    1    1    2  502    0 -0.10117834250E+02  0.56333049416E+02 -0.97373398651E+02  0.11302581206E+03  0.41800000000E+01 0. -1.
         -5    1    1    2    0  502  0.31911664480E+02 -0.61813314219E+02 -0.11377593362E+03  0.13342292013E+03  0.41800000000E+01 0. -1.
        -11    1    3    3    0    0 -0.27917784952E+02  0.23703166210E+02  0.14955816582E+02  0.39559060335E+02  0.00000000000E+00 0.  1.
         11    1    3    3    0    0  0.61239547211E+01 -0.18222901407E+02 -0.68182529376E+02  0.70840908162E+02  0.00000000000E+00 0. -1.
</event>
<event>
 7    1  0.5831876E-006  0.1140954E+03  0.7561462E-02  0.1253168E+00
          2   -1    0    0  501    0  0.00000000000E+00  0.00000000000E+00  0.47470455578E+03  0.47470455578E+03  0.00000000000E+00 0. -1.
         -2   -1    0    0    0  501 -0.00000000000E+00 -0.00000000000E+00 -0.32162213289E+02  0.32162213289E+02  0.00000000000E+00 0.  1.
         23    2    1    2    0    0 -0.24903779671E+02 -0.34322117697E+02  0.11541803224E+03  0.15407853738E+03  0.92847549834E+02 0.  0.
          5    1    1    2  502    0 -0.36859991612E+02 -0.22699086862E+02  0.15804237539E+03  0.16391696783E+03  0.41800000000E+01 0. -1.
         -5    1    1    2    0  502  0.61763771284E+02  0.57021204559E+02  0.16908193487E+03  0.18887126386E+03  0.41800000000E+01 0. -1.
        -11    1    3    3    0    0  0.19397496893E+00 -0.62672529672E+02  0.58606642770E+02  0.85805723460E+02  0.00000000000E+00 0.  1.
         11    1    3    3    0    0 -0.25097754640E+02  0.28350411975E+02  0.56811389472E+02  0.68272813922E+02  0.00000000000E+00 0. -1.
</event>
<event>
 7    1  0.5831876E-006  0.5260000E+02  0.7561462E-02  0.1431802E+00
          1   -1    0    0  501    0  0.00000000000E+00  0.00000000000E+00  0.15720312255E+03  0.15720312255E+03  0.00000000000E+00 0. -1.
         -1   -1    0    0    0  501 -0.00000000000E+00 -0.00000000000E+00 -0.13249361709E+03  0.13249361709E+03  0.00000000000E+00 0.  1.
         23    2    1    2    0    0 -0.17985875537E+02 -0.85700568578E+01 -0.82529426789E+02  0.12372325031E+03  0.89996659875E+02 0.  0.
          5    1    1    2  502    0  0.21611442878E+02 -0.29355637848E+01  0.13426211389E+03  0.13608622129E+03  0.41800000000E+01 0.  1.
         -5    1    1    2    0  502 -0.36255673414E+01  0.11505620643E+02 -0.27023181637E+02  0.29887268037E+02  0.41800000000E+01 0.  1.
        -11    1    3    3    0    0  0.22377513046E+02  0.11487548564E+02 -0.73593737922E+02  0.77773743149E+02  0.00000000000E+00 0.  1.
         11    1    3    3    0    0 -0.40363388583E+02 -0.20057605422E+02 -0.89356888672E+01  0.45949507165E+02  0.00000000000E+00 0. -1.
</event>
<event>
 7    1  0.5831876E-006  0.7169812E+02  0.7561462E-02  0.1354412E+00
         -2   -1    0    0    0  501 -0.00000000000E+00  0.00000000000E+00  0.15503325028E+03  0.15503325028E+03  0.00000000000E+00 0.  1.
          2   -1    0    0  501    0  0.00000000000E+00 -0.00000000000E+00 -0.86502299320E+02  0.86502299320E+02  0.00000000000E+00 0. -1.
         23    2    1    2    0    0 -0.11086672591E+02 -0.34110409423E+02  0.36041135719E+02  0.10741440339E+03  0.94617420442E+02 0.  0.
          5    1    1    2  502    0  0.14560733347E+02  0.90339183185E+01  0.79031142176E+02  0.80975431270E+02  0.41800000000E+01 0.  1.
         -5    1    1    2    0  502 -0.34740607552E+01  0.25076491104E+02 -0.46541326933E+02  0.53145714944E+02  0.41800000000E+01 0.  1.
        -11    1    3    3    0    0  0.39669276848E+02 -0.13561143374E+01  0.22059176458E+02  0.45410327435E+02  0.00000000000E+00 0. -1.
         11    1    3    3    0    0 -0.50755949439E+02 -0.32754295085E+02  0.13981959261E+02  0.62004075953E+02  0.00000000000E+00 0.  1.
</event>
<event>
 7    1  0.5831876E-006  0.9525659E+02  0.7561462E-02  0.1290599E+00
          2   -1    0    0  501    0  0.00000000000E+00  0.00000000000E+00  0.14604771384E+03  0.14604771384E+03  0.00000000000E+00 0. -1.
         -2   -1    0    0    0  501 -0.00000000000E+00 -0.00000000000E+00 -0.10742064953E+03  0.10742064953E+03  0.00000000000E+00 0.  1.
         23    2    1    2    0    0  0.15857935777E+02  0.95813948523E+01 -0.42996174975E+02  0.10336405344E+03  0.92153020714E+02 0.  0.
          5    1    1    2  502    0  0.52388701351E+02  0.11695805428E+02  0.41839702057E+02  0.68186515984E+02  0.41800000000E+01 0.  1.
         -5    1    1    2    0  502 -0.68246637128E+02 -0.21277200280E+02  0.39783537227E+02  0.81917793948E+02  0.41800000000E+01 0.  1.
        -11    1    3    3    0    0 -0.21176381567E+01 -0.25530369673E+02  0.17584976013E+02  0.31072746070E+02  0.00000000000E+00 0. -1.
         11    1    3    3    0    0  0.17975573934E+02  0.35111764525E+02 -0.60581150988E+02  0.72291307370E+02  0.00000000000E+00 0.  1.
</event>
<event>
 7    1  0.5831876E-006  0.1060079E+03  0.7561462E-02  0.1268146E+00
          1   -1    0    0  501    0  0.00000000000E+00  0.00000000000E+00  0.41303296590E+03  0.41303296590E+03  0.00000000000E+00 0. -1.
         -1   -1    0    0    0  501 -0.00000000000E+00 -0.00000000000E+00 -0.90508495306E+02  0.90508495306E+02  0.00000000000E+00 0.  1.
         23    2    1    2    0    0 -0.16897608428E+02  0.22241171316E+02 -0.53207275484E+02  0.10886411712E+03  0.90775453507E+02 0.  0.
          5    1    1    2  502    0  0.60941670168E+02  0.11659629098E+02  0.24049043718E+03  0.24840079889E+03  0.41800000000E+01 0. -1.
         -5    1    1    2    0  502 -0.44044061740E+02 -0.33900800414E+02  0.13524130890E+03  0.14627654520E+03  0.41800000000E+01 0.  1.
        -11    1    3    3    0    0 -0.25005823314E+02  0.54960715134E+02 -0.26891864447E+02  0.66099499099E+02  0.00000000000E+00 0.  1.
         11    1    3    3    0    0  0.81082148859E+01 -0.32719543818E+02 -0.26315411036E+02  0.42764618019E+02  0.00000000000E+00 0. -1.
</event>
<event>
 7    1  0.5831876E-006  0.1047235E+03  0.7561462E-02  0.1270665E+00
          1   -1    0    0  501    0  0.00000000000E+00  0.00000000000E+00  0.15225166610E+04  0.15225166610E+04  0.00000000000E+00 0. -1.
         -1   -1    0    0    0  501 -0.00000000000E+00 -0.00000000000E+00 -0.11678649142E+02  0.11678649142E+02  0.00000000000E+00 0.  1.
         23    2    1    2    0    0 -0.28287821134E+01 -0.56364479973E+02  0.37428807506E+03  0.38939058110E+03  0.91370153249E+02 0.  0.
          5    1    1    2  502    0 -0.45351134783E+02  0.62858522410E+02  0.46052225487E+03  0.46701834964E+03  0.41800000000E+01 0.  1.
         -5    1    1    2    0  502  0.48179916897E+02 -0.64940424368E+01  0.67602768190E+03  0.67778637938E+03  0.41800000000E+01 0.  1.
        -11    1    3    3    0    0 -0.17436300379E+02  0.64097663768E+01  0.13686392234E+02  0.23074379912E+02  0.00000000000E+00 0.  1.
         11    1    3    3    0    0  0.14607518266E+02 -0.62774246350E+02  0.36060168283E+03  0.36631620119E+03  0.00000000000E+00 0. -1.
</event>
<event>
 7    1  0.5831876E-006  0.1615900E+03  0.7561462E-02  0.1186913E+00
          1   -1    0    0  501    0  0.00000000000E+00  0.00000000000E+00  0.17099977650E+04  0.17099977650E+04  0.00000000000E+00 0. -1.
         -1   -1    0    0    0  501 -0.00000000000E+00 -0.00000000000E+00 -0.21399898276E+02  0.21399898276E+02  0.00000000000E+00 0.  1.
         23    2    1    2    0    0 -0.62260061889E+02  0.27902134918E+02  0.23595048028E+03  0.26207395934E+03  0.91407256727E+02 0.  0.
          5    1    1    2  502    0 -0.31944494008E+02  0.71581921349E+02  0.38566541927E+03  0.39357300489E+03  0.41800000000E+01 0. -1.
         -5    1    1    2    0  502  0.94204555897E+02 -0.99484056267E+02  0.10669819672E+04  0.10757506990E+04  0.41800000000E+01 0.  1.
        -11    1    3    3    0    0  0.11636213174E+02 -0.17399669484E+02  0.18316096054E+02  0.27814192957E+02  0.00000000000E+00 0.  1.
         11    1    3    3    0    0 -0.73896275063E+02  0.45301804401E+02  0.21763438423E+03  0.23425976639E+03  0.00000000000E+00 0. -1.
</event>
<event>
 7    1  0.5831876E-006  0.1642548E+03  0.7561462E-02  0.1183975E+00
         -1   -1    0    0    0  501 -0.00000000000E+00  0.00000000000E+00  0.79419899282E+02  0.79419899282E+02  0.00000000000E+00 0.  1.
          1   -1    0    0  501    0  0.00000000000E+00 -0.00000000000E+00 -0.42975958354E+03  0.42975958354E+03  0.00000000000E+00 0. -1.
         23    2    1    2    0    0  0.88153089035E+02  0.11375404347E+03 -0.11124473556E+03  0.20334973943E+03  0.90910812469E+02 0.  0.
          5    1    1    2  502    0 -0.10037705121E+03 -0.12430826126E+03 -0.16437393329E+03  0.22926918365E+03  0.41800000000E+01 0.  1.
         -5    1    1    2    0  502  0.12223962174E+02  0.10554217794E+02 -0.74721015408E+02  0.76560559742E+02  0.41800000000E+01 0.  1.
        -11    1    3    3    0    0  0.69566387637E+02  0.11383765322E+03 -0.55335166157E+02  0.14443155539E+03  0.00000000000E+00 0.  1.
         11    1    3    3    0    0  0.18586701399E+02 -0.83609750626E-01 -0.55909569401E+02  0.58918184035E+02  0.00000000000E+00 0. -1.
</event>
<event>
 7    1  0.5831876E-006  0.1021652E+03  0.7561462E-02  0.1275808E+00
         -1   -1    0    0    0  501 -0.00000000000E+00  0.00000000000E+00  0.33021600358E+02  0.33021600358E+02  0.00000000000E+00 0.  1.
          1   -1    0    0  501    0  0.00000000000E+00 -0.00000000000E+00 -0.57114179725E+03  0.57114179725E+03  0.00000000000E+00 0. -1.
         23    2    1    2    0    0 -0.75166028471E+02  0.16639796197E+01 -0.16438648346E+03  0.20294290770E+03  0.92250784158E+02 0.  0.
          5    1    1    2  502    0  0.87677727194E+02  0.15245239808E+02 -0.36853833560E+03  0.37915402990E+03  0.41800000000E+01 0.  1.
         -5    1    1    2    0  502 -0.12511698723E+02 -0.16909219427E+02 -0.51953778377E+01  0.22066460012E+02  0.41800000000E+01 0.  1.
        -11    1    3    3    0    0 -0.43013678971E+02  0.28762410146E+02 -0.14972056456E+03  0.15840991215E+03  0.00000000000E+00 0. -1.
         11    1    3    3    0    0 -0.32152349501E+02 -0.27098430526E+02 -0.14665918900E+02  0.44532995549E+02  0.00000000000E+00 0.  1.
</event>
<event>
 7    1  0.5831876E-006  0.1378789E+03  0.7561462E-02  0.1216212E+00
          2   -1    0    0  501    0  0.00000000000E+00  0.00000000000E+00  0.11926755217E+04  0.11926755217E+04  0.00000000000E+00 0.  1.
         -2   -1    0    0    0  501 -0.00000000000E+00 -0.00000000000E+00 -0.25796902460E+02  0.25796902460E+02  0.00000000000E+00 0. -1.
         23    2    1    2    0    0 -0.40841626296E+02  0.12824239108E+03  0.43655661018E+03  0.46539083851E+03  0.88841484518E+02 0.  0.
          5    1    1    2  502    0  0.21226730142E+02 -0.10976729258E+03  0.71078713385E+03  0.71953822320E+03  0.41800000000E+01 0. -1.
         -5    1    1    2    0  502  0.19614896154E+02 -0.18475098493E+02  0.19534875220E+02  0.33543362463E+02  0.41800000000E+01 0. -1.
        -11    1    3    3    0    0 -0.53540183208E+01  0.54619206702E+02  0.30942658541E+03  0.31425584324E+03  0.00000000000E+00 0.  1.
         11    1    3    3    0    0 -0.35487607976E+02  0.73623184374E+02  0.12713002477E+03  0.15113499527E+03  0.00000000000E+00 0. -1.
</event>
<event>
 7    1  0.5831876E-006  0.9829246E+02  0.7561462E-02  0.1283928E+00
          2   -1    0    0  501    0  0.00000000000E+00  0.00000000000E+00  0.19492634876E+03  0.19492634876E+03  0.00000000000E+00 0.  1.
         -2   -1    0    0    0  501 -0.00000000000E+00 -0.00000000000E+00 -0.86837108977E+02  0.86837108977E+02  0.00000000000E+00 0. -1.
         23    2    1    2    0    0 -0.32431923495E+02 -0.55150999831E+02  0.19420573619E+02  0.11562060341E+03  0.94326575302E+02 0.  0.
          5    1    1    2  502    0 -0.30639423373E+01 -0.33286363049E+02 -0.30357651407E+01  0.33823926112E+02  0.41800000000E+01 0. -1.
         -5    1    1    2    0  502  0.35495865832E+02  0.88437362880E+02  0.91704431306E+02  0.13231892822E+03  0.41800000000E+01 0. -1.
        -11    1    3    3    0    0 -0.10008564211E+02 -0.25476299391E+01 -0.35114421453E+02  0.36601699002E+02  0.00000000000E+00 0. -1.
         11    1    3    3    0    0 -0.22423359284E+02 -0.52603369892E+02  0.54534995072E+02  0.79018904404E+02  0.00000000000E+00 0.  1.
</event>
<event>
 7    1  0.5831876E-006  0.7733159E+02  0.7561462E-02  0.1336799E+00
         -1   -1    0    0    0  501 -0.00000000000E+00  0.00000000000E+00  0.17976245155E+03  0.17976245155E+03  0.00000000000E+00 0.  1.
          1   -1    0    0  501    0  0.00000000000E+00 -0.00000000000E+00 -0.89179850495E+02  0.89179850495E+02  0.00000000000E+00 0. -1.
         23    2    1    2    0    0  0.32556723463E+02 -0.23837662253E+02  0.96762671424E+02  0.13736211860E+03  0.88753381125E+02 0.  0.
          5    1    1    2  502    0  0.14495855189E+02  0.33792587935E+02 -0.52794090717E+02  0.64472918591E+02  0.41800000000E+01 0. -1.
         -5    1    1    2    0  502 -0.47052578652E+02 -0.99549256816E+01  0.46614020353E+02  0.67107264857E+02  0.41800000000E+01 0. -1.
        -11    1    3    3    0    0  0.44365080757E+02 -0.18274579771E+01  0.10252596121E+03  0.11172811963E+03  0.00000000000E+00 0.  1.
         11    1    3    3    0    0 -0.11808357294E+02 -0.22010204276E+02 -0.57632897865E+01  0.25633998974E+02  0.00000000000E+00 0. -1.
</event>
<event>
 7    1  0.5831876E-006  0.1055037E+03  0.7561462E-02  0.1269130E+00
          2   -1    0    0  501    0  0.00000000000E+00  0.00000000000E+00  0.37018633241E+03  0.37018633241E+03  0.00000000000E+00 0. -1.
         -2   -1    0    0    0  501 -0.00000000000E+00 -0.00000000000E+00 -0.33031964038E+02  0.33031964038E+02  0.00000000000E+00 0.  1.
         23    2    1    2    0    0  0.90670727437E+00  0.13969658159E+02  0.11118623917E+03  0.14455748401E+03  0.91315458357E+02 0.  0.
          5    1    1    2  502    0  0.25997629980E+02 -0.63808307885E+02  0.12771405052E+03  0.14517481882E+03  0.41800000000E+01 0.  1.
         -5    1    1    2    0  502 -0.26904337254E+02  0.49838649726E+02  0.98254078684E+02  0.11348599362E+03  0.41800000000E+01 0.  1.
        -11    1    3    3    0    0 -0.32325674127E+02  0.33572495061E+02  0.87902146765E+02  0.99492959742E+02  0.00000000000E+00 0. -1.
         11    1    3    3    0    0  0.33232381401E+02 -0.19602836902E+02  0.23284092401E+02  0.45064524264E+02  0.00000000000E+00 0.  1.
</event>
<event>
 7    1  0.5831876E-006  0.1762192E+03  0.7561462E-02  0.1171513E+00
         -1   -1    0    0    0  501 -0.00000000000E+00  0.00000000000E+00  0.35624838954E+02  0.35624838954E+02  0.00000000000E+00 0.  1.
          1   -1    0    0  501    0  0.00000000000E+00 -0.00000000000E+00 -0.19849483996E+04  0.19849483996E+04  0.00000000000E+00 0. -1.
         23    2    1    2    0    0  0.51368094380E+02 -0.22222068004E+02 -0.76396662393E+02  0.13097362619E+03  0.90471759713E+02 0.  0.
          5    1    1    2  502    0 -0.14303018798E+03 -0.24466517667E+02 -0.12198893081E+04  0.12284964964E+04  0.41800000000E+01 0. -1.
         -5    1    1    2    0  502  0.91662093598E+02  0.46688585671E+02 -0.65303759012E+03  0.66110311597E+03  0.41800000000E+01 0.  1.
        -11    1    3    3    0    0  0.16656525330E+02 -0.54456902263E+02 -0.28777545021E+02  0.63805494572E+02  0.00000000000E+00 0.  1.
         11    1    3    3    0    0  0.34711569050E+02  0.32234834259E+02 -0.47619117372E+02  0.67168131617E+02  0.00000000000E+00 0. -1.
</event>
<event>
 7    1  0.5831876E-006  0.9830956E+02  0.7561462E-02  0.1283891E+00
          1   -1    0    0  501    0  0.00000000000E+00  0.00000000000E+00  0.13633513092E+03  0.13633513092E+03  0.00000000000E+00 0. -1.
         -1   -1    0    0    0  501 -0.00000000000E+00 -0.00000000000E+00 -0.10544318092E+03  0.10544318092E+03  0.00000000000E+00 0.  1.
         23    2    1    2    0    0 -0.39931734200E+02 -0.26128504580E+02 -0.54804050564E+01  0.10304057352E+03  0.91159655572E+02 0.  0.
          5    1    1    2  502    0  0.35497899479E+02  0.54830681604E+02 -0.25512971014E+02  0.70248762284E+02  0.41800000000E+01 0.  1.
         -5    1    1    2    0  502  0.44338347213E+01 -0.28702177024E+02  0.61885326064E+02  0.68488976035E+02  0.41800000000E+01 0.  1.
        -11    1    3    3    0    0 -0.60231870394E+02 -0.44149845471E+02 -0.10564144211E+02  0.75423392983E+02  0.00000000000E+00 0.  1.
         11    1    3    3    0    0  0.20300136194E+02  0.18021340891E+02  0.50837391546E+01  0.27617180536E+02  0.00000000000E+00 0. -1.
</event>
<event>
 7    1  0.5831876E-006  0.8225665E+02  0.7561462E-02  0.1322767E+00
         -1   -1    0    0    0  501 -0.00000000000E+00  0.00000000000E+00  0.45933447683E+02  0.45933447683E+02  0.00000000000E+00 0.  1.
          1   -1    0    0  501    0  0.00000000000E+00 -0.00000000000E+00 -0.26679128160E+03  0.26679128160E+03  0.00000000000E+00 0. -1.
         23    2    1    2    0    0  0.17530422375E+02 -0.32731998962E+02 -0.93701033440E+02  0.13514185662E+03  0.90026319920E+02 0.  0.
          5    1    1    2  502    0 -0.50136196485E+02  0.33375799192E+01 -0.12342568602E+03  0.13332722905E+03  0.41800000000E+01 0. -1.
         -5    1    1    2    0  502  0.32605774109E+02  0.29394419043E+02 -0.37311144569E+01  0.44255643609E+02  0.41800000000E+01 0.  1.
        -11    1    3    3    0    0  0.18234764308E+02  0.14166282433E+02  0.69370835375E+01  0.24110439966E+02  0.00000000000E+00 0.  1.
         11    1    3    3    0    0 -0.70434193259E+00 -0.46898281396E+02 -0.10063811698E+03  0.11103141665E+03  0.00000000000E+00 0. -1.
</event>
<event>
 6    1  0.5831876E-006  0.3326300E+03  0.7561462E-02  0.1069979E+00
         -2   -1    0    0    0  501 -0.00000000000E+00  0.00000000000E+00  0.50826353500E+02  0.50826353500E+02  0.00000000000E+00 0.  1.
          2   -1    0    0  501    0  0.00000000000E+00 -0.00000000000E+00 -0.27796953482E+04  0.27796953482E+04  0.00000000000E+00 0. -1.
          5    1    1    2  502    0 -0.20500488817E+03 -0.20846127716E+03 -0.17670271716E+04  0.17910571197E+04  0.41800000000E+01 0.  1.
         -5    1    1    2    0  502 -0.12227936968E+02  0.17095002881E+02 -0.19201559137E+03  0.19320771542E+03  0.41800000000E+01 0.  1.
        -11    1    1    2    0    0  0.19463378215E+03  0.40407019652E+02 -0.44057610129E+03  0.48334494661E+03  0.00000000000E+00 0.  1.
         11    1    1    2    0    0  0.22599042980E+02  0.15095925462E+03 -0.32925013039E+03  0.36291191997E+03  0.00000000000E+00 0. -1.
</event>
<event>
 7    1  0.5831876E-006  0.1618226E+03  0.7561462E-02  0.1186654E+00
          1   -1    0    0  501    0  0.00000000000E+00  0.00000000000E+00  0.64923567945E+03  0.64923567945E+03  0.00000000000E+00 0. -1.
         -1   -1    0    0    0  501 -0.00000000000E+00 -0.00000000000E+00 -0.45748747669E+02  0.45748747669E+02  0.00000000000E+00 0.  1.
         23    2    1    2    0    0  0.13004689103E+03 -0.19395475913E+02  0.23373952871E+03  0.28309791116E+03  0.90674592194E+02 0.  0.
          5    1    1    2  502    0 -0.10404875089E+03 -0.38043131859E+02  0.17515614619E+03  0.20729344030E+03  0.41800000000E+01 0.  1.
         -5    1    1    2    0  502 -0.25998140140E+02  0.57438607772E+02  0.19459125688E+03  0.20459307566E+03  0.41800000000E+01 0.  1.
        -11    1    3    3    0    0  0.65073087847E+02  0.26272311721E+02  0.16005017759E+03  0.17475926433E+03  0.00000000000E+00 0.  1.
         11    1    3    3    0    0  0.64973803182E+02 -0.45667787634E+02  0.73689351127E+02  0.10833864683E+03  0.00000000000E+00 0. -1.
</event>
<event>
 7    1  0.5831876E-006  0.1005679E+03  0.7561462E-02  0.1279106E+00
         -3   -1    0    0    0  501 -0.00000000000E+00  0.00000000000E+00  0.89305336800E+02  0.89305336800E+02  0.00000000000E+00 0.  1.
          3   -1    0    0  501    0  0.00000000000E+00 -0.00000000000E+00 -0.18014796128E+03  0.18014796128E+03  0.00000000000E+00 0. -1.
         23    2    1    2    0    0  0.39294154281E+02 -0.43940472259E+02 -0.84592939220E+01  0.10849010204E+03  0.90684877041E+02 0.  0.
          5    1    1    2  502    0  0.10804142890E+02 -0.17004083192E+02 -0.79271793295E+02  0.81898461286E+02  0.41800000000E+01 0.  1.
         -5    1    1    2    0  502 -0.50098297171E+02  0.60944555451E+02 -0.31115372679E+01  0.79064734760E+02  0.41800000000E+01 0.  1.
        -11    1    3    3    0    0  0.17992082324E+02  0.24205069967E+02 -0.19968472012E+02  0.36170987171E+02  0.00000000000E+00 0. -1.
         11    1    3    3    0    0  0.21302071958E+02 -0.68145542226E+02  0.11509178090E+02  0.72319114868E+02  0.00000000000E+00 0.  1.
</event>
<event>
 7    1  0.5831876E-006  0.1116332E+03  0.7561462E-02  0.1257575E+00
         -2   -1    0    0    0  501 -0.00000000000E+00  0.00000000000E+00  0.21360434043E+02  0.21360434043E+02  0.00000000000E+00 0.  1.
          2   -1    0    0  501    0  0.00000000000E+00 -0.00000000000E+00 -0.19258933566E+04  0.19258933566E+04  0.00000000000E+00 0. -1.
         23    2    1    2    0    0 -0.94039085363E+02 -0.28430740073E+02 -0.23450345691E+03  0.26966687982E+03  0.89870452381E+02 0.  0.
          5    1    1    2  502    0  0.32262589684E+02 -0.14429514452E+02 -0.10737824370E+03  0.11312225776E+03  0.41800000000E+01 0.  1.
         -5    1    1    2    0  502  0.61776495680E+02  0.42860254526E+02 -0.15626512220E+04  0.15644646531E+04  0.41800000000E+01 0.  1.
        -11    1    3    3    0    0 -0.67971866211E+02  0.70603294696E+01 -0.64205150772E+02  0.93767394301E+02  0.00000000000E+00 0.  1.
         11    1    3    3    0    0 -0.26067219152E+02 -0.35491069543E+02 -0.17029830614E+03  0.17589948552E+03  0.00000000000E+00 0. -1.
</event>
<event>
 7    1  0.5831876E-006  0.1125165E+03  0.7561462E-02  0.1255979E+00
         -2   -1    0    0    0  501 -0.00000000000E+00  0.00000000000E+00  0.17191236035E+03  0.17191236035E+03  0.00000000000E+00 0.  1.
          2   -1    0    0  501    0  0.00000000000E+00 -0.00000000000E+00 -0.92750000412E+02  0.92750000412E+02  0.00000000000E+00 0. -1.
         23    2    1    2    0    0  0.42372994775E+02  0.29400172381E+01  0.85363953509E+02  0.13241395492E+03  0.91882188223E+02 0.  0.
          5    1    1    2  502    0 -0.24834403628E+02 -0.59419220872E+02 -0.26239999759E+02  0.69666357734E+02  0.41800000000E+01 0. -1.
         -5    1    1    2    0  502 -0.17538591147E+02  0.56479203634E+02  0.20038406191E+02  0.62582048107E+02  0.41800000000E+01 0. -1.
        -11    1    3    3    0    0  0.65053479582E+02  0.24885164719E+02  0.57698021067E+02  0.90444946038E+02  0.00000000000E+00 0. -1.
         11    1    3    3    0    0 -0.22680484807E+02 -0.21945147481E+02  0.27665932442E+02  0.41969008886E+02  0.00000000000E+00 0.  1.
</event>
<event>
 7    1  0.5831876E-006  0.7384182E+02  0.7561462E-02  0.1347496E+00
          2   -1    0    0  501    0  0.00000000000E+00  0.00000000000E+00  0.41137222725E+03  0.41137222725E+03  0.00000000000E+00 0. -1.
         -2   -1    0    0    0  501 -0.00000000000E+00 -0.00000000000E+00 -0.48001066736E+02  0.48001066736E+02  0.00000000000E+00 0.  1.
         23    2    1    2    0    0 -0.11776993536E+02  0.55595501359E+02  0.54123987603E+02  0.12098128579E+03  0.92073384471E+02 0.  0.
          5    1    1    2  502    0 -0.17237311995E+02 -0.23005014349E+02  0.32031785019E+01  0.29224790205E+02  0.41800000000E+01 0. -1.
         -5    1    1    2    0  502  0.29014305532E+02 -0.32590487011E+02  0.30604399440E+03  0.30916721799E+03  0.41800000000E+01 0. -1.
        -11    1    3    3    0    0  0.17632565277E+02  0.34045922645E+02 -0.16313326850E+02  0.41667215408E+02  0.00000000000E+00 0.  1.
         11    1    3    3    0    0 -0.29409558814E+02  0.21549578715E+02  0.70437314453E+02  0.79314070377E+02  0.00000000000E+00 0. -1.
</event>
<event>
 7    1  0.5831876E-006  0.1097300E+03  0.7561462E-02  0.1261071E+00
         -2   -1    0    0    0  501 -0.00000000000E+00  0.00000000000E+00  0.14133773936E+02  0.14133773936E+02  0.00000000000E+00 0. -1.
          2   -1    0    0  501    0  0.00000000000E+00 -0.00000000000E+00 -0.18287877490E+04  0.18287877490E+04  0.00000000000E+00 0.  1.
         23    2    1    2    0    0  0.14383533545E+02  0.48838711014E+02 -0.23730900088E+03  0.26042361495E+03  0.94407582286E+02 0.  0.
          5    1    1    2  502    0 -0.62099694097E+02 -0.32041461249E+02 -0.11539062244E+04  0.11560277135E+04  0.41800000000E+01 0.  1.
         -5    1    1    2    0  502  0.47716160552E+02 -0.16797249765E+02 -0.42343874975E+03  0.42647019447E+03  0.41800000000E+01 0. -1.
        -11    1    3    3    0    0  0.42190740275E+02 -0.35096002553E+00 -0.53558766834E+02  0.68181546203E+02  0.00000000000E+00 0. -1.
         11    1    3    3    0    0 -0.27807206731E+02  0.49189671039E+02 -0.18375023405E+03  0.19224206875E+03  0.00000000000E+00 0.  1.
</event>
<event>
 7    1  0.5831876E-006  0.1138622E+03  0.7561462E-02  0.1253580E+00
          2   -1    0    0  501    0  0.00000000000E+00  0.00000000000E+00  0.54431161574E+03  0.54431161574E+03  0.00000000000E+00 0. -1.
         -2   -1    0    0    0  501 -0.00000000000E+00 -0.00000000000E+00 -0.30823725425E+02  0.30823725425E+02  0.00000000000E+00 0.  1.
         23    2    1    2    0    0  0.25708327767E+02 -0.29752349007E+02  0.99901086276E+02  0.14127469366E+03  0.91826965771E+02 0.  0.
          5    1    1    2  502    0 -0.34694824777E+01 -0.48319978175E+02  0.18369030404E+03  0.19001699345E+03  0.41800000000E+01 0. -1.
         -5    1    1    2    0  502 -0.22238845290E+02  0.78072327182E+02  0.22989650000E+03  0.24384365405E+03  0.41800000000E+01 0. -1.
        -11    1    3    3    0    0  0.55428952992E+02 -0.37718155440E+02  0.54361759304E+02  0.86314708794E+02  0.00000000000E+00 0. -1.
         11    1    3    3    0    0 -0.29720625224E+02  0.79658064333E+01  0.45539326971E+02  0.54959984869E+02  0.00000000000E+00 0.  1.
</event>
<event>
 7    1  0.5831876E-006  0.1224709E+03  0.7561462E-02  0.1239076E+00
         -2   -1    0    0    0  501 -0.00000000000E+00  0.00000000000E+00  0.82739348854E+02  0.82739348854E+02  0.00000000000E+00 0.  1.
          2   -1    0    0  501    0  0.00000000000E+00 -0.00000000000E+00 -0.27319731129E+03  0.27319731129E+03  0.00000000000E+00 0. -1.
         23    2    1    2    0    0  0.79212851397E+02  0.20820278301E+02 -0.11077381241E+02  0.12241312731E+03  0.90300086096E+02 0.  0.
          5    1    1    2  502    0  0.20760761441E+02  0.11501618014E+02  0.16652858439E+01  0.24156614198E+02  0.41800000000E+01 0. -1.
         -5    1    1    2    0  502 -0.99973612838E+02 -0.32321896314E+02 -0.18104586704E+03  0.20936691863E+03  0.41800000000E+01 0. -1.
        -11    1    3    3    0    0  0.74203937354E+01  0.40560716556E+02  0.14464004084E+02  0.43697155340E+02  0.00000000000E+00 0.  1.
         11    1    3    3    0    0  0.71792457661E+02 -0.19740438255E+02 -0.25541385325E+02  0.78715971974E+02  0.00000000000E+00 0. -1.
</event>
<event>
 7    1  0.5831876E-006  0.9578799E+02  0.7561462E-02  0.1289411E+00
          1   -1    0    0  501    0  0.00000000000E+00  0.00000000000E+00  0.10863943084E+03  0.10863943084E+03  0.00000000000E+00 0. -1.
         -1   -1    0    0    0  501 -0.00000000000E+00 -0.00000000000E+00 -0.44396356203E+03  0.44396356203E+03  0.00000000000E+00 0.  1.
         23    2    1    2    0    0 -0.34580658176E+01  0.16787324358E+02 -0.39348948743E+03  0.40410699187E+03  0.90414112152E+02 0.  0.
          5    1    1    2  502    0  0.40333973504E+02 -0.39378359413E+02  0.81497155344E+02  0.99180357621E+02  0.41800000000E+01 0. -1.
         -5    1    1    2    0  502 -0.36875907686E+02  0.22591035056E+02 -0.23331799097E+02  0.49315643377E+02  0.41800000000E+01 0.  1.
        -11    1    3    3    0    0  0.33801030419E+02  0.36254075326E+02 -0.23197506996E+03  0.23721151051E+03  0.00000000000E+00 0.  1.
         11    1    3    3    0    0 -0.37259096236E+02 -0.19466750968E+02 -0.16151441747E+03  0.16689548136E+03  0.00000000000E+00 0. -1.
</event>
<event>
 6    1  0.5831876E-006  0.1364035E+03  0.7561462E-02  0.1218252E+00
         -4   -1    0    0    0  501 -0.00000000000E+00  0.00000000000E+00  0.46229163222E+02  0.46229163222E+02  0.00000000000E+00 0. -1.
          4   -1    0    0  501    0  0.00000000000E+00 -0.00000000000E+00 -0.43286469203E+03  0.43286469203E+03  0.00000000000E+00 0.  1.
          5    1    1    2  502    0  0.66402136509E+02 -0.27015255758E+02 -0.63803484674E+02  0.96059485909E+02  0.41800000000E+01 0. -1.
         -5    1    1    2    0  502  0.30948272580E+02  0.80482804324E+02 -0.17982257017E+03  0.19947156817E+03  0.41800000000E+01 0. -1.
        -11    1    1    2    0    0 -0.70629610081E+02 -0.23311249105E+02 -0.10002083987E+03  0.12464399129E+03  0.00000000000E+00 0.  1.
         11    1    1    2    0    0 -0.26720799008E+02 -0.30156299462E+02 -0.42988634094E+02  0.58918809884E+02  0.00000000000E+00 0. -1.
</event>
<event>
 7    1  0.5831876E-006  0.1500860E+03  0.7561462E-02  0.1200367E+00
          1   -1    0    0  501    0  0.00000000000E+00  0.00000000000E+00  0.21618794739E+03  0.21618794739E+03  0.00000000000E+00 0. -1.
         -1   -1    0    0    0  501 -0.00000000000E+00 -0.00000000000E+00 -0.14923527610E+03  0.14923527610E+03  0.00000000000E+00 0.  1.
         23    2    1    2    0    0 -0.11746093439E+03 -0.59529515680E+02 -0.23047660790E+02  0.16271999562E+03  0.92767278512E+02 0.  0.
          5    1    1    2  502    0  0.12299992145E+03  0.75819310486E+02  0.40479289975E+02  0.15011193769E+03  0.41800000000E+01 0.  1.
         -5    1    1    2    0  502 -0.55389870658E+01 -0.16289794806E+02  0.49521042101E+02  0.52591290185E+02  0.41800000000E+01 0.  1.
        -11    1    3    3    0    0 -0.21571100320E+02 -0.31193993147E+02 -0.46512366246E+02  0.60014813098E+02  0.00000000000E+00 0.  1.
         11    1    3    3    0    0 -0.95889834066E+02 -0.28335522533E+02  0.23464705457E+02  0.10270518252E+03  0.00000000000E+00 0. -1.
</event>
<event>
 7    1  0.5831876E-006  0.1578334E+03  0.7561462E-02  0.1191165E+00
         -2   -1    0    0    0  501 -0.00000000000E+00  0.00000000000E+00  0.15046124988E+03  0.15046124988E+03  0.00000000000E+00 0.  1.
          2   -1    0    0  501    0  0.00000000000E+00 -0.00000000000E+00 -0.30256444527E+03  0.30256444527E+03  0.00000000000E+00 0. -1.
         23    2    1    2    0    0  0.86132605085E+02 -0.75557169606E+02  0.78712867217E+02  0.16653182815E+03  0.91702904998E+02 0.  0.
          5    1    1    2  502    0  0.32472662948E+02  0.20697118998E+02 -0.46601197075E+02  0.60596935092E+02  0.41800000000E+01 0. -1.
         -5    1    1    2    0  502 -0.11860526803E+03  0.54860050608E+02 -0.18421486553E+03  0.22589693190E+03  0.41800000000E+01 0. -1.
        -11    1    3    3    0    0 -0.33633976201E+01 -0.54035723025E+02  0.22161113434E+02  0.58500314145E+02  0.00000000000E+00 0. -1.
         11    1    3    3    0    0  0.89496002705E+02 -0.21521446581E+02  0.56551753783E+02  0.10803151401E+03  0.00000000000E+00 0.  1.
</event>
<event>
 7    1  0.5831876E-006  0.8360444E+02  0.7561462E-02  0.1319123E+00
         -2   -1    0    0    0  501 -0.00000000000E+00  0.00000000000E+00  0.80740191662E+02  0.80740191662E+02  0.00000000000E+00 0. -1.
          2   -1    0    0  501    0  0.00000000000E+00 -0.00000000000E+00 -0.17604405326E+03  0.17604405326E+03  0.00000000000E+00 0.  1.
         23    2    1    2    0    0 -0.36152946181E+02 -0.15611571677E+02 -0.96036085293E+01  0.10012317568E+03  0.91551429933E+02 0.  0.
          5    1    1    2  502    0  0.35093979090E+02 -0.13712277745E+02 -0.11124882739E+03  0.11753037022E+03  0.41800000000E+01 0. -1.
         -5    1    1    2    0  502  0.10589670907E+01  0.29323849422E+02  0.25548574320E+02  0.39130699023E+02  0.41800000000E+01 0. -1.
        -11    1    3    3    0    0 -0.28433784450E+01  0.37153096792E+02 -0.34000358473E+01  0.37416542411E+02  0.00000000000E+00 0.  1.
         11    1    3    3    0    0 -0.33309567736E+02 -0.52764668469E+02 -0.62035726820E+01  0.62706633265E+02  0.00000000000E+00 0. -1.
</event>
<event>
 7    1  0.5831876E-006  0.2203141E+03  0.7561462E-02  0.1133649E+00
          1   -1    0    0  501    0  0.00000000000E+00  0.00000000000E+00  0.18404805899E+04  0.18404805899E+04  0.00000000000E+00 0. -1.
         -1   -1    0    0    0  501 -0.00000000000E+00 -0.00000000000E+00 -0.31831205924E+02  0.31831205924E+02  0.00000000000E+00 0.  1.
         23    2    1    2    0    0 -0.19732795100E+03  0.36934152563E+02  0.57156871561E+03  0.61282065572E+03  0.92498148865E+02 0.  0.
          5    1    1    2  502    0  0.32353138476E+02 -0.58566164935E+02  0.45355715628E+03  0.45848477364E+03  0.41800000000E+01 0.  1.
         -5    1    1    2    0  502  0.16497481252E+03  0.21632012372E+02  0.78352351208E+03  0.80100636646E+03  0.41800000000E+01 0.  1.
        -11    1    3    3    0    0 -0.24813964310E+02 -0.12373268616E+02  0.24225586019E+02  0.36819962235E+02  0.00000000000E+00 0.  1.
         11    1    3    3    0    0 -0.17251398669E+03  0.49307421178E+02  0.54734312959E+03  0.57600069348E+03  0.00000000000E+00 0. -1.
</event>
<event>
 7    1  0.5831876E-006  0.7755402E+02  0.7561462E-02  0.1336140E+00
         -3   -1    0    0    0  501 -0.00000000000E+00  0.00000000000E+00  0.20201817164E+03  0.20201817164E+03  0.00000000000E+00 0.  1.
          3   -1    0    0  501    0  0.00000000000E+00 -0.00000000000E+00 -0.89764285565E+02  0.89764285565E+02  0.00000000000E+00 0. -1.
         23    2    1    2    0    0 -0.37481082924E+02 -0.10516264782E+02  0.12964745612E+03  0.16302110698E+03  0.90840492302E+02 0.  0.
          5    1    1    2  502    0  0.20503710266E+02  0.26864172116E+02 -0.66175717781E+02  0.74423006537E+02  0.41800000000E+01 0. -1.
         -5    1    1    2    0  502  0.16977372658E+02 -0.16347907335E+02  0.48782147740E+02  0.54338343688E+02  0.41800000000E+01 0.  1.
        -11    1    3    3    0    0 -0.60955028515E+02 -0.28750609367E+02  0.10306639826E+03  0.12314542416E+03  0.00000000000E+00 0.  1.
         11    1    3    3    0    0  0.23473945591E+02  0.18234344585E+02  0.26581057861E+02  0.39875682829E+02  0.00000000000E+00 0. -1.
</event>
<event>
 7    1  0.5831876E-006  0.1193821E+03  0.7561462E-02  0.1244120E+00
         -1   -1    0    0    0  501 -0.00000000000E+00  0.00000000000E+00  0.79185716297E+02  0.79185716297E+02  0.00000000000E+00 0.  1.
          1   -1    0    0  501    0  0.00000000000E+00 -0.00000000000E+00 -0.26555085978E+03  0.26555085978E+03  0.00000000000E+00 0. -1.
         23    2    1    2    0    0  0.38045825329E+02 -0.79498710168E+02 -0.38799971994E+02  0.13215979861E+03  0.90516544339E+02 0.  0.
          5    1    1    2  502    0 -0.13144087790E+02  0.85430195360E+02 -0.16143330210E+03  0.18316459469E+03  0.41800000000E+01 0. -1.
         -5    1    1    2    0  502 -0.24901737539E+02 -0.59314851923E+01  0.13868130606E+02  0.29412182775E+02  0.41800000000E+01 0. -1.
        -11    1    3    3    0    0  0.67371051444E+02 -0.45027612314E+02 -0.26595204483E+02  0.85285692498E+02  0.00000000000E+00 0.  1.
         11    1    3    3    0    0 -0.29325226116E+02 -0.34471097854E+02 -0.12204767510E+02  0.46874106114E+02  0.00000000000E+00 0. -1.
</event>
<event>
 7    1  0.5831876E-006  0.1358167E+03  0.7561462E-02  0.1219071E+00
          1   -1    0    0  501    0  0.00000000000E+00  0.00000000000E+00  0.81591063109E+03  0.81591063109E+03  0.00000000000E+00 0. -1.
         -1   -1    0    0    0  501 -0.00000000000E+00 -0.00000000000E+00 -0.32880646813E+02  0.32880646813E+02  0.00000000000E+00 0.  1.
         23    2    1    2    0    0  0.82608329681E+02 -0.82771065371E+02  0.31870316179E+03  0.35389508414E+03  0.99974195917E+02 0.  0.
          5    1    1    2  502    0 -0.19339515208E+02  0.10344221062E+02  0.32375843788E+03  0.32452737674E+03  0.41800000000E+01 0.  1.
         -5    1    1    2    0  502 -0.63268814473E+02  0.72426844309E+02  0.14056838461E+03  0.17036881702E+03  0.41800000000E+01 0.  1.
        -11    1    3    3    0    0 -0.75692578376E+01 -0.59411853948E+02  0.14272702450E+03  0.15478393191E+03  0.00000000000E+00 0. -1.
         11    1    3    3    0    0  0.90177587519E+02 -0.23359211423E+02  0.17597613729E+03  0.19911115224E+03  0.00000000000E+00 0.  1.
</event>
<event>
 7    1  0.5831876E-006  0.1207538E+03  0.7561462E-02  0.1241859E+00
          1   -1    0    0  501    0  0.00000000000E+00  0.00000000000E+00  0.39118961534E+03  0.39118961534E+03  0.00000000000E+00 0. -1.
         -1   -1    0    0    0  501 -0.00000000000E+00 -0.00000000000E+00 -0.56775406053E+02  0.56775406053E+02  0.00000000000E+00 0.  1.
         23    2    1    2    0    0  0.79766177922E+02  0.30105792868E+02  0.68981973619E+02  0.14239826707E+03  0.90828144733E+02 0.  0.
          5    1    1    2  502    0 -0.27080052846E+02  0.46783469913E+02  0.66190093279E+02  0.85560640294E+02  0.41800000000E+01 0.  1.
         -5    1    1    2    0  502 -0.52686125076E+02 -0.76889262781E+02  0.19924214239E+03  0.22000611403E+03  0.41800000000E+01 0.  1.
        -11    1    3    3    0    0  0.36543613946E+02  0.34861542234E+02 -0.10697789612E+02  0.51625628807E+02  0.00000000000E+00 0.  1.
         11    1    3    3    0    0  0.43222563977E+02 -0.47557493657E+01  0.79679763231E+02  0.90772638263E+02  0.00000000000E+00 0. -1.
</event>
<event>
 7    1  0.5831876E-006  0.1118035E+03  0.7561462E-02  0.1257266E+00
         -1   -1    0    0    0  501 -0.00000000000E+00  0.00000000000E+00  0.11855820724E+03  0.11855820724E+03  0.00000000000E+00 0.  1.
          1   -1    0    0  501    0  0.00000000000E+00 -0.00000000000E+00 -0.16233682736E+03  0.16233682736E+03  0.00000000000E+00 0. -1.
         23    2    1    2    0    0  0.46821777093E+02 -0.61753373195E+02  0.19141294232E+02  0.12085332460E+03  0.90737968962E+02 0.  0.
          5    1    1    2  502    0  0.30174569488E+02  0.51627569211E+02 -0.55881791104E+02  0.81952166069E+02  0.41800000000E+01 0.  1.
         -5    1    1    2    0  502 -0.76996346581E+02  0.10125803984E+02 -0.70381232497E+01  0.78089543935E+02  0.41800000000E+01 0.  1.
        -11    1    3    3    0    0  0.45412526275E+02 -0.30724813946E+02  0.52050239399E+02  0.75601184886E+02  0.00000000000E+00 0.  1.
         11    1    3    3    0    0  0.14092508180E+01 -0.31028559249E+02 -0.32908945166E+02  0.45252139716E+02  0.00000000000E+00 0. -1.
</event>
<event>
 7    1  0.5831876E-006  0.2843624E+03  0.7561462E-02  0.1093330E+00
          1   -1    0    0  501    0  0.00000000000E+00  0.00000000000E+00  0.72968215919E+03  0.72968215919E+03  0.00000000000E+00 0. -1.
         -1   -1    0    0    0  501 -0.00000000000E+00 -0.00000000000E+00 -0.15757033329E+03  0.15757033329E+03  0.00000000000E+00 0.  1.
         23    2    1    2    0    0  0.17472685244E+03 -0.21790774589E+03  0.75096312232E+02  0.30357047038E+03  0.92208002317E+02 0.  0.
          5    1    1    2  502    0 -0.12310363494E+03  0.14988924563E+03  0.21782817774E+03  0.29169826587E+03  0.41800000000E+01 0. -1.
         -5    1    1    2    0  502 -0.51623217501E+02  0.68018500259E+02  0.27918733593E+03  0.29198375624E+03  0.41800000000E+01 0. -1.
        -11    1    3    3    0    0  0.86383625472E+02 -0.50828982916E+02  0.75117679394E-01  0.10022834877E+03  0.00000000000E+00 0.  1.
         11    1    3    3    0    0  0.88343226965E+02 -0.16707876298E+03  0.75021194552E+02  0.20334212161E+03  0.00000000000E+00 0. -1.
</event>
<event>
 7    1  0.5831876E-006  0.9924925E+02  0.7561462E-02  0.1281883E+00
          1   -1    0    0  501    0  0.00000000000E+00  0.00000000000E+00  0.66243873310E+02  0.66243873310E+02  0.00000000000E+00 0. -1.
         -1   -1    0    0    0  501 -0.00000000000E+00 -0.00000000000E+00 -0.23213956683E+03  0.23213956683E+03  0.00000000000E+00 0.  1.
         23    2    1    2    0    0 -0.33907184346E+02 -0.25696983277E+02 -0.12153120416E+03  0.15900782756E+03  0.93293212728E+02 0.  0.
          5    1    1    2  502    0  0.55287296529E+02 -0.23483784337E+02  0.12071914450E+02  0.61411536398E+02  0.41800000000E+01 0.  1.
         -5    1    1    2    0  502 -0.21380112182E+02  0.49180767614E+02 -0.56436403818E+02  0.77964076189E+02  0.41800000000E+01 0.  1.
        -11    1    3    3    0    0 -0.16059406929E+02  0.25578795144E+02 -0.92779539351E+02  0.97571626174E+02  0.00000000000E+00 0.  1.
         11    1    3    3    0    0 -0.17847777417E+02 -0.51275778421E+02 -0.28751664804E+02  0.61436201384E+02  0.00000000000E+00 0. -1.
</event>
<event>
 7    1  0.5831876E-006  0.1218432E+03  0.7561462E-02  0.1240087E+00
         -2   -1    0    0    0  501 -0.00000000000E+00  0.00000000000E+00  0.20755220049E+03  0.20755220049E+03  0.00000000000E+00 0. -1.
          2   -1    0    0  501    0  0.00000000000E+00 -0.00000000000E+00 -0.13349575471E+03  0.13349575471E+03  0.00000000000E+00 0.  1.
         23    2    1    2    0    0  0.96928229304E+02  0.35108465868E+02  0.10882383432E+03  0.17526413008E+03  0.90814108837E+02 0.  0.
          5    1    1    2  502    0 -0.85835689289E+02 -0.42519246095E+02 -0.75934545614E+02  0.12230772446E+03  0.41800000000E+01 0. -1.
         -5    1    1    2    0  502 -0.11092540015E+02  0.74107802273E+01  0.41167157072E+02  0.43476100664E+02  0.41800000000E+01 0. -1.
        -11    1    3    3    0    0  0.89781963446E+02 -0.79919157861E+01  0.53677961274E+02  0.10490946194E+03  0.00000000000E+00 0.  1.
         11    1    3    3    0    0  0.71462658573E+01  0.43100381654E+02  0.55145873049E+02  0.70354668138E+02  0.00000000000E+00 0. -1.
</event>
<event>
 7    1  0.5831876E-006  0.1186025E+03  0.7561462E-02  0.1245420E+00
         -1   -1    0    0    0  501 -0.00000000000E+00  0.00000000000E+00  0.12679575783E+02  0.12679575783E+02  0.00000000000E+00 0.  1.
          1   -1    0    0  501    0  0.00000000000E+00 -0.00000000000E+00 -0.13990486756E+04  0.13990486756E+04  0.00000000000E+00 0. -1.
         23    2    1    2    0    0  0.39482452024E+01  0.54956742270E+02 -0.35324520648E+03  0.36960283447E+03  0.93745651570E+02 0.  0.
          5    1    1    2  502    0  0.39542532502E+02  0.22566699243E+02 -0.27180772729E+03  0.27562616133E+03  0.41800000000E+01 0.  1.
         -5    1    1    2    0  502 -0.43490777705E+02 -0.77523441513E+02 -0.76131616600E+03  0.76649925554E+03  0.41800000000E+01 0.  1.
        -11    1    3    3    0    0 -0.40930569498E+02  0.32775283798E+02 -0.24195246567E+03  0.24756923555E+03  0.00000000000E+00 0. -1.
         11    1    3    3    0    0  0.44878814701E+02  0.22181458472E+02 -0.11129274081E+03  0.12203359892E+03  0.00000000000E+00 0.  1.
</event>
<event>
 7    1  0.5831876E-006  0.8617146E+02  0.7561462E-02  0.1312397E+00
          1   -1    0    0  501    0  0.00000000000E+00  0.00000000000E+00  0.54871116791E+03  0.54871116791E+03  0.00000000000E+00 0. -1.
         -1   -1    0    0    0  501 -0.00000000000E+00 -0.00000000000E+00 -0.27911046698E+02  0.27911046698E+02  0.00000000000E+00 0.  1.
         23    2    1    2    0    0  0.14825073252E+02  0.57931266535E+01  0.12259830491E+03  0.16013564081E+03  0.10178278823E+03 0.  0.
          5    1    1    2  502    0  0.26609774570E+02  0.30183346867E+02  0.51724595500E+02  0.65665978333E+02  0.41800000000E+01 0. -1.
         -5    1    1    2    0  502 -0.41434847821E+02 -0.35976473521E+02  0.34647722081E+03  0.35082059546E+03  0.41800000000E+01 0.  1.
        -11    1    3    3    0    0  0.36671562862E+01  0.40363002444E+02  0.98906790446E+01  0.41718647311E+02  0.00000000000E+00 0.  1.
         11    1    3    3    0    0  0.11157916965E+02 -0.34569875791E+02  0.11270762586E+03  0.11841699350E+03  0.00000000000E+00 0. -1.
</event>
<event>
 7    1  0.5831876E-006  0.9467854E+02  0.7561462E-02  0.1291902E+00
          1   -1    0    0  501    0  0.00000000000E+00  0.00000000000E+00  0.65619141357E+03  0.65619141357E+03  0.00000000000E+00 0.  1.
         -1   -1    0    0    0  501 -0.00000000000E+00 -0.00000000000E+00 -0.19935435190E+02  0.19935435190E+02  0.00000000000E+00 0. -1.
         23    2    1    2    0    0 -0.57346385389E+01 -0.15449062148E+02  0.17507716049E+03  0.19800062754E+03  0.90998224041E+02 0.  0.
          5    1    1    2  502    0  0.28851027169E+02 -0.38042830183E+02  0.34260149709E+03  0.34593770668E+03  0.41800000000E+01 0.  1.
         -5    1    1    2    0  502 -0.23116388630E+02  0.53491892331E+02  0.11857732080E+03  0.13218851454E+03  0.41800000000E+01 0.  1.
        -11    1    3    3    0    0 -0.19601634506E+02  0.29806179420E+02  0.12093095626E+03  0.12608302261E+03  0.00000000000E+00 0.  1.
         11    1    3    3    0    0  0.13866995968E+02 -0.45255241568E+02  0.54146204230E+02  0.71917604931E+02  0.00000000000E+00 0. -1.
</event>
<event>
 7    1  0.5831876E-006  0.1824330E+03  0.7561462E-02  0.1165469E+00
         -1   -1    0    0    0  501 -0.00000000000E+00  0.00000000000E+00  0.23150039857E+03  0.23150039857E+03  0.00000000000E+00 0. -1.
          1   -1    0    0  501    0  0.00000000000E+00 -0.00000000000E+00 -0.24523567355E+03  0.24523567355E+03  0.00000000000E+00 0.  1.
         23    2    1    2    0    0 -0.35538465696E+02 -0.17233298797E+03  0.11113847856E+03  0.22733223218E+03  0.91468798414E+02 0.  0.
          5    1    1    2  502    0 -0.11413821286E+02  0.49529208864E+02  0.19035410825E+02  0.54435623559E+02  0.41800000000E+01 0.  1.
         -5    1    1    2    0  502  0.46952286982E+02  0.12280377910E+03 -0.14390916437E+03  0.19496821639E+03  0.41800000000E+01 0.  1.
        -11    1    3    3    0    0  0.84267331746E+01 -0.61645821663E+01  0.39942452812E+02  0.41284518187E+02  0.00000000000E+00 0.  1.
         11    1    3    3    0    0 -0.43965198871E+02 -0.16616840580E+03  0.71196025752E+02  0.18604771399E+03  0.00000000000E+00 0. -1.
</event>
<event>
 7    1  0.5831876E-006  0.2254473E+03  0.7561462E-02  0.1129886E+00
          1   -1    0    0  501    0  0.00000000000E+00  0.00000000000E+00  0.14367314108E+03  0.14367314108E+03  0.00000000000E+00 0. -1.
         -1   -1    0    0    0  501 -0.00000000000E+00 -0.00000000000E+00 -0.37555038513E+03  0.37555038513E+03  0.00000000000E+00 0.  1.
         23    2    1    2    0    0 -0.14413243009E+03  0.14155125814E+03 -0.72490760347E+02  0.23310830691E+03  0.90959641194E+02 0.  0.
          5    1    1    2  502    0  0.16029692420E+03 -0.11246096732E+03 -0.15947900788E+03  0.25257394845E+03  0.41800000000E+01 0.  1.
         -5    1    1    2    0  502 -0.16164494110E+02 -0.29090290821E+02  0.92524174652E-01  0.33541270855E+02  0.41800000000E+01 0.  1.
        -11    1    3    3    0    0 -0.29600107993E+02  0.92108130351E+02 -0.34219443028E+02  0.10262087678E+03  0.00000000000E+00 0.  1.
         11    1    3    3    0    0 -0.11453232210E+03  0.49443127793E+02 -0.38271317320E+02  0.13048743013E+03  0.00000000000E+00 0. -1.
</event>
<event>
 7    1  0.5831876E-006  0.1544938E+03  0.7561462E-02  0.1195057E+00
         -2   -1    0    0    0  501 -0.00000000000E+00  0.00000000000E+00  0.11028175361E+03  0.11028175361E+03  0.00000000000E+00 0. -1.
          2   -1    0    0  501    0  0.00000000000E+00 -0.00000000000E+00 -0.29975210061E+03  0.29975210061E+03  0.00000000000E+00 0.  1.
         23    2    1    2    0    0  0.12191676260E+03  0.79225966761E+02 -0.75579357703E+02  0.18696670089E+03  0.90021425886E+02 0.  0.
          5    1    1    2  502    0 -0.19502083136E+02 -0.34170653346E+02 -0.10328113558E+03  0.11060031719E+03  0.41800000000E+01 0.  1.
         -5    1    1    2    0  502 -0.10241467946E+03 -0.45055313415E+02 -0.10609853716E+02  0.11246683614E+03  0.41800000000E+01 0.  1.
        -11    1    3    3    0    0  0.45440250803E+02 -0.25256818068E+01 -0.57880599353E+02  0.73629880097E+02  0.00000000000E+00 0.  1.
         11    1    3    3    0    0  0.76476511792E+02  0.81751648568E+02 -0.17698758350E+02  0.11333682079E+03  0.00000000000E+00 0. -1.
</event>
<event>
 7    1  0.5831876E-006  0.1184204E+03  0.7561462E-02  0.1245726E+00
         -1   -1    0    0    0  501 -0.00000000000E+00  0.00000000000E+00  0.72151569289E+02  0.72151569289E+02  0.00000000000E+00 0.  1.
          1   -1    0    0  501    0  0.00000000000E+00 -0.00000000000E+00 -0.39171446166E+03  0.39171446166E+03  0.00000000000E+00 0. -1.
         23    2    1    2    0    0 -0.29296998591E+02  0.62434595625E+02 -0.47947591366E+00  0.11426985987E+03  0.91109703771E+02 0.  0.
          5    1    1    2  502    0  0.76089552383E+02 -0.57691829978E+02 -0.21756782041E+03  0.23763668931E+03  0.41800000000E+01 0.  1.
         -5    1    1    2    0  502 -0.46792553792E+02 -0.47427656468E+01 -0.10151559604E+03  0.11195948176E+03  0.41800000000E+01 0.  1.
        -11    1    3    3    0    0  0.90645829077E+01  0.54013147141E+02  0.31888594151E+02  0.63375619636E+02  0.00000000000E+00 0.  1.
         11    1    3    3    0    0 -0.38361581499E+02  0.84214484840E+01 -0.32368070065E+02  0.50894240238E+02  0.00000000000E+00 0. -1.
</event>
<event>
 7    1  0.5831876E-006  0.1380050E+03  0.7561462E-02  0.1216039E+00
         -2   -1    0    0    0  501 -0.00000000000E+00  0.00000000000E+00  0.47847187029E+03  0.47847187029E+03  0.00000000000E+00 0.  1.
          2   -1    0    0  501    0  0.00000000000E+00 -0.00000000000E+00 -0.12544308589E+03  0.12544308589E+03  0.00000000000E+00 0. -1.
         23    2    1    2    0    0 -0.79952339282E+02  0.35932383476E+02  0.41889980786E+03  0.43756796380E+03  0.91132657008E+02 0.  0.
          5    1    1    2  502    0  0.61279042924E+02  0.38763382042E+02 -0.48414624263E+02  0.87287852142E+02  0.41800000000E+01 0.  1.
         -5    1    1    2    0  502  0.18673296357E+02 -0.74695765517E+02 -0.17456399205E+02  0.79059140245E+02  0.41800000000E+01 0.  1.
        -11    1    3    3    0    0 -0.99619380927E+02  0.21594785977E+02  0.34688274899E+03  0.36154943975E+03  0.00000000000E+00 0.  1.
         11    1    3    3    0    0  0.19667041645E+02  0.14337597499E+02  0.72017058875E+02  0.76018524046E+02  0.00000000000E+00 0. -1.
</event>
<event>
 7    1  0.5831876E-006  0.1455592E+03  0.7561462E-02  0.1206038E+00
         -3   -1    0    0    0  501 -0.00000000000E+00  0.00000000000E+00  0.17368706567E+03  0.17368706567E+03  0.00000000000E+00 0.  1.
          3   -1    0    0  501    0  0.00000000000E+00 -0.00000000000E+00 -0.14435943628E+03  0.14435943628E+03  0.00000000000E+00 0. -1.
         23    2    1    2    0    0  0.88459468574E+02 -0.72751192682E+02  0.22446486118E+02  0.14829892435E+03  0.91492691549E+02 0.  0.
          5    1    1    2  502    0 -0.10636838377E+03  0.82947045033E+02  0.30261058215E+02  0.13830274541E+03  0.41800000000E+01 0. -1.
         -5    1    1    2    0  502  0.17908915192E+02 -0.10195852351E+02 -0.23379914939E+02  0.31444832184E+02  0.41800000000E+01 0. -1.
        -11    1    3    3    0    0  0.74512008921E+02 -0.15361273291E+02 -0.16111559248E+02  0.77766255741E+02  0.00000000000E+00 0.  1.
         11    1    3    3    0    0  0.13947459653E+02 -0.57389919391E+02  0.38558045366E+02  0.70532668608E+02  0.00000000000E+00 0. -1.
</event>
<event>
 7    1  0.5831876E-006  0.1004558E+03  0.7561462E-02  0.1279340E+00
         -3   -1    0    0    0  501 -0.00000000000E+00  0.00000000000E+00  0.34995913088E+02  0.34995913088E+02  0.00000000000E+00 0.  1.
          3   -1    0    0  501    0  0.00000000000E+00 -0.00000000000E+00 -0.33817287057E+03  0.33817287057E+03  0.00000000000E+00 0. -1.
         23    2    1    2    0    0  0.31466616982E+02 -0.20787274223E+02 -0.11918478296E+03  0.15408987637E+03  0.90091169138E+02 0.  0.
          5    1    1    2  502    0 -0.63630950759E+02 -0.34798880848E+01 -0.56371039817E+02  0.85183179358E+02  0.41800000000E+01 0. -1.
         -5    1    1    2    0  502  0.32164333777E+02  0.24267162308E+02 -0.12762113471E+03  0.13389572793E+03  0.41800000000E+01 0.  1.
        -11    1    3    3    0    0  0.40236710155E+02  0.26674298975E+02 -0.47934558381E+02  0.68031117564E+02  0.00000000000E+00 0.  1.
         11    1    3    3    0    0 -0.87700931733E+01 -0.47461573198E+02 -0.71250224575E+02  0.86058758803E+02  0.00000000000E+00 0. -1.
</event>
<event>
 7    1  0.5831876E-006  0.1619329E+03  0.7561462E-02  0.1186532E+00
          2   -1    0    0  501    0  0.00000000000E+00  0.00000000000E+00  0.13017405637E+03  0.13017405637E+03  0.00000000000E+00 0.  1.
         -2   -1    0    0    0  501 -0.00000000000E+00 -0.00000000000E+00 -0.32263814939E+03  0.32263814939E+03  0.00000000000E+00 0. -1.
         23    2    1    2    0    0  0.65725349083E+02  0.13546434528E+03 -0.18762435831E+03  0.25700229682E+03  0.90426049280E+02 0.  0.
          5    1    1    2  502    0 -0.54472518163E+02 -0.58393076699E+02 -0.60257426495E+02  0.10012710167E+03  0.41800000000E+01 0. -1.
         -5    1    1    2    0  502 -0.11252830920E+02 -0.77071268584E+02  0.55417691775E+02  0.95682807267E+02  0.41800000000E+01 0. -1.
        -11    1    3    3    0    0  0.55380734061E+02  0.36344243494E+02 -0.11836702849E+03  0.13564174569E+03  0.00000000000E+00 0. -1.
         11    1    3    3    0    0  0.10344615021E+02  0.99120101789E+02 -0.69257329819E+02  0.12136055114E+03  0.00000000000E+00 0.  1.
</event>
<event>
 7    1  0.5831876E-006  0.1238252E+03  0.7561462E-02  0.1236917E+00
         -2   -1    0    0    0  501 -0.00000000000E+00  0.00000000000E+00  0.13586095847E+02  0.13586095847E+02  0.00000000000E+00 0.  1.
          2   -1    0    0  501    0  0.00000000000E+00 -0.00000000000E+00 -0.13647219552E+04  0.13647219552E+04  0.00000000000E+00 0. -1.
         23    2    1    2    0    0 -0.60081374830E+02  0.34319411691E+02 -0.37647787496E+03  0.39322264943E+03  0.90004822509E+02 0.  0.
          5    1    1    2  502    0  0.59812178788E+01  0.41439279053E+02 -0.47128350761E+03  0.47315811920E+03  0.41800000000E+01 0. -1.
         -5    1    1    2    0  502  0.54100156951E+02 -0.75758690744E+02 -0.50337447683E+03  0.51192728246E+03  0.41800000000E+01 0. -1.
        -11    1    3    3    0    0 -0.43000902769E+02  0.64610789532E+02 -0.28429344944E+03  0.29469712784E+03  0.00000000000E+00 0. -1.
         11    1    3    3    0    0 -0.17080472062E+02 -0.30291377840E+02 -0.92184425520E+02  0.98525521596E+02  0.00000000000E+00 0.  1.
</event>
<event>
 7    1  0.5831876E-006  0.1071368E+03  0.7561462E-02  0.1265966E+00
         -1   -1    0    0    0  501 -0.00000000000E+00  0.00000000000E+00  0.33176571433E+02  0.33176571433E+02  0.00000000000E+00 0.  1.
          1   -1    0    0  501    0  0.00000000000E+00 -0.00000000000E+00 -0.59685578787E+03  0.59685578787E+03  0.00000000000E+00 0. -1.
         23    2    1    2    0    0 -0.59955530739E+02 -0.65913498878E+02 -0.23577022959E+03  0.26794073733E+03  0.90914149403E+02 0.  0.
          5    1    1    2  502    0  0.33944572391E+02  0.30694106739E+02 -0.31192944642E+03  0.31529639092E+03  0.41800000000E+01 0.  1.
         -5    1    1    2    0  502  0.26010958347E+02  0.35219392139E+02 -0.15979540430E+02  0.46795231051E+02  0.41800000000E+01 0.  1.
        -11    1    3    3    0    0 -0.82583217144E+02 -0.48383730829E+02 -0.15415534071E+03  0.18145203838E+03  0.00000000000E+00 0.  1.
         11    1    3    3    0    0  0.22627686406E+02 -0.17529768050E+02 -0.81614888875E+02  0.86488698950E+02  0.00000000000E+00 0. -1.
</event>
<event>
 7    1  0.5831876E-006  0.1433388E+03  0.7561462E-02  0.1208906E+00
          2   -1    0    0  501    0  0.00000000000E+00  0.00000000000E+00  0.10300264389E+04  0.10300264389E+04  0.00000000000E+00 0. -1.
         -2   -1    0    0    0  501 -0.00000000000E+00 -0.00000000000E+00 -0.25134593886E+02  0.25134593886E+02  0.00000000000E+00 0.  1.
         23    2    1    2    0    0  0.98412523255E+02  0.58121215697E+02  0.37080660535E+03  0.39882654269E+03  0.92206139336E+02 0.  0.
          5    1    1    2  502    0 -0.80774061469E+02  0.25721528818E+00  0.17022263830E+03  0.18846149250E+03  0.41800000000E+01 0.  1.
         -5    1    1    2    0  502 -0.17638461786E+02 -0.58378430985E+02  0.46386260134E+03  0.46787299757E+03  0.41800000000E+01 0.  1.
        -11    1    3    3    0    0  0.99917068109E+02  0.76741022327E+02  0.34225472176E+03  0.36470659382E+03  0.00000000000E+00 0.  1.
         11    1    3    3    0    0 -0.15045448538E+01 -0.18619806630E+02  0.28551883591E+02  0.34119948868E+02  0.00000000000E+00 0. -1.
</event>
<event>
 7    1  0.5831876E-006  0.1875751E+03  0.7561462E-02  0.1160667E+00
         -2   -1    0    0    0  501 -0.00000000000E+00  0.00000000000E+00  0.28524562157E+03  0.28524562157E+03  0.00000000000E+00 0.  1.
          2   -1    0    0  501    0  0.00000000000E+00 -0.00000000000E+00 -0.15663154066E+03  0.15663154066E+03  0.00000000000E+00 0. -1.
         23    2    1    2    0    0  0.76008263939E+02 -0.14677711832E+03  0.13880089769E+03  0.23433403719E+03  0.91246770556E+02 0.  0.
          5    1    1    2  502    0 -0.65737837610E+02  0.16098533783E+03  0.17167206045E+02  0.17478537597E+03  0.41800000000E+01 0.  1.
         -5    1    1    2    0  502 -0.10270426330E+02 -0.14208219508E+02 -0.27354022828E+02  0.32757749060E+02  0.41800000000E+01 0.  1.
        -11    1    3    3    0    0  0.70135011718E+02 -0.49764262968E+02  0.93723950702E+02  0.12719898063E+03  0.00000000000E+00 0.  1.
         11    1    3    3    0    0  0.58732522217E+01 -0.97012855353E+02  0.45076946993E+02  0.10713505657E+03  0.00000000000E+00 0. -1.
</event>
<event>
 7    1  0.5831876E-006  0.1287100E+03  0.7561462E-02  0.1229382E+00
          2   -1    0    0  501    0  0.00000000000E+00  0.00000000000E+00  0.15114292437E+04  0.15114292437E+04  0.00000000000E+00 0. -1.
         -2   -1    0    0    0  501 -0.00000000000E+00 -0.00000000000E+00 -0.14478316258E+02  0.14478316258E+02  0.00000000000E+00 0.  1.
         23    2    1    2    0    0 -0.50730486923E+02  0.42396018985E+02  0.31778841585E+03  0.33828700851E+03  0.95276535146E+02 0.  0.
          5    1    1    2  502    0  0.13491779706E+02 -0.84163163201E+02  0.69881536041E+03  0.70400699322E+03  0.41800000000E+01 0.  1.
         -5    1    1    2    0  502  0.37238707217E+02  0.41767144216E+02  0.48034715118E+03  0.48361355822E+03  0.41800000000E+01 0.  1.
        -11    1    3    3    0    0  0.19245241878E+02  0.41767663578E+02  0.12520514587E+03  0.13338382814E+03  0.00000000000E+00 0. -1.
         11    1    3    3    0    0 -0.69975728801E+02  0.62835540615E+00  0.19258326998E+03  0.20490318038E+03  0.00000000000E+00 0.  1.
</event>
<event>
 7    1  0.5831876E-006  0.1066753E+03  0.7561462E-02  0.1266854E+00
         -1   -1    0    0    0  501 -0.00000000000E+00  0.00000000000E+00  0.11127361266E+03  0.11127361266E+03  0.00000000000E+00 0.  1.
          1   -1    0    0  501    0  0.00000000000E+00 -0.00000000000E+00 -0.78359201939E+03  0.78359201939E+03  0.00000000000E+00 0. -1.
         23    2    1    2    0    0 -0.23043169879E+02  0.86923288401E+02  0.74446997859E+02  0.13315853689E+03  0.64048377901E+02 0.  0.
          5    1    1    2  502    0 -0.11760222154E+01 -0.96000514887E+02 -0.71049001458E+03  0.71695956309E+03  0.41800000000E+01 0. -1.
         -5    1    1    2    0  502  0.24219192094E+02  0.90772264862E+01 -0.36275390005E+02  0.44747532070E+02  0.41800000000E+01 0.  1.
        -11    1    3    3    0    0 -0.16288298277E+02  0.78900306306E+02  0.27613351935E+02  0.85164923537E+02  0.00000000000E+00 0.  1.
         11    1    3    3    0    0 -0.67548716021E+01  0.80229820944E+01  0.46833645924E+02  0.47993613352E+02  0.00000000000E+00 0. -1.
</event>
<event>
 7    1  0.5831876E-006  0.9814126E+02  0.7561462E-02  0.1284254E+00
          1   -1    0    0  501    0  0.00000000000E+00  0.00000000000E+00  0.17200346703E+03  0.17200346703E+03  0.00000000000E+00 0.  1.
         -1   -1    0    0    0  501 -0.00000000000E+00 -0.00000000000E+00 -0.14664154026E+03  0.14664154026E+03  0.00000000000E+00 0. -1.
         23    2    1    2    0    0  0.64886673108E+02 -0.31076865939E+02 -0.76964138609E+02  0.14174201346E+03  0.94822295921E+02 0.  0.
          5    1    1    2  502    0 -0.27904454656E+02 -0.59948209820E+01 -0.25627861139E+02  0.38585698578E+02  0.41800000000E+01 0.  1.
         -5    1    1    2    0  502 -0.36982218452E+02  0.37071686921E+02  0.12795392652E+03  0.13831729525E+03  0.41800000000E+01 0.  1.
        -11    1    3    3    0    0  0.78226207204E+02 -0.49193371843E+02 -0.75263180383E+02  0.11918000524E+03  0.00000000000E+00 0. -1.
         11    1    3    3    0    0 -0.13339534096E+02  0.18116505905E+02 -0.17009582263E+01  0.22562008221E+02  0.00000000000E+00 0.  1.
</event>
<event>
 7    1  0.5831876E-006  0.7601565E+02  0.7561462E-02  0.1340754E+00
          4   -1    0    0  501    0  0.00000000000E+00  0.00000000000E+00  0.15041555429E+02  0.15041555429E+02  0.00000000000E+00 0. -1.
         -4   -1    0    0    0  501 -0.00000000000E+00 -0.00000000000E+00 -0.91354124594E+03  0.91354124594E+03  0.00000000000E+00 0.  1.
         23    2    1    2    0    0 -0.58940510573E+01 -0.44286140289E+02 -0.41068720733E+03  0.42301026570E+03  0.90981869432E+02 0.  0.
          5    1    1    2  502    0  0.94156690988E+01  0.33111920424E+01 -0.44816222188E+03  0.44829283770E+03  0.41800000000E+01 0. -1.
         -5    1    1    2    0  502 -0.35216180415E+01  0.40974948247E+02 -0.39650261307E+02  0.57279697967E+02  0.41800000000E+01 0. -1.
        -11    1    3    3    0    0 -0.44474180136E+02 -0.42084672655E+02 -0.28561616273E+03  0.29210557130E+03  0.00000000000E+00 0.  1.
         11    1    3    3    0    0  0.38580129078E+02 -0.22014676340E+01 -0.12507104459E+03  0.13090469440E+03  0.00000000000E+00 0. -1.
</event>
<event>
 7    1  0.5831876E-006  0.9822028E+02  0.7561462E-02  0.1284084E+00
         -1   -1    0    0    0  501 -0.00000000000E+00  0.00000000000E+00  0.69060481275E+02  0.69060481275E+02  0.00000000000E+00 0.  1.
          1   -1    0    0  501    0  0.00000000000E+00 -0.00000000000E+00 -0.24430278774E+03  0.24430278774E+03  0.00000000000E+00 0. -1.
         23    2    1    2    0    0 -0.12899250854E+02  0.86279364929E+01 -0.56956630740E+02  0.11033410697E+03  0.93213332822E+02 0.  0.
          5    1    1    2  502    0 -0.38205577397E+01 -0.53543016616E+02 -0.14018652412E+03  0.15017052053E+03  0.41800000000E+01 0. -1.
         -5    1    1    2    0  502  0.16719808593E+02  0.44915080123E+02  0.21900848400E+02  0.52858641512E+02  0.41800000000E+01 0.  1.
        -11    1    3    3    0    0 -0.98654857993E+01  0.51032765719E+02 -0.30737062885E+02  0.60385743531E+02  0.00000000000E+00 0.  1.
         11    1    3    3    0    0 -0.30337650544E+01 -0.42404829226E+02 -0.26219567855E+02  0.49948363443E+02  0.00000000000E+00 0. -1.
</event>
<event>
 7    1  0.5831876E-006  0.1102295E+03  0.7561462E-02  0.1260145E+00
         -2   -1    0    0    0  501 -0.00000000000E+00  0.00000000000E+00  0.10128530599E+02  0.10128530599E+02  0.00000000000E+00 0.  1.
          2   -1    0    0  501    0  0.00000000000E+00 -0.00000000000E+00 -0.16621588750E+04  0.16621588750E+04  0.00000000000E+00 0. -1.
         23    2    1    2    0    0 -0.56447760092E+02  0.20448179811E+02 -0.36625031642E+03  0.37904223000E+03  0.77001559538E+02 0.  0.
          5    1    1    2  502    0  0.86186158189E+02  0.53067427320E+00 -0.11268034207E+04  0.11301025426E+04  0.41800000000E+01 0.  1.
         -5    1    1    2    0  502 -0.29738398097E+02 -0.20978854084E+02 -0.15897660728E+03  0.16314263301E+03  0.41800000000E+01 0.  1.
        -11    1    3    3    0    0  0.16888892488E+01  0.37040685356E+02 -0.13085447811E+03  0.13600646735E+03  0.00000000000E+00 0.  1.
         11    1    3    3    0    0 -0.58136649340E+02 -0.16592505545E+02 -0.23539583831E+03  0.24303576265E+03  0.00000000000E+00 0. -1.
</event>
<event>
 7    1  0.5831876E-006  0.8206228E+02  0.7561462E-02  0.1323299E+00
          2   -1    0    0  501    0  0.00000000000E+00  0.00000000000E+00  0.25689324593E+03  0.25689324593E+03  0.00000000000E+00 0. -1.
         -2   -1    0    0    0  501 -0.00000000000E+00 -0.00000000000E+00 -0.57423180347E+02  0.57423180347E+02  0.00000000000E+00 0.  1.
         23    2    1    2    0    0 -0.24187594024E+02  0.29416169721E+02  0.35132497167E+02  0.10431425522E+03  0.90536295143E+02 0.  0.
          5    1    1    2  502    0  0.62520757917E+02 -0.50463105325E+02  0.13506854826E+03  0.15721436098E+03  0.41800000000E+01 0.  1.
         -5    1    1    2    0  502 -0.38333163893E+02  0.21046935604E+02  0.29269020159E+02  0.52787810084E+02  0.41800000000E+01 0.  1.
        -11    1    3    3    0    0 -0.25417575760E+01  0.11092658186E+02 -0.30641572515E+02  0.32686596081E+02  0.00000000000E+00 0.  1.
         11    1    3    3    0    0 -0.21645836448E+02  0.18323511534E+02  0.65774069682E+02  0.71627659134E+02  0.00000000000E+00 0. -1.
</event>
<event>
 7    1  0.6249739E-006  0.1496810E+03  0.7561462E-02  0.1200866E+00
          2   -1    0    0  501    0  0.00000000000E+00  0.00000000000E+00  0.42713810721E+02  0.42713810721E+02  0.00000000000E+00 0.  1.
         -2   -1    0    0    0  501 -0.00000000000E+00 -0.00000000000E+00 -0.57695013031E+03  0.57695013031E+03  0.00000000000E+00 0. -1.
         23    2    1    2    0    0 -0.10275553822E+03  0.10449328232E+02 -0.33003536728E+03  0.35887002361E+03  0.95898180871E+02 0.  0.
          5    1    1    2  502    0 -0.71360407247E+01 -0.43011969037E+02 -0.83514062322E+02  0.94302829031E+02  0.41800000000E+01 0. -1.
         -5    1    1    2    0  502  0.10989157894E+03  0.32562640805E+02 -0.12068688999E+03  0.16649108839E+03  0.41800000000E+01 0. -1.
        -11    1    3    3    0    0 -0.16219438889E+02 -0.38268769323E+02 -0.92301437698E+02  0.10122808061E+03  0.00000000000E+00 0. -1.
         11    1    3    3    0    0 -0.86536099331E+02  0.48718097555E+02 -0.23773392958E+03  0.25764194299E+03  0.00000000000E+00 0.  1.
</event>
<event>
 7    1  0.5831876E-006  0.1352689E+03  0.7561462E-02  0.1219841E+00
         -1   -1    0    0    0  501 -0.00000000000E+00  0.00000000000E+00  0.26216963577E+03  0.26216963577E+03  0.00000000000E+00 0.  1.
          1   -1    0    0  501    0  0.00000000000E+00 -0.00000000000E+00 -0.94594456313E+02  0.94594456313E+02  0.00000000000E+00 0. -1.
         23    2    1    2    0    0  0.10891397692E+03  0.28911635727E+02  0.86655879062E+02  0.16997084859E+03  0.93181065376E+02 0.  0.
          5    1    1    2  502    0 -0.21395924535E+02  0.32254264543E+02  0.69065506864E+02  0.79282027007E+02  0.41800000000E+01 0. -1.
         -5    1    1    2    0  502 -0.87518052386E+02 -0.61165900271E+02  0.11853793529E+02  0.10751121649E+03  0.41800000000E+01 0. -1.
        -11    1    3    3    0    0  0.68380423489E+01 -0.12776100349E+02 -0.14383249103E+02  0.20417282338E+02  0.00000000000E+00 0. -1.
         11    1    3    3    0    0  0.10207593457E+03  0.41687736076E+02  0.10103912816E+03  0.14955356625E+03  0.00000000000E+00 0.  1.
</event>
<event>
 7    1  0.5831876E-006  0.3712481E+03  0.7561462E-02  0.1054217E+00
         -2   -1    0    0    0  501 -0.00000000000E+00  0.00000000000E+00  0.52718254572E+02  0.52718254572E+02  0.00000000000E+00 0.  1.
          2   -1    0    0  501    0  0.00000000000E+00 -0.00000000000E+00 -0.28468921951E+04  0.28468921951E+04  0.00000000000E+00 0. -1.
         23    2    1    2    0    0  0.28286750571E+03 -0.21813882745E+03 -0.10004211258E+04  0.10663632054E+04  0.93217396281E+02 0.  0.
          5    1    1    2  502    0 -0.18818590054E+03  0.66461280295E+02 -0.94107420677E+03  0.96201308202E+03  0.41800000000E+01 0.  1.
         -5    1    1    2    0  502 -0.94681605167E+02  0.15167754715E+03 -0.85267860796E+03  0.87123416229E+03  0.41800000000E+01 0.  1.
        -11    1    3    3    0    0  0.15321760881E+02 -0.39374972137E+02 -0.18472377794E+03  0.18949411316E+03  0.00000000000E+00 0. -1.
         11    1    3    3    0    0  0.26754574483E+03 -0.17876385531E+03 -0.81569734786E+03  0.87686909219E+03  0.00000000000E+00 0.  1.
</event>
<event>
 7    1  0.5831876E-006  0.8912435E+02  0.7561462E-02  0.1304986E+00
          1   -1    0    0  501    0  0.00000000000E+00  0.00000000000E+00  0.18090224465E+03  0.18090224465E+03  0.00000000000E+00 0. -1.
         -1   -1    0    0    0  501 -0.00000000000E+00 -0.00000000000E+00 -0.77213062734E+02  0.77213062734E+02  0.00000000000E+00 0.  1.
         23    2    1    2    0    0  0.29719208844E+02 -0.30836330729E+02  0.29950895579E+02  0.10672571303E+03  0.93054881705E+02 0.  0.
          5    1    1    2  502    0 -0.42504770662E+02  0.42911142111E+02 -0.13723669569E+02  0.62079248971E+02  0.41800000000E+01 0.  1.
         -5    1    1    2    0  502  0.12785561818E+02 -0.12074811382E+02  0.87461955904E+02  0.89310345378E+02  0.41800000000E+01 0.  1.
        -11    1    3    3    0    0 -0.21326790262E+02 -0.42245793894E+02  0.26660304674E+02  0.54316764722E+02  0.00000000000E+00 0. -1.
         11    1    3    3    0    0  0.51045999106E+02  0.11409463165E+02  0.32905909050E+01  0.52408948309E+02  0.00000000000E+00 0.  1.
</event>
<event>
 7    1  0.5831876E-006  0.1528807E+03  0.7561462E-02  0.1196977E+00
         -1   -1    0    0    0  501 -0.00000000000E+00  0.00000000000E+00  0.32952957311E+02  0.32952957311E+02  0.00000000000E+00 0.  1.
          1   -1    0    0  501    0  0.00000000000E+00 -0.00000000000E+00 -0.83589975633E+03  0.83589975633E+03  0.00000000000E+00 0. -1.
         23    2    1    2    0    0 -0.11208070972E+03 -0.54119015945E+02 -0.35299161327E+03  0.38553260051E+03  0.92419444084E+02 0.  0.
          5    1    1    2  502    0  0.13018048332E+03  0.17464388096E+02 -0.38125806517E+03  0.40327056395E+03  0.41800000000E+01 0.  1.
         -5    1    1    2    0  502 -0.18099773603E+02  0.36654627850E+02 -0.68697120585E+02  0.80049549180E+02  0.41800000000E+01 0.  1.
        -11    1    3    3    0    0 -0.17579503756E+02 -0.31517645932E+02 -0.26186490936E+02  0.44588488032E+02  0.00000000000E+00 0.  1.
         11    1    3    3    0    0 -0.94501205964E+02 -0.22601370013E+02 -0.32680512233E+03  0.34094411248E+03  0.00000000000E+00 0. -1.
</event>
<event>
 7    1  0.5831876E-006  0.1776433E+03  0.7561462E-02  0.1170104E+00
          4   -1    0    0  501    0  0.00000000000E+00  0.00000000000E+00  0.96120087524E+02  0.96120087524E+02  0.00000000000E+00 0. -1.
         -4   -1    0    0    0  501 -0.00000000000E+00 -0.00000000000E+00 -0.33842343677E+03  0.33842343677E+03  0.00000000000E+00 0.  1.
         23    2    1    2    0    0  0.13558219090E+02  0.14326492762E+03 -0.12476813739E+03  0.21056094709E+03  0.89778391269E+02 0.  0.
          5    1    1    2  502    0  0.48053281423E+02 -0.28897800680E+02 -0.58785058059E+02  0.81347133881E+02  0.41800000000E+01 0.  1.
         -5    1    1    2    0  502 -0.61611500512E+02 -0.11436712694E+03 -0.58750153796E+02  0.14263544332E+03  0.41800000000E+01 0.  1.
        -11    1    3    3    0    0  0.49679101705E+02  0.57293479066E+02 -0.47724959241E+02  0.89600377367E+02  0.00000000000E+00 0. -1.
         11    1    3    3    0    0 -0.36120882615E+02  0.85971448558E+02 -0.77043178145E+02  0.12096056972E+03  0.00000000000E+00 0.  1.
</event>
<event>
 7    1  0.5831876E-006  0.1115592E+03  0.7561462E-02  0.1257709E+00
         -2   -1    0    0    0  501 -0.00000000000E+00  0.00000000000E+00  0.29798190785E+02  0.29798190785E+02  0.00000000000E+00 0.  1.
          2   -1    0    0  501    0  0.00000000000E+00 -0.00000000000E+00 -0.45755526493E+03  0.45755526493E+03  0.00000000000E+00 0. -1.
         23    2    1    2    0    0 -0.32007474132E+01 -0.41496867936E+02 -0.17157779012E+03  0.19924239696E+03  0.92338290278E+02 0.  0.
          5    1    1    2  502    0 -0.30448091732E+01  0.86270946721E+02 -0.16941809152E+03  0.19018914072E+03  0.41800000000E+01 0.  1.
         -5    1    1    2    0  502  0.62455565865E+01 -0.44774078786E+02 -0.86761192505E+02  0.97921918043E+02  0.41800000000E+01 0.  1.
        -11    1    3    3    0    0  0.35772430539E+01 -0.65883829878E+02 -0.77322253032E+02  0.10164746195E+03  0.00000000000E+00 0.  1.
         11    1    3    3    0    0 -0.67779904671E+01  0.24386961942E+02 -0.94255537089E+02  0.97594935010E+02  0.00000000000E+00 0. -1.
</event>
<event>
 7    1  0.5831876E-006  0.1093908E+03  0.7561462E-02  0.1261702E+00
          2   -1    0    0  501    0  0.00000000000E+00  0.00000000000E+00  0.70574222821E+03  0.70574222821E+03  0.00000000000E+00 0. -1.
         -2   -1    0    0    0  501 -0.00000000000E+00 -0.00000000000E+00 -0.42241548510E+02  0.42241548510E+02  0.00000000000E+00 0.  1.
         23    2    1    2    0    0  0.95327380450E+01  0.42912245520E+01  0.84633844061E+02  0.14121423725E+03  0.11255792081E+03 0.  0.
          5    1    1    2  502    0 -0.42375587224E+02 -0.42465921005E+02  0.53916126979E+03  0.54250473923E+03  0.41800000000E+01 0. -1.
         -5    1    1    2    0  502  0.32842849179E+02  0.38174696453E+02  0.39705565847E+02  0.64264800246E+02  0.41800000000E+01 0.  1.
        -11    1    3    3    0    0  0.56320665220E+02  0.18389427028E+02  0.66570018029E+02  0.89116528532E+02  0.00000000000E+00 0.  1.
         11    1    3    3    0    0 -0.46787927175E+02 -0.14098202476E+02  0.18063826032E+02  0.52097708715E+02  0.00000000000E+00 0. -1.
</event>
<event>
 7    1  0.5831876E-006  0.9810446E+02  0.7561462E-02  0.1284333E+00
         -1   -1    0    0    0  501 -0.00000000000E+00  0.00000000000E+00  0.13796644098E+02  0.13796644098E+02  0.00000000000E+00 0.  1.
          1   -1    0    0  501    0  0.00000000000E+00 -0.00000000000E+00 -0.11313862804E+04  0.11313862804E+04  0.00000000000E+00 0. -1.
         23    2    1    2    0    0  0.30382673008E+01 -0.27860308112E+02 -0.23302067620E+03  0.25137240038E+03  0.90022332239E+02 0.  0.
          5    1    1    2  502    0 -0.59464032171E+02  0.75755010923E+01 -0.59765156792E+03  0.60066482199E+03  0.41800000000E+01 0. -1.
         -5    1    1    2    0  502  0.56425764870E+02  0.20284807020E+02 -0.28691739214E+03  0.29314570208E+03  0.41800000000E+01 0. -1.
        -11    1    3    3    0    0 -0.33286647560E+02 -0.66380981688E+01 -0.34329034326E+02  0.48275748061E+02  0.00000000000E+00 0.  1.
         11    1    3    3    0    0  0.36324914860E+02 -0.21222209943E+02 -0.19869164187E+03  0.20309665232E+03  0.00000000000E+00 0. -1.
</event>
<event>
 7    1  0.5831876E-006  0.1236788E+03  0.7561462E-02  0.1237149E+00
          1   -1    0    0  501    0  0.00000000000E+00  0.00000000000E+00  0.93726180902E+02  0.93726180902E+02  0.00000000000E+00 0. -1.
         -1   -1    0    0    0  501 -0.00000000000E+00 -0.00000000000E+00 -0.43120919234E+03  0.43120919234E+03  0.00000000000E+00 0.  1.
         23    2    1    2    0    0  0.46252627476E+02 -0.91241782874E+02 -0.33625819430E+03  0.36333970838E+03  0.92096699002E+02 0.  0.
          5    1    1    2  502    0 -0.58348332297E+02  0.96043573842E+01 -0.38768382259E+02  0.70832417900E+02  0.41800000000E+01 0.  1.
         -5    1    1    2    0  502  0.12095704820E+02  0.81637425490E+02  0.37543565120E+02  0.90763246954E+02  0.41800000000E+01 0.  1.
        -11    1    3    3    0    0  0.47459546018E+02 -0.72444151892E+02 -0.33318180967E+03  0.34425380455E+03  0.00000000000E+00 0.  1.
         11    1    3    3    0    0 -0.12069185418E+01 -0.18797630982E+02 -0.30763846280E+01  0.19085903837E+02  0.00000000000E+00 0. -1.
</event>
<event>
 7    1  0.5831876E-006  0.1092376E+03  0.7561462E-02  0.1261988E+00
         -1   -1    0    0    0  501 -0.00000000000E+00  0.00000000000E+00  0.32319543498E+02  0.32319543498E+02  0.00000000000E+00 0.  1.
          1   -1    0    0  501    0  0.00000000000E+00 -0.00000000000E+00 -0.59359453577E+03  0.59359453577E+03  0.00000000000E+00 0. -1.
         23    2    1    2    0    0  0.62820939559E+02  0.55260635903E+02 -0.22100778333E+03  0.25385138932E+03  0.92713964633E+02 0.  0.
          5    1    1    2  502    0 -0.17144583201E+02  0.54150989623E+01 -0.26297404476E+03  0.26362109295E+03  0.41800000000E+01 0.  1.
         -5    1    1    2    0  502 -0.45676356358E+02 -0.60675734865E+02 -0.77293164183E+02  0.10844159700E+03  0.41800000000E+01 0.  1.
        -11    1    3    3    0    0 -0.18034145005E+02  0.36855740558E+02 -0.59150044331E+02  0.71988219470E+02  0.00000000000E+00 0.  1.
         11    1    3    3    0    0  0.80855084564E+02  0.18404895344E+02 -0.16185773900E+03  0.18186316985E+03  0.00000000000E+00 0. -1.
</event>
<event>
 7    1  0.5831876E-006  0.2062219E+03  0.7561462E-02  0.1144593E+00
          2   -1    0    0  501    0  0.00000000000E+00  0.00000000000E+00  0.45723216958E+03  0.45723216958E+03  0.00000000000E+00 0. -1.
         -2   -1    0    0    0  501 -0.00000000000E+00 -0.00000000000E+00 -0.15228171319E+03  0.15228171319E+03  0.00000000000E+00 0.  1.
         23    2    1    2    0    0 -0.11206353752E+02  0.18932033516E+03 -0.25240777492E+02  0.21200841819E+03  0.91338386601E+02 0.  0.
          5    1    1    2  502    0 -0.46913852073E+02 -0.12856755878E+03  0.19578777181E+03  0.23891599084E+03  0.41800000000E+01 0. -1.
         -5    1    1    2    0  502  0.58120205826E+02 -0.60752776381E+02  0.13440346207E+03  0.15858947374E+03  0.41800000000E+01 0.  1.
        -11    1    3    3    0    0 -0.19354284454E+02  0.12147193240E+03 -0.58271038319E+02  0.13610853241E+03  0.00000000000E+00 0.  1.
         11    1    3    3    0    0  0.81479307019E+01  0.67848402753E+02  0.33030260827E+02  0.75899885778E+02  0.00000000000E+00 0. -1.
</event>
<event>
 7    1  0.5831876E-006  0.9325121E+02  0.7561462E-02  0.1295164E+00
         -2   -1    0    0    0  501 -0.00000000000E+00  0.00000000000E+00  0.83806555874E+02  0.83806555874E+02  0.00000000000E+00 0.  1.
          2   -1    0    0  501    0  0.00000000000E+00 -0.00000000000E+00 -0.20291550200E+03  0.20291550200E+03  0.00000000000E+00 0. -1.
         23    2    1    2    0    0 -0.52517428461E+02  0.23975470904E+02 -0.68740157564E+01  0.10902373239E+03  0.92228079428E+02 0.  0.
          5    1    1    2  502    0  0.59120193023E+02 -0.52974509503E+02 -0.12243751468E+03  0.14597915358E+03  0.41800000000E+01 0.  1.
         -5    1    1    2    0  502 -0.66027645615E+01  0.28999038599E+02  0.10202584306E+02  0.31719171901E+02  0.41800000000E+01 0.  1.
        -11    1    3    3    0    0 -0.43304388818E+02 -0.77045889392E+01  0.34646456336E+02  0.55991139641E+02  0.00000000000E+00 0.  1.
         11    1    3    3    0    0 -0.92130396434E+01  0.31680059843E+02 -0.41520472093E+02  0.53032592751E+02  0.00000000000E+00 0. -1.
</event>
<event>
 7    1  0.5831876E-006  0.1053823E+03  0.7561462E-02  0.1269368E+00
          1   -1    0    0  501    0  0.00000000000E+00  0.00000000000E+00  0.58859758751E+02  0.58859758751E+02  0.00000000000E+00 0. -1.
         -1   -1    0    0    0  501 -0.00000000000E+00 -0.00000000000E+00 -0.38179096867E+03  0.38179096867E+03  0.00000000000E+00 0.  1.
         23    2    1    2    0    0  0.18715305127E+02 -0.25742040461E+02 -0.29354463834E+03  0.30890067621E+03  0.90764848774E+02 0.  0.
          5    1    1    2  502    0 -0.65491972654E+02  0.30842302121E+02  0.59521908146E+01  0.72755391949E+02  0.41800000000E+01 0. -1.
         -5    1    1    2    0  502  0.46776667526E+02 -0.51002616604E+01 -0.35338762398E+02  0.58994659264E+02  0.41800000000E+01 0.  1.
        -11    1    3    3    0    0  0.40243117115E+02 -0.46232177349E+02 -0.23954630915E+03  0.24726373960E+03  0.00000000000E+00 0.  1.
         11    1    3    3    0    0 -0.21527811987E+02  0.20490136888E+02 -0.53998329192E+02  0.61636936606E+02  0.00000000000E+00 0. -1.
</event>
<event>
 7    1  0.5831876E-006  0.1857048E+03  0.7561462E-02  0.1162393E+00
          2   -1    0    0  501    0  0.00000000000E+00  0.00000000000E+00  0.12195291450E+04  0.12195291450E+04  0.00000000000E+00 0. -1.
         -2   -1    0    0    0  501 -0.00000000000E+00 -0.00000000000E+00 -0.39397601896E+02  0.39397601896E+02  0.00000000000E+00 0.  1.
         23    2    1    2    0    0  0.15989274983E+03  0.94083876240E+00  0.26756552421E+03  0.32405209071E+03  0.88610784468E+02 0.  0.
          5    1    1    2  502    0 -0.10281139860E+03 -0.58722079707E+02  0.45705522245E+03  0.47216037010E+03  0.41800000000E+01 0. -1.
         -5    1    1    2    0  502 -0.57081351229E+02  0.57781240944E+02  0.45551079649E+03  0.46271428612E+03  0.41800000000E+01 0. -1.
        -11    1    3    3    0    0  0.52192022851E+02 -0.29151526822E+02  0.44498433998E+02  0.74524689826E+02  0.00000000000E+00 0.  1.
         11    1    3    3    0    0  0.10770072698E+03  0.30092365584E+02  0.22306709021E+03  0.24952740089E+03  0.00000000000E+00 0. -1.
</event>
<event>
 7    1  0.5831876E-006  0.1057220E+03  0.7561462E-02  0.1268704E+00
          1   -1    0    0  501    0  0.00000000000E+00  0.00000000000E+00  0.42007706381E+03  0.42007706381E+03  0.00000000000E+00 0. -1.
         -1   -1    0    0    0  501 -0.00000000000E+00 -0.00000000000E+00 -0.31265208205E+02  0.31265208205E+02  0.00000000000E+00 0.  1.
         23    2    1    2    0    0 -0.34789128356E+01  0.18718541264E+02  0.10644099741E+03  0.14191767944E+03  0.91915478491E+02 0.  0.
          5    1    1    2  502    0 -0.52072880504E+02 -0.32552911681E+02  0.92832099126E+02  0.11138468463E+03  0.41800000000E+01 0. -1.
         -5    1    1    2    0  502  0.55551793339E+02  0.13834370416E+02  0.18953875907E+03  0.19803990795E+03  0.41800000000E+01 0. -1.
        -11    1    3    3    0    0  0.40601307548E+02 -0.73753379196E+01  0.59695188211E+02  0.72569809698E+02  0.00000000000E+00 0.  1.
         11    1    3    3    0    0 -0.44080220384E+02  0.26093879184E+02  0.46745809196E+02  0.69347869739E+02  0.00000000000E+00 0. -1.
</event>
<event>
 7    1  0.5831876E-006  0.8968525E+02  0.7561462E-02  0.1303616E+00
          1   -1    0    0  501    0  0.00000000000E+00  0.00000000000E+00  0.37748135355E+02  0.37748135355E+02  0.00000000000E+00 0. -1.
         -1   -1    0    0    0  501 -0.00000000000E+00 -0.00000000000E+00 -0.34075648323E+03  0.34075648323E+03  0.00000000000E+00 0.  1.
         23    2    1    2    0    0 -0.25214748050E+02 -0.92123866577E+01 -0.16490861656E+03  0.19024949885E+03  0.90991034785E+02 0.  0.
          5    1    1    2  502    0 -0.31640006947E+02 -0.13732291661E+02 -0.11890144547E+03  0.12387369377E+03  0.41800000000E+01 0. -1.
         -5    1    1    2    0  502  0.56854754997E+02  0.22944678318E+02 -0.19198285841E+02  0.64381425956E+02  0.41800000000E+01 0. -1.
        -11    1    3    3    0    0 -0.33210855939E+02  0.29026777462E+02 -0.13198444695E+03  0.13915965291E+03  0.00000000000E+00 0. -1.
         11    1    3    3    0    0  0.79961078889E+01 -0.38239164120E+02 -0.32924169616E+02  0.51089845947E+02  0.00000000000E+00 0.  1.
</event>
<event>
 7    1  0.5831876E-006  0.1374709E+03  0.7561462E-02  0.1216773E+00
         -1   -1    0    0    0  501 -0.00000000000E+00  0.00000000000E+00  0.39860398238E+02  0.39860398238E+02  0.00000000000E+00 0.  1.
          1   -1    0    0  501    0  0.00000000000E+00 -0.00000000000E+00 -0.88578511977E+03  0.88578511977E+03  0.00000000000E+00 0. -1.
         23    2    1    2    0    0 -0.48749202930E+02 -0.95236877492E+02 -0.13077640909E+03  0.19179820733E+03  0.90760870098E+02 0.  0.
          5    1    1    2  502    0 -0.40379923321E+02  0.12388317287E+02 -0.16325039862E+03  0.16867772130E+03  0.41800000000E+01 0.  1.
         -5    1    1    2    0  502  0.89129126250E+02  0.82848560205E+02 -0.55189791382E+03  0.56516958938E+03  0.41800000000E+01 0.  1.
        -11    1    3    3    0    0 -0.22611040441E+02 -0.17109880166E+02 -0.99855196217E+02  0.10380302192E+03  0.00000000000E+00 0. -1.
         11    1    3    3    0    0 -0.26138162489E+02 -0.78126997326E+02 -0.30921212872E+02  0.87995185407E+02  0.00000000000E+00 0.  1.
</event>
<event>
 7    1  0.5831876E-006  0.1158644E+03  0.7561462E-02  0.1250080E+00
          1   -1    0    0  501    0  0.00000000000E+00  0.00000000000E+00  0.19345332187E+04  0.19345332187E+04  0.00000000000E+00 0. -1.
         -1   -1    0    0    0  501 -0.00000000000E+00 -0.00000000000E+00 -0.12138326182E+02  0.12138326182E+02  0.00000000000E+00 0.  1.
         23    2    1    2    0    0 -0.59401425974E+02 -0.44510428427E+02  0.37631795724E+03  0.39376777413E+03  0.89040144628E+02 0.  0.
          5    1    1    2  502    0 -0.14379990378E+02  0.42958432808E+02  0.10838259513E+04  0.10847803354E+04  0.41800000000E+01 0. -1.
         -5    1    1    2    0  502  0.73781416352E+02  0.15519956193E+01  0.46225098400E+03  0.46812343532E+03  0.41800000000E+01 0. -1.
        -11    1    3    3    0    0 -0.61864964877E+02  0.56276419283E+01  0.25535402232E+03  0.26280148582E+03  0.00000000000E+00 0. -1.
         11    1    3    3    0    0  0.24635389034E+01 -0.50138070355E+02  0.12096393492E+03  0.13096628831E+03  0.00000000000E+00 0.  1.
</event>
<event>
 7    1  0.5831876E-006  0.1001909E+03  0.7561462E-02  0.1279895E+00
         -2   -1    0    0    0  501 -0.00000000000E+00  0.00000000000E+00  0.26515910197E+02  0.26515910197E+02  0.00000000000E+00 0.  1.
          2   -1    0    0  501    0  0.00000000000E+00 -0.00000000000E+00 -0.18401105704E+04  0.18401105704E+04  0.00000000000E+00 0. -1.
         23    2    1    2    0    0  0.82335256352E+02  0.10159251361E+02 -0.13669888322E+03  0.18302592724E+03  0.89048304538E+02 0.  0.
          5    1    1    2  502    0 -0.52385651711E+02 -0.19231665416E+02 -0.15926570364E+04  0.15936398656E+04  0.41800000000E+01 0. -1.
         -5    1    1    2    0  502 -0.29949604641E+02  0.90724140551E+01 -0.84238740620E+02  0.89960687726E+02  0.41800000000E+01 0. -1.
        -11    1    3    3    0    0  0.36000270730E+02  0.42982389462E+02 -0.33710146403E+02  0.65420786200E+02  0.00000000000E+00 0.  1.
         11    1    3    3    0    0  0.46334985622E+02 -0.32823138100E+02 -0.10298873682E+03  0.11760514104E+03  0.00000000000E+00 0. -1.
</event>
<event>
 7    1  0.5831876E-006  0.2791177E+03  0.7561462E-02  0.1096172E+00
         -2   -1    0    0    0  501 -0.00000000000E+00  0.00000000000E+00  0.66976188524E+03  0.66976188524E+03  0.00000000000E+00 0.  1.
          2   -1    0    0  501    0  0.00000000000E+00 -0.00000000000E+00 -0.24094262743E+03  0.24094262743E+03  0.00000000000E+00 0. -1.
         23    2    1    2    0    0  0.17861668525E+03  0.20162832664E+03  0.52635741007E+03  0.59810518815E+03  0.90109880743E+02 0.  0.
          5    1    1    2  502    0 -0.12960072426E+03 -0.19999042010E+03 -0.48724671103E+02  0.24327778738E+03  0.41800000000E+01 0. -1.
         -5    1    1    2    0  502 -0.49015960989E+02 -0.16379065379E+01 -0.48813481147E+02  0.69321537138E+02  0.41800000000E+01 0. -1.
        -11    1    3    3    0    0  0.12134785222E+03  0.15476820560E+03  0.45327606082E+03  0.49410291035E+03  0.00000000000E+00 0.  1.
         11    1    3    3    0    0  0.57268833025E+02  0.46860121040E+02  0.73081349247E+02  0.10400227780E+03  0.00000000000E+00 0. -1.
</event>
<event>
 7    1  0.5831876E-006  0.1523014E+03  0.7561462E-02  0.1197673E+00
         -2   -1    0    0    0  501 -0.00000000000E+00  0.00000000000E+00  0.17417874532E+02  0.17417874532E+02  0.00000000000E+00 0.  1.
          2   -1    0    0  501    0  0.00000000000E+00 -0.00000000000E+00 -0.14355381082E+04  0.14355381082E+04  0.00000000000E+00 0. -1.
         23    2    1    2    0    0 -0.51832392178E+01  0.11317403774E+03 -0.56881689140E+03  0.58704729673E+03  0.90755957709E+02 0.  0.
          5    1    1    2  502    0 -0.44831495444E+02 -0.98564543269E+02 -0.43376535877E+03  0.44709584100E+03  0.41800000000E+01 0.  1.
         -5    1    1    2    0  502  0.50014734662E+02 -0.14609494472E+02 -0.41553798350E+03  0.41881284501E+03  0.41800000000E+01 0.  1.
        -11    1    3    3    0    0  0.36153833747E+02  0.89045024468E+02 -0.34273046647E+03  0.35594984018E+03  0.00000000000E+00 0.  1.
         11    1    3    3    0    0 -0.41337072965E+02  0.24129013273E+02 -0.22608642494E+03  0.23109745655E+03  0.00000000000E+00 0. -1.
</event>
<event>
 6    1  0.1189973E-005  0.3048277E+03  0.7561462E-02  0.1082852E+00
          2   -1    0    0  501    0  0.00000000000E+00  0.00000000000E+00  0.12252115263E+04  0.12252115263E+04  0.00000000000E+00 0.  1.
         -2   -1    0    0    0  501 -0.00000000000E+00 -0.00000000000E+00 -0.10936169429E+03  0.10936169429E+03  0.00000000000E+00 0. -1.
          5    1    1    2  502    0  0.22321476527E+03 -0.38511845130E+02  0.57107212131E+03  0.61436864649E+03  0.41800000000E+01 0.  1.
         -5    1    1    2    0  502  0.53741745219E+02  0.49761882327E+02  0.27810743041E+03  0.28762064488E+03  0.41800000000E+01 0.  1.
        -11    1    1    2    0    0 -0.10802081995E+03 -0.72445524665E+02  0.20468721160E+03  0.24251537308E+03  0.00000000000E+00 0.  1.
         11    1    1    2    0    0 -0.16893569054E+03  0.61195487467E+02  0.61983068671E+02  0.19006855612E+03  0.00000000000E+00 0. -1.
</event>
<event>
 7    1  0.5831876E-006  0.1910742E+03  0.7561462E-02  0.1157496E+00
         -2   -1    0    0    0  501 -0.00000000000E+00  0.00000000000E+00  0.13319644091E+03  0.13319644091E+03  0.00000000000E+00 0.  1.
          2   -1    0    0  501    0  0.00000000000E+00 -0.00000000000E+00 -0.32435976489E+03  0.32435976489E+03  0.00000000000E+00 0. -1.
         23    2    1    2    0    0  0.10886406809E+03 -0.11814220075E+03 -0.93081051212E+01  0.18455831148E+03  0.90366833487E+02 0.  0.
          5    1    1    2  502    0 -0.13240684810E+03  0.84297036089E+02 -0.11612290078E+03  0.19529353344E+03  0.41800000000E+01 0.  1.
         -5    1    1    2    0  502  0.23542780010E+02  0.33845164661E+02 -0.65732318079E+02  0.77704360892E+02  0.41800000000E+01 0.  1.
        -11    1    3    3    0    0  0.80070818296E+02 -0.21582447982E+02  0.34037674516E+01  0.82998335142E+02  0.00000000000E+00 0.  1.
         11    1    3    3    0    0  0.28793249793E+02 -0.96559752769E+02 -0.12711872573E+02  0.10155997633E+03  0.00000000000E+00 0. -1.
</event>
<event>
 7    1  0.5831876E-006  0.1230753E+03  0.7561462E-02  0.1238108E+00
          1   -1    0    0  501    0  0.00000000000E+00  0.00000000000E+00  0.86555809091E+03  0.86555809091E+03  0.00000000000E+00 0. -1.
         -1   -1    0    0    0  501 -0.00000000000E+00 -0.00000000000E+00 -0.27348343834E+02  0.27348343834E+02  0.00000000000E+00 0.  1.
         23    2    1    2    0    0  0.60581978232E+01 -0.74438457278E+02  0.15585352270E+03  0.19517051531E+03  0.90683095579E+02 0.  0.
          5    1    1    2  502    0  0.27124522389E+02  0.88589322454E+02  0.60746948321E+03  0.61450830198E+03  0.41800000000E+01 0.  1.
         -5    1    1    2    0  502 -0.33182720212E+02 -0.14150865176E+02  0.74886741170E+02  0.83227617465E+02  0.41800000000E+01 0.  1.
        -11    1    3    3    0    0  0.32003864899E+02 -0.83647266949E+02  0.11222064075E+03  0.14357780067E+03  0.00000000000E+00 0. -1.
         11    1    3    3    0    0 -0.25945667076E+02  0.92088096712E+01  0.43632881956E+02  0.51592714634E+02  0.00000000000E+00 0.  1.
</event>
<event>
 7    1  0.5831876E-006  0.1436210E+03  0.7561462E-02  0.1208538E+00
          2   -1    0    0  501    0  0.00000000000E+00  0.00000000000E+00  0.10826725063E+04  0.10826725063E+04  0.00000000000E+00 0. -1.
         -2   -1    0    0    0  501 -0.00000000000E+00 -0.00000000000E+00 -0.22236509887E+02  0.22236509887E+02  0.00000000000E+00 0.  1.
         23    2    1    2    0    0  0.51710063294E+02 -0.92112542331E+02  0.35999827654E+03  0.38694558979E+03  0.94707334705E+02 0.  0.
          5    1    1    2  502    0 -0.12152037220E+02 -0.23460095761E+02  0.56294870894E+02  0.62326824006E+02  0.41800000000E+01 0. -1.
         -5    1    1    2    0  502 -0.39558026074E+02  0.11557263809E+03  0.64414284898E+03  0.65563660239E+03  0.41800000000E+01 0.  1.
        -11    1    3    3    0    0  0.60988771323E+02 -0.18020544280E+02  0.20952472671E+03  0.21896342468E+03  0.00000000000E+00 0.  1.
         11    1    3    3    0    0 -0.92787080296E+01 -0.74091998051E+02  0.15047354983E+03  0.16798216511E+03  0.00000000000E+00 0. -1.
</event>
<event>
 7    1  0.5831876E-006  0.1196890E+03  0.7561462E-02  0.1243611E+00
          2   -1    0    0  501    0  0.00000000000E+00  0.00000000000E+00  0.54457058126E+03  0.54457058126E+03  0.00000000000E+00 0. -1.
         -2   -1    0    0    0  501 -0.00000000000E+00 -0.00000000000E+00 -0.26926751858E+02  0.26926751858E+02  0.00000000000E+00 0.  1.
         23    2    1    2    0    0  0.42130274018E+02 -0.30872148725E+02  0.19807762680E+03  0.22436831151E+03  0.91533291291E+02 0.  0.
          5    1    1    2  502    0  0.21388710438E+02  0.60457160329E+02  0.13083054001E+03  0.14576229886E+03  0.41800000000E+01 0. -1.
         -5    1    1    2    0  502 -0.63518984456E+02 -0.29585011605E+02  0.18873566259E+03  0.20136672275E+03  0.41800000000E+01 0. -1.
        -11    1    3    3    0    0 -0.27194077162E+02  0.37102046553E+01  0.42925872850E+02  0.50950112966E+02  0.00000000000E+00 0. -1.
         11    1    3    3    0    0  0.69324351180E+02 -0.34582353380E+02  0.15515175395E+03  0.17341819854E+03  0.00000000000E+00 0.  1.
</event>
<event>
 7    1  0.5831876E-006  0.1198419E+03  0.7561462E-02  0.1243358E+00
          2   -1    0    0  501    0  0.00000000000E+00  0.00000000000E+00  0.49966425201E+03  0.49966425201E+03  0.00000000000E+00 0. -1.
         -2   -1    0    0    0  501 -0.00000000000E+00 -0.00000000000E+00 -0.32305290045E+02  0.32305290045E+02  0.00000000000E+00 0.  1.
         23    2    1    2    0    0 -0.61515265125E+02 -0.14112566846E+02  0.16734399574E+03  0.20085388152E+03  0.91405560126E+02 0.  0.
          5    1    1    2  502    0 -0.67442939159E+01  0.54349570126E+02  0.17148647133E+03  0.18006788587E+03  0.41800000000E+01 0.  1.
         -5    1    1    2    0  502  0.68259559041E+02 -0.40237003280E+02  0.12852849489E+03  0.15104777467E+03  0.41800000000E+01 0.  1.
        -11    1    3    3    0    0  0.98907585940E+01 -0.30572938366E+02  0.24846417116E+02  0.40618667006E+02  0.00000000000E+00 0.  1.
         11    1    3    3    0    0 -0.71406023719E+02  0.16460371520E+02  0.14249757863E+03  0.16023521451E+03  0.00000000000E+00 0. -1.
</event>
<event>
 7    1  0.5831876E-006  0.1437673E+03  0.7561462E-02  0.1208348E+00
         -2   -1    0    0    0  501 -0.00000000000E+00  0.00000000000E+00  0.38691345784E+02  0.38691345784E+02  0.00000000000E+00 0.  1.
          2   -1    0    0  501    0  0.00000000000E+00 -0.00000000000E+00 -0.64669707527E+03  0.64669707527E+03  0.00000000000E+00 0. -1.
         23    2    1    2    0    0 -0.10760680441E+03 -0.32779127311E+02 -0.22698695516E+03  0.26888281112E+03  0.90117660663E+02 0.  0.
          5    1    1    2  502    0  0.11473686652E+03 -0.15763970454E+02 -0.22806087744E+03  0.25581690234E+03  0.41800000000E+01 0. -1.
         -5    1    1    2    0  502 -0.71300621118E+01  0.48543097765E+02 -0.15295789689E+03  0.16068870759E+03  0.41800000000E+01 0. -1.
        -11    1    3    3    0    0 -0.31023472904E+02  0.12486802851E+02 -0.10856937932E+02  0.35160335859E+02  0.00000000000E+00 0.  1.
         11    1    3    3    0    0 -0.76583331507E+02 -0.45265930162E+02 -0.21613001723E+03  0.23372247526E+03  0.00000000000E+00 0. -1.
</event>
<event>
 7    1  0.5831876E-006  0.1304585E+03  0.7561462E-02  0.1226777E+00
         -1   -1    0    0    0  501 -0.00000000000E+00  0.00000000000E+00  0.65010670592E+02  0.65010670592E+02  0.00000000000E+00 0.  1.
          1   -1    0    0  501    0  0.00000000000E+00 -0.00000000000E+00 -0.56683382741E+03  0.56683382741E+03  0.00000000000E+00 0. -1.
         23    2    1    2    0    0 -0.13080998345E+01  0.90607840016E+02 -0.26372067553E+02  0.13193201772E+03  0.92190452630E+02 0.  0.
          5    1    1    2  502    0 -0.61856650399E+01  0.21535089993E+02 -0.18594062096E+02  0.29414861860E+02  0.41800000000E+01 0.  1.
         -5    1    1    2    0  502  0.74937648744E+01 -0.11214293001E+03 -0.45685702717E+03  0.47049761841E+03  0.41800000000E+01 0.  1.
        -11    1    3    3    0    0  0.35310710580E+02  0.80130544310E+02 -0.32404292167E+02  0.93369098550E+02  0.00000000000E+00 0.  1.
         11    1    3    3    0    0 -0.36618810414E+02  0.10477295706E+02  0.60322246146E+01  0.38562919175E+02  0.00000000000E+00 0. -1.
</event>
<event>
 6    1  0.5831876E-006  0.6634374E+02  0.7561462E-02  0.1372987E+00
         -2   -1    0    0    0  501 -0.00000000000E+00  0.00000000000E+00  0.90526697885E+01  0.90526697885E+01  0.00000000000E+00 0.  1.
          2   -1    0    0  501    0  0.00000000000E+00 -0.00000000000E+00 -0.89448365053E+03  0.89448365053E+03  0.00000000000E+00 0. -1.
          5    1    1    2  502    0 -0.24716341275E+02  0.57975335132E+02 -0.18186423090E+03  0.19252040903E+03  0.41800000000E+01 0. -1.
         -5    1    1    2    0  502  0.26005198874E+02 -0.28920805832E+02 -0.61766264020E+03  0.61890006696E+03  0.41800000000E+01 0.  1.
        -11    1    1    2    0    0 -0.51294937441E+01 -0.16611596967E+02 -0.29623482163E+02  0.34348326820E+02  0.00000000000E+00 0.  1.
         11    1    1    2    0    0  0.38406361453E+01 -0.12442932333E+02 -0.56280627470E+02  0.57767517512E+02  0.00000000000E+00 0. -1.
</event>
<event>
 7    1  0.5831876E-006  0.7103770E+02  0.7561462E-02  0.1356599E+00
         -2   -1    0    0    0  501 -0.00000000000E+00  0.00000000000E+00  0.17556325880E+03  0.17556325880E+03  0.00000000000E+00 0.  1.
          2   -1    0    0  501    0  0.00000000000E+00 -0.00000000000E+00 -0.82618663422E+02  0.82618663422E+02  0.00000000000E+00 0. -1.
         23    2    1    2    0    0  0.11720284864E+02  0.50245094527E+02  0.39400963728E+02  0.11266064082E+03  0.92076324028E+02 0.  0.
          5    1    1    2  502    0  0.11678005507E+02 -0.43968570213E+02 -0.32480034241E+02  0.56053866981E+02  0.41800000000E+01 0. -1.
         -5    1    1    2    0  502 -0.23398290370E+02 -0.62765243141E+01  0.86023665894E+02  0.89467414423E+02  0.41800000000E+01 0. -1.
        -11    1    3    3    0    0 -0.62665750981E+01 -0.83919637415E+01  0.49416754662E+02  0.50514459912E+02  0.00000000000E+00 0.  1.
         11    1    3    3    0    0  0.17986859962E+02  0.58637058269E+02 -0.10015790934E+02  0.62146180910E+02  0.00000000000E+00 0. -1.
</event>
<event>
 7    1  0.5831876E-006  0.2239423E+03  0.7561462E-02  0.1130978E+00
         -1   -1    0    0    0  501 -0.00000000000E+00  0.00000000000E+00  0.21966638076E+03  0.21966638076E+03  0.00000000000E+00 0.  1.
          1   -1    0    0  501    0  0.00000000000E+00 -0.00000000000E+00 -0.23651753938E+03  0.23651753938E+03  0.00000000000E+00 0. -1.
         23    2    1    2    0    0  0.48784809428E+02 -0.19340507916E+03 -0.25783610308E+02  0.22057303024E+03  0.90565914295E+02 0.  0.
          5    1    1    2  502    0 -0.81806919462E+02  0.82640981186E+02  0.24501188424E+02  0.11891040525E+03  0.41800000000E+01 0.  1.
         -5    1    1    2    0  502  0.33022110034E+02  0.11076409798E+03 -0.15568736731E+02  0.11670048464E+03  0.41800000000E+01 0.  1.
        -11    1    3    3    0    0  0.57663077006E+02 -0.63945959124E+02  0.80234381753E+01  0.86478272984E+02  0.00000000000E+00 0.  1.
         11    1    3    3    0    0 -0.88782675787E+01 -0.12945912004E+03 -0.33807048483E+02  0.13409475726E+03  0.00000000000E+00 0. -1.
</event>
<event>
 7    1  0.5831876E-006  0.1172194E+03  0.7561462E-02  0.1247756E+00
         -2   -1    0    0    0  501 -0.00000000000E+00  0.00000000000E+00  0.14656238258E+03  0.14656238258E+03  0.00000000000E+00 0. -1.
          2   -1    0    0  501    0  0.00000000000E+00 -0.00000000000E+00 -0.14237337335E+03  0.14237337335E+03  0.00000000000E+00 0.  1.
         23    2    1    2    0    0 -0.87800188654E+02 -0.29055507017E+02  0.25692854821E+02  0.13189090914E+03  0.90454372533E+02 0.  0.
          5    1    1    2  502    0  0.74296144609E+02  0.42746134210E+02 -0.66084895438E+02  0.10831359517E+03  0.41800000000E+01 0.  1.
         -5    1    1    2    0  502  0.13504044045E+02 -0.13690627192E+02  0.44581049845E+02  0.48731251613E+02  0.41800000000E+01 0.  1.
        -11    1    3    3    0    0 -0.69160427429E+02 -0.60828946989E+02  0.23127943748E+02  0.94964347499E+02  0.00000000000E+00 0. -1.
         11    1    3    3    0    0 -0.18639761225E+02  0.31773439971E+02  0.25649110737E+01  0.36926561646E+02  0.00000000000E+00 0.  1.
</event>
<event>
 7    1  0.5831876E-006  0.1098216E+03  0.7561462E-02  0.1260901E+00
          1   -1    0    0  501    0  0.00000000000E+00  0.00000000000E+00  0.44278964293E+03  0.44278964293E+03  0.00000000000E+00 0. -1.
         -1   -1    0    0    0  501 -0.00000000000E+00 -0.00000000000E+00 -0.33647759170E+02  0.33647759170E+02  0.00000000000E+00 0.  1.
         23    2    1    2    0    0  0.35641297049E+02  0.49620138691E+02  0.15836406487E+03  0.19289594947E+03  0.91636292262E+02 0.  0.
          5    1    1    2  502    0 -0.54906449154E+02 -0.64506356715E+02  0.10166926497E+03  0.13240052891E+03  0.41800000000E+01 0. -1.
         -5    1    1    2    0  502  0.19265152105E+02  0.14886218024E+02  0.14910855391E+03  0.15114092372E+03  0.41800000000E+01 0.  1.
        -11    1    3    3    0    0 -0.30886280634E+02  0.89643384829E+01  0.47252559174E+02  0.57158779241E+02  0.00000000000E+00 0. -1.
         11    1    3    3    0    0  0.66527577683E+02  0.40655800208E+02  0.11111150570E+03  0.13573717023E+03  0.00000000000E+00 0.  1.
</event>
<event>
 7    1  0.5831876E-006  0.1090839E+03  0.7561462E-02  0.1262276E+00
          2   -1    0    0  501    0  0.00000000000E+00  0.00000000000E+00  0.75915291028E+03  0.75915291028E+03  0.00000000000E+00 0.  1.
         -2   -1    0    0    0  501 -0.00000000000E+00 -0.00000000000E+00 -0.18457213555E+02  0.18457213555E+02  0.00000000000E+00 0. -1.
         23    2    1    2    0    0 -0.25087401703E+02 -0.40608006488E+02  0.29218053974E+03  0.30953806823E+03  0.90365701261E+02 0.  0.
          5    1    1    2  502    0 -0.29633820293E+02  0.53406222752E+02  0.11953192918E+03  0.13429721675E+03  0.41800000000E+01 0. -1.
         -5    1    1    2    0  502  0.54721221996E+02 -0.12798216264E+02  0.32898322781E+03  0.33377483886E+03  0.41800000000E+01 0. -1.
        -11    1    3    3    0    0  0.29837984028E+02  0.36456452634E+01  0.64069100459E+02  0.70770372713E+02  0.00000000000E+00 0. -1.
         11    1    3    3    0    0 -0.54925385731E+02 -0.44253651752E+02  0.22811143928E+03  0.23876769552E+03  0.00000000000E+00 0.  1.
</event>
<event>
 7    1  0.5831876E-006  0.1386915E+03  0.7561462E-02  0.1215101E+00
          3   -1    0    0  501    0  0.00000000000E+00  0.00000000000E+00  0.22821026199E+03  0.22821026199E+03  0.00000000000E+00 0. -1.
         -3   -1    0    0    0  501 -0.00000000000E+00 -0.00000000000E+00 -0.11388001741E+03  0.11388001741E+03  0.00000000000E+00 0.  1.
         23    2    1    2    0    0 -0.29679130131E+02 -0.99362379301E+02  0.11170922719E+02  0.14962431320E+03  0.10727959918E+03 0.  0.
          5    1    1    2  502    0 -0.21123379550E+02  0.10219956523E+03  0.41430447469E+02  0.11236059218E+03  0.41800000000E+01 0.  1.
         -5    1    1    2    0  502  0.50802509681E+02 -0.28371859306E+01  0.61728874397E+02  0.80105374028E+02  0.41800000000E+01 0.  1.
        -11    1    3    3    0    0 -0.16672350143E+02 -0.10598670201E+03 -0.25393440631E+02  0.11025413865E+03  0.00000000000E+00 0.  1.
         11    1    3    3    0    0 -0.13006779987E+02  0.66243227053E+01  0.36564363350E+02  0.39370174550E+02  0.00000000000E+00 0. -1.
</event>
<event>
 7    1  0.1003651E-005  0.1271221E+03  0.7561462E-02  0.1231790E+00
         -3   -1    0    0    0  501 -0.00000000000E+00  0.00000000000E+00  0.49413202584E+03  0.49413202584E+03  0.00000000000E+00 0.  1.
          3   -1    0    0  501    0  0.00000000000E+00 -0.00000000000E+00 -0.49940286473E+02  0.49940286473E+02  0.00000000000E+00 0. -1.
         23    2    1    2    0    0  0.96265008867E+02 -0.57457998891E+02  0.23205424867E+03  0.27348362721E+03  0.91519104343E+02 0.  0.
          5    1    1    2  502    0 -0.98286624837E+02  0.26524545697E+02  0.21623896202E+03  0.23904094470E+03  0.41800000000E+01 0. -1.
         -5    1    1    2    0  502  0.20216159700E+01  0.30933453194E+02 -0.41014713194E+01  0.31547740404E+02  0.41800000000E+01 0. -1.
        -11    1    3    3    0    0  0.50540511986E+02 -0.39536454638E+01  0.17703280016E+03  0.18414827449E+03  0.00000000000E+00 0.  1.
         11    1    3    3    0    0  0.45724496881E+02 -0.53504353427E+02  0.55021448510E+02  0.89335352727E+02  0.00000000000E+00 0. -1.
</event>
<event>
 7    1  0.5831876E-006  0.1171760E+03  0.7561462E-02  0.1247830E+00
          1   -1    0    0  501    0  0.00000000000E+00  0.00000000000E+00  0.61248393325E+03  0.61248393325E+03  0.00000000000E+00 0. -1.
         -1   -1    0    0    0  501 -0.00000000000E+00 -0.00000000000E+00 -0.36425192111E+02  0.36425192111E+02  0.00000000000E+00 0.  1.
         23    2    1    2    0    0 -0.82361969780E+02  0.37678806930E+02  0.16132687116E+03  0.20635404778E+03  0.91391723467E+02 0.  0.
          5    1    1    2  502    0  0.71655958234E+02  0.27723267392E+01  0.38351154722E+03  0.39018052411E+03  0.41800000000E+01 0. -1.
         -5    1    1    2    0  502  0.10706011546E+02 -0.40451133670E+02  0.31220322764E+02  0.52374553477E+02  0.41800000000E+01 0. -1.
        -11    1    3    3    0    0  0.86601389443E+01  0.27556454178E+02  0.75512951814E+02  0.80849007818E+02  0.00000000000E+00 0.  1.
         11    1    3    3    0    0 -0.91022108724E+02  0.10122352752E+02  0.85813919345E+02  0.12550503996E+03  0.00000000000E+00 0. -1.
</event>
<event>
 7    1  0.5831876E-006  0.1071752E+03  0.7561462E-02  0.1265892E+00
          2   -1    0    0  501    0  0.00000000000E+00  0.00000000000E+00  0.37035126332E+03  0.37035126332E+03  0.00000000000E+00 0. -1.
         -2   -1    0    0    0  501 -0.00000000000E+00 -0.00000000000E+00 -0.42510107604E+02  0.42510107604E+02  0.00000000000E+00 0.  1.
         23    2    1    2    0    0 -0.48033999644E+02 -0.11878442417E+02  0.83091931770E+02  0.13358207806E+03  0.92149552021E+02 0.  0.
          5    1    1    2  502    0 -0.37562225616E+02 -0.19841155891E+02  0.67574261363E+02  0.79927125927E+02  0.41800000000E+01 0.  1.
         -5    1    1    2    0  502  0.85596225260E+02  0.31719598308E+02  0.17717496258E+03  0.19935216694E+03  0.41800000000E+01 0.  1.
        -11    1    3    3    0    0 -0.14541219781E+01 -0.30197147540E+02  0.77536752499E+02  0.83222173598E+02  0.00000000000E+00 0. -1.
         11    1    3    3    0    0 -0.46579877666E+02  0.18318705123E+02  0.55551792717E+01  0.50359904463E+02  0.00000000000E+00 0.  1.
</event>
<event>
 7    1  0.5831876E-006  0.1310244E+03  0.7561462E-02  0.1225944E+00
          1   -1    0    0  501    0  0.00000000000E+00  0.00000000000E+00  0.15009293465E+03  0.15009293465E+03  0.00000000000E+00 0. -1.
         -1   -1    0    0    0  501 -0.00000000000E+00 -0.00000000000E+00 -0.15102333064E+03  0.15102333064E+03  0.00000000000E+00 0.  1.
         23    2    1    2    0    0  0.75999700548E+02  0.23285734186E+02 -0.66858243931E+02  0.13889546611E+03  0.92215756921E+02 0.  0.
          5    1    1    2  502    0 -0.68922056077E+02 -0.71106232865E+02  0.37417392079E+02  0.10594281380E+03  0.41800000000E+01 0. -1.
         -5    1    1    2    0  502 -0.70776444713E+01  0.47820498679E+02  0.28510455854E+02  0.56277985378E+02  0.41800000000E+01 0. -1.
        -11    1    3    3    0    0  0.68091754762E+02 -0.19557583671E+02 -0.63603398350E+02  0.95207029296E+02  0.00000000000E+00 0.  1.
         11    1    3    3    0    0  0.79079457863E+01  0.42843317857E+02 -0.32548455805E+01  0.43688436815E+02  0.00000000000E+00 0. -1.
</event>
<event>
 7    1  0.5831876E-006  0.7435415E+02  0.7561462E-02  0.1345883E+00
          1   -1    0    0  501    0  0.00000000000E+00  0.00000000000E+00  0.11423490345E+04  0.11423490345E+04  0.00000000000E+00 0. -1.
         -1   -1    0    0    0  501 -0.00000000000E+00 -0.00000000000E+00 -0.12259818884E+02  0.12259818884E+02  0.00000000000E+00 0.  1.
         23    2    1    2    0    0  0.47068547084E+02 -0.10874627463E+01  0.44496590673E+03  0.45657025128E+03  0.90802563327E+02 0.  0.
          5    1    1    2  502    0 -0.41737291724E+02  0.84607432552E+01  0.64916368743E+02  0.77750839401E+02  0.41800000000E+01 0. -1.
         -5    1    1    2    0  502 -0.53312553603E+01 -0.73732805089E+01  0.62020694019E+03  0.62028776274E+03  0.41800000000E+01 0. -1.
        -11    1    3    3    0    0 -0.22201108808E+02 -0.12837223305E+02  0.60085254124E+02  0.65329329536E+02  0.00000000000E+00 0.  1.
         11    1    3    3    0    0  0.69269655893E+02  0.11749760559E+02  0.38488065260E+03  0.39124092175E+03  0.00000000000E+00 0. -1.
</event>
<event>
 7    1  0.5831876E-006  0.8975755E+02  0.7561462E-02  0.1303440E+00
         -2   -1    0    0    0  501 -0.00000000000E+00  0.00000000000E+00  0.42143948922E+02  0.42143948922E+02  0.00000000000E+00 0.  1.
          2   -1    0    0  501    0  0.00000000000E+00 -0.00000000000E+00 -0.31569765991E+03  0.31569765991E+03  0.00000000000E+00 0. -1.
         23    2    1    2    0    0 -0.40295148612E+02 -0.12728684191E+02 -0.10654662963E+03  0.14494880112E+03  0.88725713623E+02 0.  0.
          5    1    1    2  502    0  0.53850269908E+02  0.54455091830E+02 -0.14405939510E+03  0.16320474967E+03  0.41800000000E+01 0. -1.
         -5    1    1    2    0  502 -0.13555121296E+02 -0.41726407638E+02 -0.22947686248E+02  0.49688058041E+02  0.41800000000E+01 0. -1.
        -11    1    3    3    0    0 -0.40871282273E+02  0.48488191569E+01 -0.45061583793E+01  0.41403843121E+02  0.00000000000E+00 0.  1.
         11    1    3    3    0    0  0.57613366139E+00 -0.17577503348E+02 -0.10204047125E+03  0.10354495800E+03  0.00000000000E+00 0. -1.
</event>
<event>
 7    1  0.5831876E-006  0.1031410E+03  0.7561462E-02  0.1273826E+00
          1   -1    0    0  501    0  0.00000000000E+00  0.00000000000E+00  0.16217576026E+03  0.16217576026E+03  0.00000000000E+00 0. -1.
         -1   -1    0    0    0  501 -0.00000000000E+00 -0.00000000000E+00 -0.14890725742E+03  0.14890725742E+03  0.00000000000E+00 0.  1.
         23    2    1    2    0    0  0.46495054965E+02  0.81591192571E+02 -0.51818238598E+02  0.14165577613E+03  0.92532784558E+02 0.  0.
          5    1    1    2  502    0  0.32579066621E+00 -0.22488829327E+02  0.87670564313E+02  0.90606036394E+02  0.41800000000E+01 0.  1.
         -5    1    1    2    0  502 -0.46820845631E+02 -0.59102363244E+02 -0.22583822878E+02  0.78821205157E+02  0.41800000000E+01 0.  1.
        -11    1    3    3    0    0  0.36890483918E+02  0.88617160892E+02 -0.70784120998E+02  0.11926567316E+03  0.00000000000E+00 0.  1.
         11    1    3    3    0    0  0.96045710475E+01 -0.70259683209E+01  0.18965882400E+02  0.22390102972E+02  0.00000000000E+00 0. -1.
</event>
<event>
 7    1  0.5831876E-006  0.1266425E+03  0.7561462E-02  0.1232524E+00
         -1   -1    0    0    0  501 -0.00000000000E+00  0.00000000000E+00  0.18086676292E+02  0.18086676292E+02  0.00000000000E+00 0.  1.
          1   -1    0    0  501    0  0.00000000000E+00 -0.00000000000E+00 -0.14145400988E+04  0.14145400988E+04  0.00000000000E+00 0. -1.
         23    2    1    2    0    0  0.62587441990E+01 -0.11690679602E+03 -0.60274171018E+03  0.62063429849E+03  0.90459894086E+02 0.  0.
          5    1    1    2  502    0 -0.24807243659E+01  0.18626090510E+02 -0.53248122217E+03  0.53282906227E+03  0.41800000000E+01 0. -1.
         -5    1    1    2    0  502 -0.37780198331E+01  0.98280705512E+02 -0.26123049016E+03  0.27916341433E+03  0.41800000000E+01 0. -1.
        -11    1    3    3    0    0 -0.22447886910E+02 -0.99544783198E+02 -0.53928920565E+03  0.54885874214E+03  0.00000000000E+00 0. -1.
         11    1    3    3    0    0  0.28706631109E+02 -0.17362012824E+02 -0.63452504527E+02  0.71775556352E+02  0.00000000000E+00 0.  1.
</event>
<event>
 7    1  0.5831876E-006  0.6947424E+02  0.7561462E-02  0.1361890E+00
         -2   -1    0    0    0  501 -0.00000000000E+00  0.00000000000E+00  0.19756684548E+02  0.19756684548E+02  0.00000000000E+00 0.  1.
          2   -1    0    0  501    0  0.00000000000E+00 -0.00000000000E+00 -0.71268297526E+03  0.71268297526E+03  0.00000000000E+00 0. -1.
         23    2    1    2    0    0 -0.44000324468E+02  0.69492446170E+01 -0.23889081714E+03  0.25938665460E+03  0.90709941672E+02 0.  0.
          5    1    1    2  502    0  0.49945952176E+02  0.30844377743E+01 -0.57565915625E+02  0.76389913843E+02  0.41800000000E+01 0.  1.
         -5    1    1    2    0  502 -0.59456277076E+01 -0.10033682391E+02 -0.39646955795E+03  0.39666309136E+03  0.41800000000E+01 0.  1.
        -11    1    3    3    0    0 -0.55334737591E+01 -0.25453597707E+02 -0.15300858295E+02  0.30209621524E+02  0.00000000000E+00 0.  1.
         11    1    3    3    0    0 -0.38466850709E+02  0.32402842324E+02 -0.22358995884E+03  0.22917703308E+03  0.00000000000E+00 0. -1.
</event>
<event>
 7    1  0.5831876E-006  0.8012297E+02  0.7561462E-02  0.1328703E+00
          1   -1    0    0  501    0  0.00000000000E+00  0.00000000000E+00  0.72245679300E+03  0.72245679300E+03  0.00000000000E+00 0. -1.
         -1   -1    0    0    0  501 -0.00000000000E+00 -0.00000000000E+00 -0.10559958373E+03  0.10559958373E+03  0.00000000000E+00 0.  1.
         23    2    1    2    0    0  0.45159962308E+02  0.13935559892E+02 -0.65205122443E+02  0.12368655824E+03  0.93877764518E+02 0.  0.
          5    1    1    2  502    0 -0.52151630822E+02  0.77149438161E+00  0.68526114263E+03  0.68725591579E+03  0.41800000000E+01 0. -1.
         -5    1    1    2    0  502  0.69916685147E+01 -0.14707054274E+02 -0.31988109171E+01  0.17113902691E+02  0.41800000000E+01 0.  1.
        -11    1    3    3    0    0  0.37517709227E+02  0.45304629321E+02 -0.69571717572E+02  0.91106047162E+02  0.00000000000E+00 0.  1.
         11    1    3    3    0    0  0.76422530804E+01 -0.31369069429E+02  0.43665951286E+01  0.32580511077E+02  0.00000000000E+00 0. -1.
</event>
<event>
 7    1  0.5831876E-006  0.1079863E+03  0.7561462E-02  0.1264345E+00
         -1   -1    0    0    0  501 -0.00000000000E+00  0.00000000000E+00  0.34813913372E+02  0.34813913372E+02  0.00000000000E+00 0.  1.
          1   -1    0    0  501    0  0.00000000000E+00 -0.00000000000E+00 -0.12152263432E+04  0.12152263432E+04  0.00000000000E+00 0. -1.
         23    2    1    2    0    0  0.99419945804E+01 -0.51535964574E+02 -0.56953577943E+02  0.11842059530E+03  0.89581964985E+02 0.  0.
          5    1    1    2  502    0  0.13704251567E+02 -0.27636608977E+02 -0.97923530764E+02  0.10275251308E+03  0.41800000000E+01 0. -1.
         -5    1    1    2    0  502 -0.23646246147E+02  0.79172573552E+02 -0.10255353212E+04  0.10288671482E+04  0.41800000000E+01 0. -1.
        -11    1    3    3    0    0  0.44621166539E+02 -0.50534726546E+02 -0.27126972166E+02  0.72668285443E+02  0.00000000000E+00 0.  1.
         11    1    3    3    0    0 -0.34679171958E+02 -0.10012380283E+01 -0.29826605777E+02  0.45752309860E+02  0.00000000000E+00 0. -1.
</event>
<event>
 7    1  0.5831876E-006  0.1192845E+03  0.7561462E-02  0.1244282E+00
         -2   -1    0    0    0  501 -0.00000000000E+00  0.00000000000E+00  0.32188732217E+02  0.32188732217E+02  0.00000000000E+00 0.  1.
          2   -1    0    0  501    0  0.00000000000E+00 -0.00000000000E+00 -0.53905928577E+03  0.53905928577E+03  0.00000000000E+00 0. -1.
         23    2    1    2    0    0 -0.19520693792E+02 -0.44819055681E+02 -0.12216804639E+03  0.16378101311E+03  0.97516067688E+02 0.  0.
          5    1    1    2  502    0  0.46426808115E+02  0.77258062600E+02 -0.22982985370E+03  0.24690785893E+03  0.41800000000E+01 0.  1.
         -5    1    1    2    0  502 -0.26906114323E+02 -0.32439006919E+02 -0.15487265346E+03  0.16055914595E+03  0.41800000000E+01 0.  1.
        -11    1    3    3    0    0  0.16630148662E+02 -0.63255289543E+02 -0.55720759229E+02  0.85922037387E+02  0.00000000000E+00 0.  1.
         11    1    3    3    0    0 -0.36150842454E+02  0.18436233862E+02 -0.66447287159E+02  0.77858975718E+02  0.00000000000E+00 0. -1.
</event>
<event>
 7    1  0.5831876E-006  0.1226177E+03  0.7561462E-02  0.1238840E+00
         -1   -1    0    0    0  501 -0.00000000000E+00  0.00000000000E+00  0.98594025005E+02  0.98594025005E+02  0.00000000000E+00 0.  1.
          1   -1    0    0  501    0  0.00000000000E+00 -0.00000000000E+00 -0.17750448669E+03  0.17750448669E+03  0.00000000000E+00 0. -1.
         23    2    1    2    0    0 -0.62410562214E+02 -0.27693411950E+02 -0.29167068241E+01  0.11460445377E+03  0.91998208152E+02 0.  0.
          5    1    1    2  502    0  0.95383547434E+02  0.36513842914E+02 -0.35131236934E+02  0.10808773313E+03  0.41800000000E+01 0.  1.
         -5    1    1    2    0  502 -0.32972985219E+02 -0.88204309648E+01 -0.40862517923E+02  0.53406324791E+02  0.41800000000E+01 0.  1.
        -11    1    3    3    0    0  0.11089594750E+02 -0.33121424270E+02 -0.18125111501E+02  0.39351334467E+02  0.00000000000E+00 0.  1.
         11    1    3    3    0    0 -0.73500156964E+02  0.54280123206E+01  0.15208404677E+02  0.75253119300E+02  0.00000000000E+00 0. -1.
</event>
<event>
 7    1  0.5831876E-006  0.1149709E+03  0.7561462E-02  0.1251632E+00
          2   -1    0    0  501    0  0.00000000000E+00  0.00000000000E+00  0.42137676751E+03  0.42137676751E+03  0.00000000000E+00 0. -1.
         -2   -1    0    0    0  501 -0.00000000000E+00 -0.00000000000E+00 -0.56180497491E+02  0.56180497491E+02  0.00000000000E+00 0.  1.
         23    2    1    2    0    0  0.93620171728E+02  0.29732620879E+02  0.84677897818E+02  0.15841656953E+03  0.90976358607E+02 0.  0.
          5    1    1    2  502    0 -0.73881435858E+02 -0.22422722150E+02  0.28659072153E+03  0.29683827095E+03  0.41800000000E+01 0. -1.
         -5    1    1    2    0  502 -0.19738735870E+02 -0.73098987293E+01 -0.60723493259E+01  0.22302424521E+02  0.41800000000E+01 0.  1.
        -11    1    3    3    0    0  0.81070195826E+02 -0.16946940929E+02  0.37655783667E+02  0.90980951312E+02  0.00000000000E+00 0.  1.
         11    1    3    3    0    0  0.12549975902E+02  0.46679561808E+02  0.47022114150E+02  0.67435618222E+02  0.00000000000E+00 0. -1.
</event>
<event>
 7    1  0.5831876E-006  0.1085960E+03  0.7561462E-02  0.1263192E+00
         -1   -1    0    0    0  501 -0.00000000000E+00  0.00000000000E+00  0.30491539634E+02  0.30491539634E+02  0.00000000000E+00 0.  1.
          1   -1    0    0  501    0  0.00000000000E+00 -0.00000000000E+00 -0.66172458102E+03  0.66172458102E+03  0.00000000000E+00 0. -1.
         23    2    1    2    0    0 -0.97326972328E+01  0.29562463100E+02 -0.77856003151E+02  0.12402406176E+03  0.91387887867E+02 0.  0.
          5    1    1    2  502    0  0.36181510281E+02 -0.70321566482E+02 -0.37482251023E+03  0.38309739098E+03  0.41800000000E+01 0.  1.
         -5    1    1    2    0  502 -0.26448813048E+02  0.40759103382E+02 -0.17855452800E+03  0.18509466791E+03  0.41800000000E+01 0.  1.
        -11    1    3    3    0    0  0.10417322274E+02 -0.27130964182E+02 -0.49237944517E+01  0.29476322237E+02  0.00000000000E+00 0.  1.
         11    1    3    3    0    0 -0.20150019506E+02  0.56693427282E+02 -0.72932208700E+02  0.94547739523E+02  0.00000000000E+00 0. -1.
</event>
<event>
 7    1  0.5831876E-006  0.5495618E+02  0.7561462E-02  0.1420306E+00
         -2   -1    0    0    0  501 -0.00000000000E+00  0.00000000000E+00  0.57326142037E+02  0.57326142037E+02  0.00000000000E+00 0.  1.
          2   -1    0    0  501    0  0.00000000000E+00 -0.00000000000E+00 -0.22665232487E+03  0.22665232487E+03  0.00000000000E+00 0. -1.
         23    2    1    2    0    0  0.20938091343E+02  0.85659031157E+01 -0.37243651252E+02  0.10066125998E+03  0.90740406304E+02 0.  0.
          5    1    1    2  502    0  0.64833336344E+01 -0.11646695322E+02 -0.14967558770E+03  0.15032608916E+03  0.41800000000E+01 0.  1.
         -5    1    1    2    0  502 -0.27421424977E+02  0.30807922060E+01  0.17593056120E+02  0.32991117775E+02  0.41800000000E+01 0.  1.
        -11    1    3    3    0    0  0.44214267048E+02  0.53561426678E+01 -0.55316907765E+02  0.71017955191E+02  0.00000000000E+00 0. -1.
         11    1    3    3    0    0 -0.23276175705E+02  0.32097604478E+01  0.18073256513E+02  0.29643304785E+02  0.00000000000E+00 0.  1.
</event>
<event>
 7    1  0.5831876E-006  0.8253406E+02  0.7561462E-02  0.1322010E+00
          2   -1    0    0  501    0  0.00000000000E+00  0.00000000000E+00  0.12145350277E+03  0.12145350277E+03  0.00000000000E+00 0. -1.
         -2   -1    0    0    0  501 -0.00000000000E+00 -0.00000000000E+00 -0.12669256655E+03  0.12669256655E+03  0.00000000000E+00 0.  1.
         23    2    1    2    0    0  0.82491449210E+01  0.59966993939E+02 -0.57140051206E+01  0.10917275269E+03  0.90674976275E+02 0.  0.
          5    1    1    2  502    0  0.27111056617E+02 -0.85356188885E+01 -0.50619846657E+02  0.58204015809E+02  0.41800000000E+01 0.  1.
         -5    1    1    2    0  502 -0.35360201538E+02 -0.51431375050E+02  0.51094787999E+02  0.80769300808E+02  0.41800000000E+01 0.  1.
        -11    1    3    3    0    0 -0.17133190028E+02  0.29665381988E+02 -0.42901894237E+02  0.54901307982E+02  0.00000000000E+00 0.  1.
         11    1    3    3    0    0  0.25382334949E+02  0.30301611951E+02  0.37187889116E+02  0.54271444713E+02  0.00000000000E+00 0. -1.
</event>
<event>
 7    1  0.5831876E-006  0.8927063E+02  0.7561462E-02  0.1304628E+00
          2   -1    0    0  501    0  0.00000000000E+00  0.00000000000E+00  0.72939336620E+02  0.72939336620E+02  0.00000000000E+00 0. -1.
         -2   -1    0    0    0  501 -0.00000000000E+00 -0.00000000000E+00 -0.21320063162E+03  0.21320063162E+03  0.00000000000E+00 0.  1.
         23    2    1    2    0    0 -0.44971743852E+02  0.30200731437E+02 -0.69826301110E+02  0.13270363536E+03  0.98994952331E+02 0.  0.
          5    1    1    2  502    0  0.41776388277E+02  0.13803910484E+01  0.27628290393E+02  0.50278891465E+02  0.41800000000E+01 0. -1.
         -5    1    1    2    0  502  0.31953555745E+01 -0.31581122486E+02 -0.98063284278E+02  0.10315744141E+03  0.41800000000E+01 0. -1.
        -11    1    3    3    0    0  0.20235531272E+02 -0.14988612268E+02  0.25549383637E+01  0.25311320267E+02  0.00000000000E+00 0. -1.
         11    1    3    3    0    0 -0.65207275124E+02  0.45189343706E+02 -0.72381239474E+02  0.10739231509E+03  0.00000000000E+00 0.  1.
</event>
<event>
 7    1  0.5831876E-006  0.4256709E+02  0.7561462E-02  0.1490128E+00
          2   -1    0    0  501    0  0.00000000000E+00  0.00000000000E+00  0.58126235940E+02  0.58126235940E+02  0.00000000000E+00 0.  1.
         -2   -1    0    0    0  501 -0.00000000000E+00 -0.00000000000E+00 -0.23149614139E+03  0.23149614139E+03  0.00000000000E+00 0. -1.
         23    2    1    2    0    0 -0.39512887150E+02 -0.37110575178E+00 -0.87179935742E+02  0.13265363756E+03  0.91843564782E+02 0.  0.
          5    1    1    2  502    0  0.17051139044E+02 -0.97873991574E+01  0.31107291383E+02  0.37036070285E+02  0.41800000000E+01 0.  1.
         -5    1    1    2    0  502  0.22461748106E+02  0.10158504909E+02 -0.11729726109E+03  0.11993266948E+03  0.41800000000E+01 0.  1.
        -11    1    3    3    0    0 -0.15809307275E+02 -0.32889624004E+01  0.18356800790E+02  0.24448386561E+02  0.00000000000E+00 0.  1.
         11    1    3    3    0    0 -0.23703579875E+02  0.29178566486E+01 -0.10553673653E+03  0.10820525100E+03  0.00000000000E+00 0. -1.
</event>
<event>
 7    1  0.5831876E-006  0.1485571E+03  0.7561462E-02  0.1202257E+00
          1   -1    0    0  501    0  0.00000000000E+00  0.00000000000E+00  0.59927358274E+03  0.59927358274E+03  0.00000000000E+00 0. -1.
         -1   -1    0    0    0  501 -0.00000000000E+00 -0.00000000000E+00 -0.45434993481E+02  0.45434993481E+02  0.00000000000E+00 0.  1.
         23    2    1    2    0    0 -0.11095620426E+03  0.79753075247E+01  0.15075186698E+03  0.20824389665E+03  0.90909352109E+02 0.  0.
          5    1    1    2  502    0  0.89022640014E+02 -0.57368774722E+02  0.20097858017E+03  0.22721370741E+03  0.41800000000E+01 0.  1.
         -5    1    1    2    0  502  0.21933564248E+02  0.49393467198E+02  0.20210814210E+03  0.20925097215E+03  0.41800000000E+01 0.  1.
        -11    1    3    3    0    0 -0.11524049068E+03 -0.12577375452E+02  0.14650957806E+03  0.18682509877E+03  0.00000000000E+00 0. -1.
         11    1    3    3    0    0  0.42842864161E+01  0.20552682977E+02  0.42422889173E+01  0.21418797886E+02  0.00000000000E+00 0.  1.
</event>
<event>
 7    1  0.5831876E-006  0.1016103E+03  0.7561462E-02  0.1276946E+00
          1   -1    0    0  501    0  0.00000000000E+00  0.00000000000E+00  0.35294221546E+03  0.35294221546E+03  0.00000000000E+00 0. -1.
         -1   -1    0    0    0  501 -0.00000000000E+00 -0.00000000000E+00 -0.39327991371E+02  0.39327991371E+02  0.00000000000E+00 0.  1.
         23    2    1    2    0    0  0.14829538494E+02 -0.41917269111E+02  0.12115656491E+03  0.15846536059E+03  0.91953165389E+02 0.  0.
          5    1    1    2  502    0  0.14210352506E+02  0.77359824291E+02  0.15723467208E+03  0.17585986192E+03  0.41800000000E+01 0.  1.
         -5    1    1    2    0  502 -0.29039891000E+02 -0.35442555179E+02  0.35222987102E+02  0.57944984316E+02  0.41800000000E+01 0.  1.
        -11    1    3    3    0    0  0.34731069086E+02 -0.31572027514E+01  0.60588329546E+01  0.35396674220E+02  0.00000000000E+00 0.  1.
         11    1    3    3    0    0 -0.19901530592E+02 -0.38760066360E+02  0.11509773195E+03  0.12306868637E+03  0.00000000000E+00 0. -1.
</event>
<event>
 7    1  0.5831876E-006  0.1051974E+03  0.7561462E-02  0.1269731E+00
         -2   -1    0    0    0  501 -0.00000000000E+00  0.00000000000E+00  0.23001907642E+02  0.23001907642E+02  0.00000000000E+00 0. -1.
          2   -1    0    0  501    0  0.00000000000E+00 -0.00000000000E+00 -0.72567380918E+03  0.72567380918E+03  0.00000000000E+00 0.  1.
         23    2    1    2    0    0  0.30784378668E+02  0.49067311797E+02 -0.19592770253E+03  0.22351632393E+03  0.90645481885E+02 0.  0.
          5    1    1    2  502    0  0.23603527246E+02 -0.44015435945E+02 -0.41710907144E+03  0.42010943214E+03  0.41800000000E+01 0.  1.
         -5    1    1    2    0  502 -0.54387905915E+02 -0.50518758520E+01 -0.89635127569E+02  0.10504996075E+03  0.41800000000E+01 0.  1.
        -11    1    3    3    0    0  0.19332705372E+02 -0.24404879350E+02 -0.79383443554E+02  0.85270644090E+02  0.00000000000E+00 0.  1.
         11    1    3    3    0    0  0.11451673296E+02  0.73472191147E+02 -0.11654425897E+03  0.13824567984E+03  0.00000000000E+00 0. -1.
</event>
<event>
 7    1  0.5831876E-006  0.7156507E+02  0.7561462E-02  0.1354850E+00
          3   -1    0    0  501    0  0.00000000000E+00  0.00000000000E+00  0.57486191866E+03  0.57486191866E+03  0.00000000000E+00 0. -1.
         -3   -1    0    0    0  501 -0.00000000000E+00 -0.00000000000E+00 -0.28053208080E+02  0.28053208080E+02  0.00000000000E+00 0.  1.
         23    2    1    2    0    0  0.19599601681E+02 -0.13008939754E+02  0.98115968595E+02  0.13651636167E+03  0.91959756479E+02 0.  0.
          5    1    1    2  502    0 -0.40802822019E+02  0.23989866415E+02  0.43683713740E+03  0.43941386071E+03  0.41800000000E+01 0.  1.
         -5    1    1    2    0  502  0.21203220338E+02 -0.10980926662E+02  0.11855604592E+02  0.26984904359E+02  0.41800000000E+01 0.  1.
        -11    1    3    3    0    0 -0.23717839579E+02 -0.14906436435E+02  0.87502581669E+02  0.91877307102E+02  0.00000000000E+00 0. -1.
         11    1    3    3    0    0  0.43317441260E+02  0.18974966813E+01  0.10613386925E+02  0.44639054571E+02  0.00000000000E+00 0.  1.
</event>
<event>
 7    1  0.5831876E-006  0.1882786E+03  0.7561462E-02  0.1160023E+00
         -1   -1    0    0    0  501 -0.00000000000E+00  0.00000000000E+00  0.73823340075E+02  0.73823340075E+02  0.00000000000E+00 0.  1.
          1   -1    0    0  501    0  0.00000000000E+00 -0.00000000000E+00 -0.79646202491E+03  0.79646202491E+03  0.00000000000E+00 0. -1.
         23    2    1    2    0    0  0.14933895972E+02 -0.17817361555E+02 -0.85471066108E+01  0.86503091922E+02  0.82880952330E+02 0.  0.
          5    1    1    2  502    0 -0.43433850839E+02 -0.14800837190E+03 -0.36283573159E+03  0.39428443802E+03  0.41800000000E+01 0. -1.
         -5    1    1    2    0  502  0.28499954868E+02  0.16582573345E+03 -0.35125584663E+03  0.38949783503E+03  0.41800000000E+01 0.  1.
        -11    1    3    3    0    0 -0.17911615237E+02 -0.83285975028E+01 -0.37053085350E+02  0.41989553828E+02  0.00000000000E+00 0. -1.
         11    1    3    3    0    0  0.32845511208E+02 -0.94887640523E+01  0.28505978739E+02  0.44513538094E+02  0.00000000000E+00 0.  1.
</event>
<event>
 7    1  0.5831876E-006  0.8489318E+02  0.7561462E-02  0.1315712E+00
          1   -1    0    0  501    0  0.00000000000E+00  0.00000000000E+00  0.26166717991E+03  0.26166717991E+03  0.00000000000E+00 0. -1.
         -1   -1    0    0    0  501 -0.00000000000E+00 -0.00000000000E+00 -0.98164826153E+02  0.98164826153E+02  0.00000000000E+00 0.  1.
         23    2    1    2    0    0 -0.89039313977E+00 -0.41007402760E+02 -0.49647673554E+02  0.11126172399E+03  0.90729707680E+02 0.  0.
          5    1    1    2  502    0  0.14864176123E+02  0.82206208395E+02  0.12892619335E+03  0.15368227016E+03  0.41800000000E+01 0. -1.
         -5    1    1    2    0  502 -0.13973782983E+02 -0.41198805635E+02  0.84223833958E+02  0.94888011904E+02  0.41800000000E+01 0.  1.
        -11    1    3    3    0    0 -0.51489834865E+01 -0.11185501054E+02  0.26582021609E+02  0.29295585633E+02  0.00000000000E+00 0. -1.
         11    1    3    3    0    0  0.42585903467E+01 -0.29821901706E+02 -0.76229695163E+02  0.81966138361E+02  0.00000000000E+00 0.  1.
</event>
<event>
 7    1  0.5831876E-006  0.1210182E+03  0.7561462E-02  0.1241427E+00
         -2   -1    0    0    0  501 -0.00000000000E+00  0.00000000000E+00  0.74935931376E+02  0.74935931376E+02  0.00000000000E+00 0.  1.
          2   -1    0    0  501    0  0.00000000000E+00 -0.00000000000E+00 -0.40281643373E+03  0.40281643373E+03  0.00000000000E+00 0. -1.
         23    2    1    2    0    0  0.99955788067E+01  0.71296419233E+02 -0.16671461047E+01  0.12105535180E+03  0.97306360695E+02 0.  0.
          5    1    1    2  502    0  0.12563416793E+02  0.24421753141E+02 -0.16860239203E+03  0.17087568718E+03  0.41800000000E+01 0. -1.
         -5    1    1    2    0  502 -0.22558995600E+02 -0.95718172374E+02 -0.15761096422E+03  0.18582132614E+03  0.41800000000E+01 0. -1.
        -11    1    3    3    0    0  0.27102291346E+02  0.87902418355E+02  0.13245476085E+02  0.92934449940E+02  0.00000000000E+00 0.  1.
         11    1    3    3    0    0 -0.17106712540E+02 -0.16605999122E+02 -0.14912622190E+02  0.28120901858E+02  0.00000000000E+00 0. -1.
</event>
<event>
 7    1  0.6457488E-006  0.1004291E+03  0.7561462E-02  0.1279396E+00
         -2   -1    0    0    0  501 -0.00000000000E+00  0.00000000000E+00  0.36596893766E+02  0.36596893766E+02  0.00000000000E+00 0.  1.
          2   -1    0    0  501    0  0.00000000000E+00 -0.00000000000E+00 -0.40308745601E+03  0.40308745601E+03  0.00000000000E+00 0. -1.
         23    2    1    2    0    0 -0.61238866684E+02  0.13779135005E+01 -0.12619471261E+03  0.16194018824E+03  0.80916139532E+02 0.  0.
          5    1    1    2  502    0 -0.17062872193E+01 -0.55630588456E+02 -0.88164946809E+02  0.10434655737E+03  0.41800000000E+01 0.  1.
         -5    1    1    2    0  502  0.62945153903E+02  0.54252674956E+02 -0.15213090282E+03  0.17339760417E+03  0.41800000000E+01 0.  1.
        -11    1    3    3    0    0 -0.27661124173E+02  0.48529945251E+01  0.31530210138E+01  0.28260058172E+02  0.00000000000E+00 0.  1.
         11    1    3    3    0    0 -0.33577742511E+02 -0.34750810246E+01 -0.12934773362E+03  0.13368013006E+03  0.00000000000E+00 0. -1.
</event>
<event>
 7    1  0.5831876E-006  0.1088259E+03  0.7561462E-02  0.1262760E+00
          1   -1    0    0  501    0  0.00000000000E+00  0.00000000000E+00  0.60836233780E+03  0.60836233780E+03  0.00000000000E+00 0. -1.
         -1   -1    0    0    0  501 -0.00000000000E+00 -0.00000000000E+00 -0.27317524760E+02  0.27317524760E+02  0.00000000000E+00 0.  1.
         23    2    1    2    0    0  0.23301444100E+02 -0.20154323725E+02  0.11559855672E+03  0.15274775454E+03  0.94972080845E+02 0.  0.
          5    1    1    2  502    0 -0.53035474416E+02 -0.35528266536E+02  0.19675088619E+03  0.20688983273E+03  0.41800000000E+01 0.  1.
         -5    1    1    2    0  502  0.29734030316E+02  0.55682590261E+02  0.26869537013E+03  0.27604227529E+03  0.41800000000E+01 0.  1.
        -11    1    3    3    0    0 -0.31669204035E+02 -0.15473345256E+02  0.15610633380E+02  0.38549380957E+02  0.00000000000E+00 0.  1.
         11    1    3    3    0    0  0.54970648135E+02 -0.46809784689E+01  0.99987923336E+02  0.11419837358E+03  0.00000000000E+00 0. -1.
</event>
<event>
 7    1  0.5831876E-006  0.1317325E+03  0.7561462E-02  0.1224907E+00
          2   -1    0    0  501    0  0.00000000000E+00  0.00000000000E+00  0.44931359818E+02  0.44931359818E+02  0.00000000000E+00 0. -1.
         -2   -1    0    0    0  501 -0.00000000000E+00 -0.00000000000E+00 -0.40239146235E+03  0.40239146235E+03  0.00000000000E+00 0.  1.
         23    2    1    2    0    0  0.13458214803E+01 -0.78901671082E+02 -0.14553679424E+03  0.18889389252E+03  0.90954159984E+02 0.  0.
          5    1    1    2  502    0 -0.33833084511E+00  0.11219314850E+03 -0.14337143177E+03  0.18209957959E+03  0.41800000000E+01 0.  1.
         -5    1    1    2    0  502 -0.10074906352E+01 -0.33291477419E+02 -0.68551876522E+02  0.76329350061E+02  0.41800000000E+01 0.  1.
        -11    1    3    3    0    0  0.65574193014E+01 -0.97801099953E+02 -0.10371759723E+03  0.14270737499E+03  0.00000000000E+00 0.  1.
         11    1    3    3    0    0 -0.52115978211E+01  0.18899428871E+02 -0.41819197005E+02  0.46186517531E+02  0.00000000000E+00 0. -1.
</event>
<event>
 7    1  0.5831876E-006  0.9376122E+02  0.7561462E-02  0.1293991E+00
          1   -1    0    0  501    0  0.00000000000E+00  0.00000000000E+00  0.56712301889E+03  0.56712301889E+03  0.00000000000E+00 0. -1.
         -1   -1    0    0    0  501 -0.00000000000E+00 -0.00000000000E+00 -0.38678395150E+02  0.38678395150E+02  0.00000000000E+00 0.  1.
         23    2    1    2    0    0 -0.12308522574E+02 -0.58973294404E+02  0.76071388349E+02  0.13260094406E+03  0.90370377112E+02 0.  0.
          5    1    1    2  502    0  0.47039465778E+02 -0.97564925877E+01  0.84146713834E+02  0.96984753118E+02  0.41800000000E+01 0. -1.
         -5    1    1    2    0  502 -0.34730943205E+02  0.68729786992E+02  0.36822652156E+03  0.37621571686E+03  0.41800000000E+01 0. -1.
        -11    1    3    3    0    0  0.14896492868E+01 -0.30535561364E+02 -0.16529283679E+02  0.34754234012E+02  0.00000000000E+00 0.  1.
         11    1    3    3    0    0 -0.13798171860E+02 -0.28437733040E+02  0.92600672028E+02  0.97846710048E+02  0.00000000000E+00 0. -1.
</event>
<event>
 7    1  0.5831876E-006  0.2136151E+03  0.7561462E-02  0.1138735E+00
          2   -1    0    0  501    0  0.00000000000E+00  0.00000000000E+00  0.11272215249E+04  0.11272215249E+04  0.00000000000E+00 0. -1.
         -2   -1    0    0    0  501 -0.00000000000E+00 -0.00000000000E+00 -0.42089997222E+02  0.42089997222E+02  0.00000000000E+00 0.  1.
         23    2    1    2    0    0  0.14723629504E+03 -0.11502724622E+03  0.57855074641E+03  0.61507103478E+03  0.93175199005E+02 0.  0.
          5    1    1    2  502    0 -0.98888793851E+02  0.13417235523E+03  0.43343761564E+03  0.46439945469E+03  0.41800000000E+01 0.  1.
         -5    1    1    2    0  502 -0.48347501188E+02 -0.19145109015E+02  0.73143165622E+02  0.89841032650E+02  0.41800000000E+01 0.  1.
        -11    1    3    3    0    0  0.62518256975E+02 -0.10609559001E+03  0.32185267744E+03  0.34460695386E+03  0.00000000000E+00 0.  1.
         11    1    3    3    0    0  0.84718038064E+02 -0.89316562061E+01  0.25669806897E+03  0.27046408092E+03  0.00000000000E+00 0. -1.
</event>
<event>
 7    1  0.5831876E-006  0.4751782E+02  0.7561462E-02  0.1459209E+00
          2   -1    0    0  501    0  0.00000000000E+00  0.00000000000E+00  0.42026117385E+03  0.42026117385E+03  0.00000000000E+00 0.  1.
         -2   -1    0    0    0  501 -0.00000000000E+00 -0.00000000000E+00 -0.28829699604E+02  0.28829699604E+02  0.00000000000E+00 0. -1.
         23    2    1    2    0    0 -0.26764906617E+01  0.20182121330E+02  0.16094702608E+03  0.18606001140E+03  0.91103792544E+02 0.  0.
          5    1    1    2  502    0  0.67694970826E+00 -0.27588163793E+01  0.24172960769E+03  0.24178243311E+03  0.41800000000E+01 0. -1.
         -5    1    1    2    0  502  0.19995409534E+01 -0.17423304951E+02 -0.11245159526E+02  0.21248428935E+02  0.41800000000E+01 0. -1.
        -11    1    3    3    0    0 -0.32345805880E+02  0.26264789392E+02  0.29207324939E+02  0.50883770988E+02  0.00000000000E+00 0.  1.
         11    1    3    3    0    0  0.29669315219E+02 -0.60826680616E+01  0.13173970114E+03  0.13517624042E+03  0.00000000000E+00 0. -1.
</event>
<event>
 7    1  0.5831876E-006  0.2119959E+03  0.7561462E-02  0.1139995E+00
         -2   -1    0    0    0  501 -0.00000000000E+00  0.00000000000E+00  0.56346782888E+02  0.56346782888E+02  0.00000000000E+00 0.  1.
          2   -1    0    0  501    0  0.00000000000E+00 -0.00000000000E+00 -0.11465624646E+04  0.11465624646E+04  0.00000000000E+00 0. -1.
         23    2    1    2    0    0 -0.47290328792E+02  0.19334738709E+03 -0.25959873883E+03  0.33966612206E+03  0.91443873413E+02 0.  0.
          5    1    1    2  502    0 -0.12550722070E+02 -0.24515346722E+02 -0.23400729964E+02  0.36381168373E+02  0.41800000000E+01 0. -1.
         -5    1    1    2    0  502  0.59841050863E+02 -0.16883204036E+03 -0.80721621294E+03  0.82686195707E+03  0.41800000000E+01 0. -1.
        -11    1    3    3    0    0 -0.55876416735E+02  0.55184303180E+02 -0.72163946122E+02  0.10665419066E+03  0.00000000000E+00 0.  1.
         11    1    3    3    0    0  0.85860879423E+01  0.13816308391E+03 -0.18743479270E+03  0.23301193140E+03  0.00000000000E+00 0. -1.
</event>
<event>
 7    1  0.5831876E-006  0.9761051E+02  0.7561462E-02  0.1285402E+00
         -2   -1    0    0    0  501 -0.00000000000E+00  0.00000000000E+00  0.24306747248E+02  0.24306747248E+02  0.00000000000E+00 0. -1.
          2   -1    0    0  501    0  0.00000000000E+00 -0.00000000000E+00 -0.68025597516E+03  0.68025597516E+03  0.00000000000E+00 0.  1.
         23    2    1    2    0    0  0.17640079342E+02  0.58611314991E+02 -0.26644418993E+03  0.29091177916E+03  0.99451989717E+02 0.  0.
          5    1    1    2  502    0  0.16401440948E+02 -0.34213304623E+02 -0.22641715702E+02  0.44381045147E+02  0.41800000000E+01 0. -1.
         -5    1    1    2    0  502 -0.34041520290E+02 -0.24398010368E+02 -0.36686332227E+03  0.36926989810E+03  0.41800000000E+01 0. -1.
        -11    1    3    3    0    0  0.58102809294E+02  0.39138976186E+02 -0.13650086001E+03  0.15342842203E+03  0.00000000000E+00 0.  1.
         11    1    3    3    0    0 -0.40462729952E+02  0.19472338805E+02 -0.12994332993E+03  0.13748335712E+03  0.00000000000E+00 0. -1.
</event>
<event>
 7    1  0.5831876E-006  0.1083883E+03  0.7561462E-02  0.1263584E+00
          2   -1    0    0  501    0  0.00000000000E+00  0.00000000000E+00  0.40274303226E+03  0.40274303226E+03  0.00000000000E+00 0. -1.
         -2   -1    0    0    0  501 -0.00000000000E+00 -0.00000000000E+00 -0.32531317876E+02  0.32531317876E+02  0.00000000000E+00 0.  1.
         23    2    1    2    0    0 -0.32188467363E+02 -0.21294642294E+00  0.12434993659E+03  0.15751912042E+03  0.91176881889E+02 0.  0.
          5    1    1    2  502    0  0.30735129510E+02  0.60372701896E+02  0.14753771398E+03  0.16240184964E+03  0.41800000000E+01 0. -1.
         -5    1    1    2    0  502  0.14533378535E+01 -0.60159755473E+02  0.98324063808E+02  0.11535338007E+03  0.41800000000E+01 0. -1.
        -11    1    3    3    0    0 -0.59326166908E+00  0.38559379181E+02  0.24072434337E+02  0.45460529881E+02  0.00000000000E+00 0.  1.
         11    1    3    3    0    0 -0.31595205694E+02 -0.38772325604E+02  0.10027750226E+03  0.11205859054E+03  0.00000000000E+00 0. -1.
</event>
<event>
 7    1  0.5831876E-006  0.1106904E+03  0.7561462E-02  0.1259297E+00
          1   -1    0    0  501    0  0.00000000000E+00  0.00000000000E+00  0.10520896661E+04  0.10520896661E+04  0.00000000000E+00 0. -1.
         -1   -1    0    0    0  501 -0.00000000000E+00 -0.00000000000E+00 -0.20000091643E+02  0.20000091643E+02  0.00000000000E+00 0.  1.
         23    2    1    2    0    0 -0.72331601686E+02  0.43492125846E+02  0.30601505347E+03  0.33050046725E+03  0.91988696514E+02 0.  0.
          5    1    1    2  502    0 -0.16283085236E+02 -0.37104094679E+01  0.42197124663E+03  0.42232228379E+03  0.41800000000E+01 0.  1.
         -5    1    1    2    0  502  0.88614686922E+02 -0.39781716378E+02  0.30410327434E+03  0.31926700669E+03  0.41800000000E+01 0.  1.
        -11    1    3    3    0    0  0.57474787825E+01 -0.10528767660E+02  0.22001793109E+01  0.12195460212E+02  0.00000000000E+00 0.  1.
         11    1    3    3    0    0 -0.78079080469E+02  0.54020893506E+02  0.30381487416E+03  0.31830500704E+03  0.00000000000E+00 0. -1.
</event>
<event>
 7    1  0.5831876E-006  0.9752320E+02  0.7561462E-02  0.1285592E+00
         -1   -1    0    0    0  501 -0.00000000000E+00  0.00000000000E+00  0.18278828054E+02  0.18278828054E+02  0.00000000000E+00 0.  1.
          1   -1    0    0  501    0  0.00000000000E+00 -0.00000000000E+00 -0.68038102322E+03  0.68038102322E+03  0.00000000000E+00 0. -1.
         23    2    1    2    0    0  0.25405009980E+02  0.54937805711E+01 -0.25085834524E+03  0.26802701926E+03  0.90735756575E+02 0.  0.
          5    1    1    2  502    0 -0.88540694081E+01 -0.53079360531E+02 -0.33388592159E+03  0.33822048148E+03  0.41800000000E+01 0. -1.
         -5    1    1    2    0  502 -0.16550940571E+02  0.47585579960E+02 -0.77357928345E+02  0.92412350537E+02  0.41800000000E+01 0. -1.
        -11    1    3    3    0    0  0.49448998700E+02  0.28638319929E+02 -0.11897215634E+03  0.13198382789E+03  0.00000000000E+00 0.  1.
         11    1    3    3    0    0 -0.24043988721E+02 -0.23144539358E+02 -0.13188618890E+03  0.13604319137E+03  0.00000000000E+00 0. -1.
</event>
<event>
 7    1  0.5831876E-006  0.1041331E+03  0.7561462E-02  0.1271837E+00
         -1   -1    0    0    0  501 -0.00000000000E+00  0.00000000000E+00  0.68567505186E+02  0.68567505186E+02  0.00000000000E+00 0.  1.
          1   -1    0    0  501    0  0.00000000000E+00 -0.00000000000E+00 -0.30707980200E+03  0.30707980200E+03  0.00000000000E+00 0. -1.
         23    2    1    2    0    0 -0.30386742672E+02 -0.21137062080E+02  0.45712070151E+01  0.99772175987E+02  0.92538973648E+02 0.  0.
          5    1    1    2  502    0 -0.43192366925E+02 -0.27783484712E+01 -0.14202611704E+03  0.14853346458E+03  0.41800000000E+01 0. -1.
         -5    1    1    2    0  502  0.73579109598E+02  0.23915410551E+02 -0.10105738679E+03  0.12734166661E+03  0.41800000000E+01 0. -1.
        -11    1    3    3    0    0 -0.16592250534E+02 -0.51417150393E+02 -0.20836435405E+02  0.57906676408E+02  0.00000000000E+00 0. -1.
         11    1    3    3    0    0 -0.13794492139E+02  0.30280088313E+02  0.25407642420E+02  0.41865499578E+02  0.00000000000E+00 0.  1.
</event>
<event>
 7    1  0.5831876E-006  0.7096117E+02  0.7561462E-02  0.1356855E+00
         -3   -1    0    0    0  501 -0.00000000000E+00  0.00000000000E+00  0.23454583327E+03  0.23454583327E+03  0.00000000000E+00 0.  1.
          3   -1    0    0  501    0  0.00000000000E+00 -0.00000000000E+00 -0.74437721854E+02  0.74437721854E+02  0.00000000000E+00 0. -1.
         23    2    1    2    0    0  0.59932744839E+02  0.17171146051E+02  0.12017412970E+03  0.16361340364E+03  0.91873512189E+02 0.  0.
          5    1    1    2  502    0 -0.12389286591E+02 -0.26746701500E+02 -0.41153656691E+02  0.50793467320E+02  0.41800000000E+01 0. -1.
         -5    1    1    2    0  502 -0.47543458248E+02  0.95755554489E+01  0.81087638411E+02  0.94576684163E+02  0.41800000000E+01 0. -1.
        -11    1    3    3    0    0  0.29729376056E+02  0.14709056379E+02  0.12807205103E+03  0.13229755250E+03  0.00000000000E+00 0.  1.
         11    1    3    3    0    0  0.30203368783E+02  0.24620896721E+01 -0.78979213392E+01  0.31315851144E+02  0.00000000000E+00 0. -1.
</event>
<event>
 7    1  0.5831876E-006  0.1190424E+03  0.7561462E-02  0.1244685E+00
          1   -1    0    0  501    0  0.00000000000E+00  0.00000000000E+00  0.77123655301E+03  0.77123655301E+03  0.00000000000E+00 0. -1.
         -1   -1    0    0    0  501 -0.00000000000E+00 -0.00000000000E+00 -0.24255923831E+02  0.24255923831E+02  0.00000000000E+00 0.  1.
         23    2    1    2    0    0 -0.53780791068E+02 -0.40279130964E+02  0.19735681047E+03  0.22782238204E+03  0.91861554734E+02 0.  0.
          5    1    1    2  502    0 -0.22773070184E+01  0.66985191908E+02  0.40033791301E+03  0.40593117526E+03  0.41800000000E+01 0. -1.
         -5    1    1    2    0  502  0.56058098087E+02 -0.26706060944E+02  0.14928590570E+03  0.16173891953E+03  0.41800000000E+01 0. -1.
        -11    1    3    3    0    0 -0.24764735694E+02 -0.65641442447E+02  0.15730344818E+03  0.17223955965E+03  0.00000000000E+00 0.  1.
         11    1    3    3    0    0 -0.29016055374E+02  0.25362311483E+02  0.40053362295E+02  0.55582822386E+02  0.00000000000E+00 0. -1.
</event>
<event>
 7    1  0.5831876E-006  0.9349725E+02  0.7561462E-02  0.1294597E+00
          1   -1    0    0  501    0  0.00000000000E+00  0.00000000000E+00  0.11809707262E+04  0.11809707262E+04  0.00000000000E+00 0. -1.
         -1   -1    0    0    0  501 -0.00000000000E+00 -0.00000000000E+00 -0.30496016432E+02  0.30496016432E+02  0.00000000000E+00 0.  1.
         23    2    1    2    0    0 -0.40475839274E+02  0.17476869491E+02  0.74868743646E+02  0.12771421339E+03  0.93604791509E+02 0.  0.
          5    1    1    2  502    0  0.16250280990E+02 -0.67338050100E+02  0.77086093115E+03  0.77397837967E+03  0.41800000000E+01 0. -1.
         -5    1    1    2    0  502  0.24225558284E+02  0.49861180610E+02  0.30474503500E+03  0.30977414960E+03  0.41800000000E+01 0. -1.
        -11    1    3    3    0    0 -0.20958943370E+02 -0.13831750294E+02 -0.15908191066E+02  0.29726506125E+02  0.00000000000E+00 0.  1.
         11    1    3    3    0    0 -0.19516895904E+02  0.31308619784E+02  0.90776934712E+02  0.97987707261E+02  0.00000000000E+00 0. -1.
</event>
<event>
 7    1  0.5831876E-006  0.7719180E+02  0.7561462E-02  0.1337215E+00
         -2   -1    0    0    0  501 -0.00000000000E+00  0.00000000000E+00  0.13181300575E+02  0.13181300575E+02  0.00000000000E+00 0.  1.
          2   -1    0    0  501    0  0.00000000000E+00 -0.00000000000E+00 -0.12876086100E+04  0.12876086100E+04  0.00000000000E+00 0. -1.
         23    2    1    2    0    0  0.37523514241E+02 -0.12179801961E+02 -0.26780942035E+03  0.28566264581E+03  0.91240889341E+02 0.  0.
          5    1    1    2  502    0 -0.20143653424E+02  0.26981328584E+02 -0.97657490670E+03  0.97716415185E+03  0.41800000000E+01 0.  1.
         -5    1    1    2    0  502 -0.17379860817E+02 -0.14801526623E+02 -0.30042982399E+02  0.37963112937E+02  0.41800000000E+01 0.  1.
        -11    1    3    3    0    0  0.37899011086E+02 -0.48148568841E+02 -0.19588142617E+03  0.20524169372E+03  0.00000000000E+00 0. -1.
         11    1    3    3    0    0 -0.37549684537E+00  0.35968766880E+02 -0.71927994178E+02  0.80420952091E+02  0.00000000000E+00 0.  1.
</event>
<event>
 7    1  0.5831876E-006  0.1569220E+03  0.7561462E-02  0.1192216E+00
         -1   -1    0    0    0  501 -0.00000000000E+00  0.00000000000E+00  0.39058739855E+02  0.39058739855E+02  0.00000000000E+00 0.  1.
          1   -1    0    0  501    0  0.00000000000E+00 -0.00000000000E+00 -0.84078320613E+03  0.84078320613E+03  0.00000000000E+00 0. -1.
         23    2    1    2    0    0 -0.55988396846E+02 -0.12073610222E+03 -0.50894351439E+03  0.53476177772E+03  0.96097612385E+02 0.  0.
          5    1    1    2  502    0  0.52612130321E+02  0.13328631584E+03 -0.29782136196E+03  0.33052732760E+03  0.41800000000E+01 0. -1.
         -5    1    1    2    0  502  0.33762665243E+01 -0.12550213623E+02  0.50404100839E+01  0.14552840666E+02  0.41800000000E+01 0. -1.
        -11    1    3    3    0    0 -0.58413519749E+02 -0.29266718176E+02 -0.13778358265E+03  0.15248932989E+03  0.00000000000E+00 0.  1.
         11    1    3    3    0    0  0.24251229034E+01 -0.91469384043E+02 -0.37115993174E+03  0.38227244783E+03  0.00000000000E+00 0. -1.
</event>
<event>
 7    1  0.5831876E-006  0.1192986E+03  0.7561462E-02  0.1244259E+00
          1   -1    0    0  501    0  0.00000000000E+00  0.00000000000E+00  0.61267634094E+02  0.61267634094E+02  0.00000000000E+00 0. -1.
         -1   -1    0    0    0  501 -0.00000000000E+00 -0.00000000000E+00 -0.28660998434E+03  0.28660998434E+03  0.00000000000E+00 0.  1.
         23    2    1    2    0    0  0.67016058900E+02 -0.10961636132E+01 -0.15102866712E+03  0.18767939042E+03  0.89003042488E+02 0.  0.
          5    1    1    2  502    0 -0.87980521299E+02 -0.26979451810E+02 -0.18182522180E+02  0.93896429436E+02  0.41800000000E+01 0. -1.
         -5    1    1    2    0  502  0.20964462399E+02  0.28075615423E+02 -0.56131160941E+02  0.66301798570E+02  0.41800000000E+01 0. -1.
        -11    1    3    3    0    0  0.86854452674E+02 -0.13347385408E+02 -0.12406161638E+03  0.15203004080E+03  0.00000000000E+00 0. -1.
         11    1    3    3    0    0 -0.19838393774E+02  0.12251221794E+02 -0.26967050746E+02  0.35649349628E+02  0.00000000000E+00 0.  1.
</event>
<event>
 7    1  0.5831876E-006  0.1064139E+03  0.7561462E-02  0.1267359E+00
          3   -1    0    0  501    0  0.00000000000E+00  0.00000000000E+00  0.45219167099E+02  0.45219167099E+02  0.00000000000E+00 0. -1.
         -3   -1    0    0    0  501 -0.00000000000E+00 -0.00000000000E+00 -0.29799874697E+03  0.29799874697E+03  0.00000000000E+00 0.  1.
         23    2    1    2    0    0 -0.36808823931E+02 -0.17123720076E+02 -0.10213073465E+03  0.14323518396E+03  0.91855972339E+02 0.  0.
          5    1    1    2  502    0 -0.38266455736E+02  0.16754547436E+02 -0.10232098432E+03  0.11059879171E+03  0.41800000000E+01 0. -1.
         -5    1    1    2    0  502  0.75075279667E+02  0.36917264005E+00 -0.48327860891E+02  0.89383938400E+02  0.41800000000E+01 0. -1.
        -11    1    3    3    0    0 -0.51331730389E+02  0.20538194024E+02 -0.36715865750E+02  0.66368808609E+02  0.00000000000E+00 0. -1.
         11    1    3    3    0    0  0.14522906457E+02 -0.37661914100E+02 -0.65414868905E+02  0.76866375350E+02  0.00000000000E+00 0.  1.
</event>
<event>
 7    1  0.8594731E-006  0.1988859E+03  0.7561462E-02  0.1150682E+00
          1   -1    0    0  501    0  0.00000000000E+00  0.00000000000E+00  0.72943837493E+02  0.72943837493E+02  0.00000000000E+00 0. -1.
         -1   -1    0    0    0  501 -0.00000000000E+00 -0.00000000000E+00 -0.74562517121E+03  0.74562517121E+03  0.00000000000E+00 0.  1.
         23    2    1    2    0    0 -0.18192730553E+03 -0.14648475390E+02 -0.50404665843E+03  0.54036484894E+03  0.67963326684E+02 0.  0.
          5    1    1    2  502    0  0.19178305503E+03  0.13240846696E+02 -0.11619852327E+03  0.22466782018E+03  0.41800000000E+01 0.  1.
         -5    1    1    2    0  502 -0.98557494998E+01  0.14076286934E+01 -0.52436152019E+02  0.53536339577E+02  0.41800000000E+01 0.  1.
        -11    1    3    3    0    0 -0.45080334914E+02 -0.34021715301E+02 -0.13971475813E+03  0.15069813319E+03  0.00000000000E+00 0.  1.
         11    1    3    3    0    0 -0.13684697061E+03  0.19373239911E+02 -0.36433190030E+03  0.38966671575E+03  0.00000000000E+00 0. -1.
</event>
<event>
 7    1  0.5831876E-006  0.9427013E+02  0.7561462E-02  0.1292828E+00
          2   -1    0    0  501    0  0.00000000000E+00  0.00000000000E+00  0.18225375243E+03  0.18225375243E+03  0.00000000000E+00 0.  1.
         -2   -1    0    0    0  501 -0.00000000000E+00 -0.00000000000E+00 -0.10580078040E+03  0.10580078040E+03  0.00000000000E+00 0. -1.
         23    2    1    2    0    0  0.40591232177E+01  0.52635030014E+02 -0.35561965853E+02  0.11207359217E+03  0.92243773670E+02 0.  0.
          5    1    1    2  502    0 -0.63768208093E+02 -0.36965221396E+02  0.62752558532E+02  0.96892558840E+02  0.41800000000E+01 0. -1.
         -5    1    1    2    0  502  0.59709084875E+02 -0.15669808619E+02  0.49262379349E+02  0.79088381814E+02  0.41800000000E+01 0. -1.
        -11    1    3    3    0    0  0.59969226337E-02  0.13021701362E+02  0.31497148951E+02  0.34082768877E+02  0.00000000000E+00 0.  1.
         11    1    3    3    0    0  0.40531262951E+01  0.39613328653E+02 -0.67059114804E+02  0.77990823293E+02  0.00000000000E+00 0. -1.
</event>
<event>
 7    1  0.5831876E-006  0.1515329E+03  0.7561462E-02  0.1198602E+00
          2   -1    0    0  501    0  0.00000000000E+00  0.00000000000E+00  0.23745540538E+02  0.23745540538E+02  0.00000000000E+00 0. -1.
         -2   -1    0    0    0  501 -0.00000000000E+00 -0.00000000000E+00 -0.99314293365E+03  0.99314293365E+03  0.00000000000E+00 0.  1.
         23    2    1    2    0    0  0.39352673620E+02  0.64527115174E+02 -0.37598276624E+03  0.39426938900E+03  0.91503710719E+02 0.  0.
          5    1    1    2  502    0 -0.10541769046E+03 -0.49391879002E+02 -0.30949294384E+03  0.33068988775E+03  0.41800000000E+01 0. -1.
         -5    1    1    2    0  502  0.66065016839E+02 -0.15135236172E+02 -0.28392168303E+03  0.29192919744E+03  0.41800000000E+01 0.  1.
        -11    1    3    3    0    0  0.45212015458E+02  0.85595542885E+02 -0.30459234815E+03  0.31960479010E+03  0.00000000000E+00 0.  1.
         11    1    3    3    0    0 -0.58593418387E+01 -0.21068427712E+02 -0.71390418091E+02  0.74664598895E+02  0.00000000000E+00 0. -1.
</event>
<event>
 7    1  0.5831876E-006  0.8805338E+02  0.7561462E-02  0.1307635E+00
          1   -1    0    0  501    0  0.00000000000E+00  0.00000000000E+00  0.31555470985E+03  0.31555470985E+03  0.00000000000E+00 0. -1.
         -1   -1    0    0    0  501 -0.00000000000E+00 -0.00000000000E+00 -0.88878237810E+02  0.88878237810E+02  0.00000000000E+00 0.  1.
         23    2    1    2    0    0  0.14195488461E+02 -0.26105964670E+01 -0.46244727180E+02  0.10386454814E+03  0.91874601834E+02 0.  0.
          5    1    1    2  502    0 -0.44198072186E+02 -0.26936240559E+02  0.44881145741E+02  0.68635415664E+02  0.41800000000E+01 0.  1.
         -5    1    1    2    0  502  0.30002583725E+02  0.29546837026E+02  0.22804005348E+03  0.23193298385E+03  0.41800000000E+01 0.  1.
        -11    1    3    3    0    0  0.47956753380E+02 -0.35559266932E+01 -0.19044798209E+01  0.48126103652E+02  0.00000000000E+00 0. -1.
         11    1    3    3    0    0 -0.33761264919E+02  0.94533022617E+00 -0.44340247360E+02  0.55738444489E+02  0.00000000000E+00 0.  1.
</event>
<event>
 7    1  0.5831876E-006  0.8125333E+02  0.7561462E-02  0.1325532E+00
         -4   -1    0    0    0  501 -0.00000000000E+00  0.00000000000E+00  0.22688856546E+03  0.22688856546E+03  0.00000000000E+00 0.  1.
          4   -1    0    0  501    0  0.00000000000E+00 -0.00000000000E+00 -0.52435708909E+02  0.52435708909E+02  0.00000000000E+00 0. -1.
         23    2    1    2    0    0  0.10404134434E+02  0.47036110375E+01  0.62805384252E+02  0.11126792862E+03  0.91135424940E+02 0.  0.
          5    1    1    2  502    0 -0.63494929660E+02 -0.25021357124E+02  0.65989833568E+02  0.95025285789E+02  0.41800000000E+01 0.  1.
         -5    1    1    2    0  502  0.53090795227E+02  0.20317746087E+02  0.45657638730E+02  0.73031059956E+02  0.41800000000E+01 0.  1.
        -11    1    3    3    0    0  0.15288947578E+02  0.17616860997E+02  0.83329250751E+02  0.86532477950E+02  0.00000000000E+00 0.  1.
         11    1    3    3    0    0 -0.48848131443E+01 -0.12913249959E+02 -0.20523866499E+02  0.24735450674E+02  0.00000000000E+00 0. -1.
</event>
<event>
 7    1  0.5831876E-006  0.2921647E+03  0.7561462E-02  0.1089224E+00
          2   -1    0    0  501    0  0.00000000000E+00  0.00000000000E+00  0.12300351071E+04  0.12300351071E+04  0.00000000000E+00 0. -1.
         -2   -1    0    0    0  501 -0.00000000000E+00 -0.00000000000E+00 -0.76142807707E+02  0.76142807707E+02  0.00000000000E+00 0.  1.
         23    2    1    2    0    0 -0.20984881976E+03  0.18825458728E+03  0.66591697037E+03  0.72890534821E+03  0.91549322435E+02 0.  0.
          5    1    1    2  502    0  0.51532700740E+02 -0.11375585674E+03  0.27167286391E+03  0.29903115486E+03  0.41800000000E+01 0.  1.
         -5    1    1    2    0  502  0.15831611902E+03 -0.74498730539E+02  0.21630246511E+03  0.27824141174E+03  0.41800000000E+01 0.  1.
        -11    1    3    3    0    0 -0.45885242415E+02  0.22125398931E+02  0.55255020057E+02  0.75153882075E+02  0.00000000000E+00 0.  1.
         11    1    3    3    0    0 -0.16396357735E+03  0.16612918834E+03  0.61066195031E+03  0.65375146613E+03  0.00000000000E+00 0. -1.
</event>
<event>
 7    1  0.5831876E-006  0.1389619E+03  0.7561462E-02  0.1214733E+00
         -1   -1    0    0    0  501 -0.00000000000E+00  0.00000000000E+00  0.13685279350E+03  0.13685279350E+03  0.00000000000E+00 0.  1.
          1   -1    0    0  501    0  0.00000000000E+00 -0.00000000000E+00 -0.18303240257E+03  0.18303240257E+03  0.00000000000E+00 0. -1.
         23    2    1    2    0    0  0.90364742216E+02  0.65261986369E+02  0.21236349087E+01  0.14550881785E+03  0.93506110736E+02 0.  0.
          5    1    1    2  502    0 -0.13905075120E+01 -0.59783101628E+02  0.18686211511E+02  0.62790123841E+02  0.41800000000E+01 0. -1.
         -5    1    1    2    0  502 -0.88974234704E+02 -0.54788847408E+01 -0.66989455494E+02  0.11158625438E+03  0.41800000000E+01 0. -1.
        -11    1    3    3    0    0  0.48030236440E+02 -0.33169146185E+01  0.33894821945E+02  0.58879236491E+02  0.00000000000E+00 0.  1.
         11    1    3    3    0    0  0.42334505776E+02  0.68578900987E+02 -0.31771187037E+02  0.86629581354E+02  0.00000000000E+00 0. -1.
</event>
<event>
 7    1  0.5831876E-006  0.1314699E+03  0.7561462E-02  0.1225291E+00
         -1   -1    0    0    0  501 -0.00000000000E+00  0.00000000000E+00  0.82223763856E+02  0.82223763856E+02  0.00000000000E+00 0.  1.
          1   -1    0    0  501    0  0.00000000000E+00 -0.00000000000E+00 -0.31610870007E+03  0.31610870007E+03  0.00000000000E+00 0. -1.
         23    2    1    2    0    0 -0.86856734106E+02  0.81478746789E+02 -0.10917239390E+03  0.18529859024E+03  0.90741817920E+02 0.  0.
          5    1    1    2  502    0 -0.71276668444E+01  0.10068557288E+01  0.20041440007E+02  0.21701361954E+02  0.41800000000E+01 0. -1.
         -5    1    1    2    0  502  0.93984400950E+02 -0.82485602518E+02 -0.14475398232E+03  0.19133251172E+03  0.41800000000E+01 0. -1.
        -11    1    3    3    0    0 -0.29808456136E+02 -0.27250040862E+00  0.85753650218E+01  0.31018626645E+02  0.00000000000E+00 0.  1.
         11    1    3    3    0    0 -0.57048277970E+02  0.81751247198E+02 -0.11774775892E+03  0.15427996360E+03  0.00000000000E+00 0. -1.
</event>
<event>
 7    1  0.5831876E-006  0.1252071E+03  0.7561462E-02  0.1234746E+00
          1   -1    0    0  501    0  0.00000000000E+00  0.00000000000E+00  0.13877260185E+03  0.13877260185E+03  0.00000000000E+00 0. -1.
         -1   -1    0    0    0  501 -0.00000000000E+00 -0.00000000000E+00 -0.12193141550E+03  0.12193141550E+03  0.00000000000E+00 0.  1.
         23    2    1    2    0    0  0.16578631381E+02  0.66275862816E+01 -0.15870406650E+02  0.93880230228E+02  0.90790153112E+02 0.  0.
          5    1    1    2  502    0 -0.56020776592E+02 -0.69119254167E+02  0.11364984998E+02  0.89791057409E+02  0.41800000000E+01 0. -1.
         -5    1    1    2    0  502  0.39442145210E+02  0.62491667886E+02  0.21346607999E+02  0.77032729713E+02  0.41800000000E+01 0.  1.
        -11    1    3    3    0    0 -0.25654968667E+02  0.29666104935E+02  0.82263924187E+01  0.40074040620E+02  0.00000000000E+00 0. -1.
         11    1    3    3    0    0  0.42233600049E+02 -0.23038518654E+02 -0.24096799069E+02  0.53806189609E+02  0.00000000000E+00 0.  1.
</event>
<event>
 7    1  0.5831876E-006  0.1085147E+03  0.7561462E-02  0.1263345E+00
         -2   -1    0    0    0  501 -0.00000000000E+00  0.00000000000E+00  0.15929805015E+03  0.15929805015E+03  0.00000000000E+00 0.  1.
          2   -1    0    0  501    0  0.00000000000E+00 -0.00000000000E+00 -0.77634189613E+02  0.77634189613E+02  0.00000000000E+00 0. -1.
         23    2    1    2    0    0  0.29371023848E+01 -0.13513614119E+02  0.58009493616E+02  0.10887319938E+03  0.91088022578E+02 0.  0.
          5    1    1    2  502    0 -0.33378989041E+02 -0.46869985203E+02  0.16037100063E+02  0.59879991656E+02  0.41800000000E+01 0.  1.
         -5    1    1    2    0  502  0.30441886656E+02  0.60383599322E+02  0.76172668551E+01  0.68179048722E+02  0.41800000000E+01 0.  1.
        -11    1    3    3    0    0 -0.40685942929E+02  0.10183211180E+02  0.32496705279E+02  0.53057323679E+02  0.00000000000E+00 0.  1.
         11    1    3    3    0    0  0.43623045314E+02 -0.23696825299E+02  0.25512788337E+02  0.55815875703E+02  0.00000000000E+00 0. -1.
</event>
<event>
 7    1  0.5831876E-006  0.1128410E+03  0.7561462E-02  0.1255397E+00
          3   -1    0    0  501    0  0.00000000000E+00  0.00000000000E+00  0.38820289112E+02  0.38820289112E+02  0.00000000000E+00 0. -1.
         -3   -1    0    0    0  501 -0.00000000000E+00 -0.00000000000E+00 -0.34943928148E+03  0.34943928148E+03  0.00000000000E+00 0.  1.
         23    2    1    2    0    0 -0.31824656765E+02  0.13464107658E+02 -0.17367915407E+03  0.19959328309E+03  0.92081155100E+02 0.  0.
          5    1    1    2  502    0 -0.12676506503E+02 -0.62189500922E+02 -0.69803236953E+02  0.94436180202E+02  0.41800000000E+01 0.  1.
         -5    1    1    2    0  502  0.44501163267E+02  0.48725393264E+02 -0.67136601345E+02  0.94230107296E+02  0.41800000000E+01 0.  1.
        -11    1    3    3    0    0 -0.46615070331E+02  0.42684068964E+02 -0.92255390880E+02  0.11183001239E+03  0.00000000000E+00 0.  1.
         11    1    3    3    0    0  0.14790413566E+02 -0.29219961306E+02 -0.81423763188E+02  0.87763270699E+02  0.00000000000E+00 0. -1.
</event>
<event>
 7    1  0.5831876E-006  0.8836553E+02  0.7561462E-02  0.1306859E+00
          1   -1    0    0  501    0  0.00000000000E+00  0.00000000000E+00  0.18167592814E+03  0.18167592814E+03  0.00000000000E+00 0. -1.
         -1   -1    0    0    0  501 -0.00000000000E+00 -0.00000000000E+00 -0.66061948020E+02  0.66061948020E+02  0.00000000000E+00 0.  1.
         23    2    1    2    0    0  0.10067036020E+00 -0.16455477710E+02  0.55748239582E+02  0.10807894304E+03  0.91117500133E+02 0.  0.
          5    1    1    2  502    0 -0.32213091027E+01  0.50065377515E+02 -0.18970669233E+02  0.53798490213E+02  0.41800000000E+01 0.  1.
         -5    1    1    2    0  502  0.31206387425E+01 -0.33609899805E+02  0.78836409772E+02  0.85860442910E+02  0.41800000000E+01 0.  1.
        -11    1    3    3    0    0 -0.18737505539E+01  0.37919222893E+02  0.19308715921E+02  0.42593484437E+02  0.00000000000E+00 0.  1.
         11    1    3    3    0    0  0.19744209141E+01 -0.54374700602E+02  0.36439523661E+02  0.65485458601E+02  0.00000000000E+00 0. -1.
</event>
<event>
 7    1  0.5831876E-006  0.7489337E+02  0.7561462E-02  0.1344202E+00
          3   -1    0    0  501    0  0.00000000000E+00  0.00000000000E+00  0.75658774540E+03  0.75658774540E+03  0.00000000000E+00 0. -1.
         -3   -1    0    0    0  501 -0.00000000000E+00 -0.00000000000E+00 -0.15903253677E+02  0.15903253677E+02  0.00000000000E+00 0.  1.
         23    2    1    2    0    0  0.11363133121E+01 -0.16900346918E+02  0.29794278248E+03  0.31210896993E+03  0.91406753275E+02 0.  0.
          5    1    1    2  502    0 -0.14396423563E+02  0.33288332543E+02  0.43647038564E+03  0.43799456622E+03  0.41800000000E+01 0.  1.
         -5    1    1    2    0  502  0.13260110251E+02 -0.16387985625E+02  0.62713236016E+01  0.22387462929E+02  0.41800000000E+01 0.  1.
        -11    1    3    3    0    0 -0.40751274965E+02  0.10058585070E+02  0.16121822408E+03  0.16659278892E+03  0.00000000000E+00 0.  1.
         11    1    3    3    0    0  0.41887588277E+02 -0.26958931988E+02  0.13672455841E+03  0.14551618101E+03  0.00000000000E+00 0. -1.
</event>
<event>
 7    1  0.5831876E-006  0.1213970E+03  0.7561462E-02  0.1240810E+00
         -2   -1    0    0    0  501 -0.00000000000E+00  0.00000000000E+00  0.11060217269E+02  0.11060217269E+02  0.00000000000E+00 0.  1.
          2   -1    0    0  501    0  0.00000000000E+00 -0.00000000000E+00 -0.19953745752E+04  0.19953745752E+04  0.00000000000E+00 0. -1.
         23    2    1    2    0    0  0.66482424599E+01  0.25638916454E+02 -0.30937496989E+03  0.32324236062E+03  0.89839849419E+02 0.  0.
          5    1    1    2  502    0 -0.49473988549E+02 -0.81081503979E+02 -0.10623785510E+04  0.10666243687E+04  0.41800000000E+01 0. -1.
         -5    1    1    2    0  502  0.42825746089E+02  0.55442587525E+02 -0.61256083704E+03  0.61656806317E+03  0.41800000000E+01 0.  1.
        -11    1    3    3    0    0 -0.25808064569E+02  0.35250074672E+02 -0.25830229003E+03  0.26197079417E+03  0.00000000000E+00 0.  1.
         11    1    3    3    0    0  0.32456307029E+02 -0.96111582176E+01 -0.51072679854E+02  0.61271566454E+02  0.00000000000E+00 0. -1.
</event>
<event>
 7    1  0.5831876E-006  0.1349918E+03  0.7561462E-02  0.1220231E+00
         -2   -1    0    0    0  501 -0.00000000000E+00  0.00000000000E+00  0.14802651315E+03  0.14802651315E+03  0.00000000000E+00 0.  1.
          2   -1    0    0  501    0  0.00000000000E+00 -0.00000000000E+00 -0.19184827708E+03  0.19184827708E+03  0.00000000000E+00 0. -1.
         23    2    1    2    0    0 -0.67087547340E+02  0.96501521901E+02  0.28858661860E+02  0.15348190578E+03  0.94395923110E+02 0.  0.
          5    1    1    2  502    0  0.56477020314E+02 -0.52439061212E+02  0.22918405263E+02  0.80512326162E+02  0.41800000000E+01 0.  1.
         -5    1    1    2    0  502  0.10610527027E+02 -0.44062460689E+02 -0.95598831049E+02  0.10588055829E+03  0.41800000000E+01 0.  1.
        -11    1    3    3    0    0 -0.59334612184E+02  0.96778152479E+01 -0.41748503590E+01  0.60263468922E+02  0.00000000000E+00 0. -1.
         11    1    3    3    0    0 -0.77529351562E+01  0.86823706653E+02  0.33033512219E+02  0.93218436857E+02  0.00000000000E+00 0.  1.
</event>
<event>
 7    1  0.5831876E-006  0.1432379E+03  0.7561462E-02  0.1209037E+00
         -2   -1    0    0    0  501 -0.00000000000E+00  0.00000000000E+00  0.40951642574E+02  0.40951642574E+02  0.00000000000E+00 0.  1.
          2   -1    0    0  501    0  0.00000000000E+00 -0.00000000000E+00 -0.58678858432E+03  0.58678858432E+03  0.00000000000E+00 0. -1.
         23    2    1    2    0    0 -0.95846466520E+02  0.49867913568E+02 -0.25540603849E+03  0.29356869772E+03  0.96317090041E+02 0.  0.
          5    1    1    2  502    0 -0.41187730439E+00 -0.59891255384E+02 -0.63287408014E+02  0.87234743809E+02  0.41800000000E+01 0.  1.
         -5    1    1    2    0  502  0.96258343825E+02  0.10023341816E+02 -0.22714349523E+03  0.24693678536E+03  0.41800000000E+01 0.  1.
        -11    1    3    3    0    0 -0.60227540681E+02 -0.88673865567E+01 -0.56199951300E+02  0.82851805816E+02  0.00000000000E+00 0.  1.
         11    1    3    3    0    0 -0.35618925839E+02  0.58735300124E+02 -0.19920608719E+03  0.21071689190E+03  0.00000000000E+00 0. -1.
</event>
<event>
 7    1  0.5831876E-006  0.9055364E+02  0.7561462E-02  0.1301516E+00
          1   -1    0    0  501    0  0.00000000000E+00  0.00000000000E+00  0.24850457510E+03  0.24850457510E+03  0.00000000000E+00 0. -1.
         -1   -1    0    0    0  501 -0.00000000000E+00 -0.00000000000E+00 -0.79629941659E+02  0.79629941659E+02  0.00000000000E+00 0.  1.
         23    2    1    2    0    0 -0.57593522116E+02 -0.59764345249E+02  0.45097988632E+02  0.13356606495E+03  0.94431320944E+02 0.  0.
          5    1    1    2  502    0 -0.41359451581E+01  0.14333351231E+02 -0.23698301598E+02  0.28313122373E+02  0.41800000000E+01 0. -1.
         -5    1    1    2    0  502  0.61729467274E+02  0.45430994018E+02  0.14747494641E+03  0.16625532943E+03  0.41800000000E+01 0. -1.
        -11    1    3    3    0    0 -0.24916675065E+02 -0.48079170004E+02  0.71691497800E+02  0.89844967257E+02  0.00000000000E+00 0. -1.
         11    1    3    3    0    0 -0.32676847051E+02 -0.11685175244E+02 -0.26593509168E+02  0.43721097694E+02  0.00000000000E+00 0.  1.
</event>
<event>
 7    1  0.5831876E-006  0.2243584E+03  0.7561462E-02  0.1130675E+00
         -2   -1    0    0    0  501 -0.00000000000E+00  0.00000000000E+00  0.21906959091E+02  0.21906959091E+02  0.00000000000E+00 0.  1.
          2   -1    0    0  501    0  0.00000000000E+00 -0.00000000000E+00 -0.31164651021E+04  0.31164651021E+04  0.00000000000E+00 0. -1.
         23    2    1    2    0    0 -0.19125934125E+03 -0.11401496854E+03 -0.99819874199E+03  0.10265138475E+04  0.88036366731E+02 0.  0.
          5    1    1    2  502    0  0.19013715845E+03  0.11374187501E+03 -0.15783296905E+04  0.15938103518E+04  0.41800000000E+01 0. -1.
         -5    1    1    2    0  502  0.11221828027E+01  0.27309353597E+00 -0.51802971052E+03  0.51804786194E+03  0.41800000000E+01 0. -1.
        -11    1    3    3    0    0 -0.56513454835E+02 -0.29920832669E+02 -0.14237684370E+03  0.15607752057E+03  0.00000000000E+00 0.  1.
         11    1    3    3    0    0 -0.13474588642E+03 -0.84094135875E+02 -0.85582189829E+03  0.87043632690E+03  0.00000000000E+00 0. -1.
</event>
<event>
 7    1  0.5831876E-006  0.8325520E+02  0.7561462E-02  0.1320059E+00
         -1   -1    0    0    0  501 -0.00000000000E+00  0.00000000000E+00  0.42532756505E+02  0.42532756505E+02  0.00000000000E+00 0. -1.
          1   -1    0    0  501    0  0.00000000000E+00 -0.00000000000E+00 -0.34965570503E+03  0.34965570503E+03  0.00000000000E+00 0.  1.
         23    2    1    2    0    0 -0.25568864274E+02  0.39530957214E+02 -0.88193903262E+02  0.13568928464E+03  0.91743958905E+02 0.  0.
          5    1    1    2  502    0  0.57190270029E+02 -0.72587307081E+01 -0.36154437234E+02  0.68176476068E+02  0.41800000000E+01 0. -1.
         -5    1    1    2    0  502 -0.31621405755E+02 -0.32272226506E+02 -0.18277460803E+03  0.18832270083E+03  0.41800000000E+01 0. -1.
        -11    1    3    3    0    0 -0.37516062526E+02  0.30753062377E+02 -0.23415790810E+01  0.48566333870E+02  0.00000000000E+00 0. -1.
         11    1    3    3    0    0  0.11947198252E+02  0.87778948371E+01 -0.85852324181E+02  0.87122950771E+02  0.00000000000E+00 0.  1.
</event>
<event>
 7    1  0.5831876E-006  0.9398495E+02  0.7561462E-02  0.1293479E+00
          2   -1    0    0  501    0  0.00000000000E+00  0.00000000000E+00  0.56031048557E+02  0.56031048557E+02  0.00000000000E+00 0.  1.
         -2   -1    0    0    0  501 -0.00000000000E+00 -0.00000000000E+00 -0.28084813122E+03  0.28084813122E+03  0.00000000000E+00 0. -1.
         23    2    1    2    0    0  0.91641699795E+01 -0.30002095397E+01 -0.18252341549E+03  0.20447955356E+03  0.91673918603E+02 0.  0.
          5    1    1    2  502    0  0.41224153807E+02 -0.15083196347E+02 -0.61234557915E+02  0.75459109140E+02  0.41800000000E+01 0. -1.
         -5    1    1    2    0  502 -0.50388323786E+02  0.18083405887E+02  0.18940890747E+02  0.56940517075E+02  0.41800000000E+01 0. -1.
        -11    1    3    3    0    0 -0.37161327047E+02 -0.18256356053E+02 -0.62994082368E+02  0.75382446084E+02  0.00000000000E+00 0.  1.
         11    1    3    3    0    0  0.46325497027E+02  0.15256146513E+02 -0.11952933312E+03  0.12909710747E+03  0.00000000000E+00 0. -1.
</event>
<event>
 7    1  0.5831876E-006  0.1437778E+03  0.7561462E-02  0.1208334E+00
          2   -1    0    0  501    0  0.00000000000E+00  0.00000000000E+00  0.54171533663E+03  0.54171533663E+03  0.00000000000E+00 0. -1.
         -2   -1    0    0    0  501 -0.00000000000E+00 -0.00000000000E+00 -0.50075850443E+02  0.50075850443E+02  0.00000000000E+00 0.  1.
         23    2    1    2    0    0  0.72732096887E+02  0.81647215717E+02  0.11785899041E+03  0.18274909325E+03  0.86892253445E+02 0.  0.
          5    1    1    2  502    0 -0.71380857367E+02 -0.11152682746E+03  0.26681064122E+03  0.29789066905E+03  0.41800000000E+01 0.  1.
         -5    1    1    2    0  502 -0.13512395194E+01  0.29879611743E+02  0.10696985456E+03  0.11115142478E+03  0.41800000000E+01 0.  1.
        -11    1    3    3    0    0  0.76980162396E+02  0.47481059639E+02  0.11754987040E+03  0.14831846971E+03  0.00000000000E+00 0. -1.
         11    1    3    3    0    0 -0.42480655087E+01  0.34166156078E+02  0.30912001512E+00  0.34430623533E+02  0.00000000000E+00 0.  1.
</event>
<event>
 7    1  0.5831876E-006  0.7743869E+02  0.7561462E-02  0.1336481E+00
          2   -1    0    0  501    0  0.00000000000E+00  0.00000000000E+00  0.58554438220E+03  0.58554438220E+03  0.00000000000E+00 0. -1.
         -2   -1    0    0    0  501 -0.00000000000E+00 -0.00000000000E+00 -0.66630748385E+02  0.66630748385E+02  0.00000000000E+00 0.  1.
         23    2    1    2    0    0 -0.14890341185E+02  0.17983889678E+02 -0.23446763309E+02  0.94197991487E+02  0.88195058489E+02 0.  0.
          5    1    1    2  502    0  0.80399690219E+01  0.26892387612E+02  0.47943065775E+03  0.48026978835E+03  0.41800000000E+01 0. -1.
         -5    1    1    2    0  502  0.68503721632E+01 -0.44876277290E+02  0.62929739373E+02  0.77707350745E+02  0.41800000000E+01 0.  1.
        -11    1    3    3    0    0  0.21286274664E+02  0.34974830178E+02  0.99257573719E+01  0.42129145427E+02  0.00000000000E+00 0.  1.
         11    1    3    3    0    0 -0.36176615849E+02 -0.16990940500E+02 -0.33372520680E+02  0.52068846059E+02  0.00000000000E+00 0. -1.
</event>
<event>
 7    1  0.5831876E-006  0.1604092E+03  0.7561462E-02  0.1188235E+00
         -1   -1    0    0    0  501 -0.00000000000E+00  0.00000000000E+00  0.20814175230E+02  0.20814175230E+02  0.00000000000E+00 0.  1.
          1   -1    0    0  501    0  0.00000000000E+00 -0.00000000000E+00 -0.15848022411E+04  0.15848022411E+04  0.00000000000E+00 0. -1.
         23    2    1    2    0    0  0.13073227940E+03  0.63824613806E+02 -0.63384262311E+03  0.65588860171E+03  0.85257708021E+02 0.  0.
          5    1    1    2  502    0 -0.12073522223E+02 -0.24146048895E+02 -0.28667943288E+02  0.39599557933E+02  0.41800000000E+01 0.  1.
         -5    1    1    2    0  502 -0.11865875717E+03 -0.39678564911E+02 -0.90147749947E+03  0.91012825669E+03  0.41800000000E+01 0.  1.
        -11    1    3    3    0    0  0.36682965983E+02 -0.20477799037E+02 -0.14161747895E+03  0.14771760420E+03  0.00000000000E+00 0. -1.
         11    1    3    3    0    0  0.94049313412E+02  0.84302412844E+02 -0.49222514416E+03  0.50817099751E+03  0.00000000000E+00 0.  1.
</event>
<event>
 7    1  0.5831876E-006  0.8871830E+02  0.7561462E-02  0.1305986E+00
          2   -1    0    0  501    0  0.00000000000E+00  0.00000000000E+00  0.16223478335E+03  0.16223478335E+03  0.00000000000E+00 0.  1.
         -2   -1    0    0    0  501 -0.00000000000E+00 -0.00000000000E+00 -0.73691489970E+02  0.73691489970E+02  0.00000000000E+00 0. -1.
         23    2    1    2    0    0 -0.11055371021E+02 -0.65916170994E+01  0.29716983864E+02  0.97096547832E+02  0.91536712998E+02 0.  0.
          5    1    1    2  502    0  0.63705919638E+02  0.72653860553E+01  0.57133326203E+02  0.85982087637E+02  0.41800000000E+01 0. -1.
         -5    1    1    2    0  502 -0.52650548617E+02 -0.67376895592E+00  0.16929833171E+01  0.52847637855E+02  0.41800000000E+01 0. -1.
        -11    1    3    3    0    0 -0.34727796968E+02  0.29176098543E+01 -0.20741697232E+02  0.40555521617E+02  0.00000000000E+00 0. -1.
         11    1    3    3    0    0  0.23672425948E+02 -0.95092269538E+01  0.50458681096E+02  0.56541026215E+02  0.00000000000E+00 0.  1.
</event>
<event>
 7    1  0.5831876E-006  0.2154561E+03  0.7561462E-02  0.1137317E+00
          1   -1    0    0  501    0  0.00000000000E+00  0.00000000000E+00  0.79585292668E+03  0.79585292668E+03  0.00000000000E+00 0. -1.
         -1   -1    0    0    0  501 -0.00000000000E+00 -0.00000000000E+00 -0.65356949683E+02  0.65356949683E+02  0.00000000000E+00 0.  1.
         23    2    1    2    0    0  0.19420277442E+03  0.29702409362E+02  0.28085860218E+03  0.35482766289E+03  0.91783251329E+02 0.  0.
          5    1    1    2  502    0 -0.17267643652E+03 -0.59118768964E+02  0.29076135602E+03  0.34332465558E+03  0.41800000000E+01 0. -1.
         -5    1    1    2    0  502 -0.21526337893E+02  0.29416359602E+02  0.15887601880E+03  0.16305755789E+03  0.41800000000E+01 0. -1.
        -11    1    3    3    0    0  0.89117648099E+02 -0.25852032360E+02  0.85659456696E+02  0.12628469939E+03  0.00000000000E+00 0.  1.
         11    1    3    3    0    0  0.10508512632E+03  0.55554441722E+02  0.19519914548E+03  0.22854296350E+03  0.00000000000E+00 0. -1.
</event>
<event>
 7    1  0.5831876E-006  0.1195524E+03  0.7561462E-02  0.1243837E+00
          1   -1    0    0  501    0  0.00000000000E+00  0.00000000000E+00  0.44143391847E+02  0.44143391847E+02  0.00000000000E+00 0. -1.
         -1   -1    0    0    0  501 -0.00000000000E+00 -0.00000000000E+00 -0.54025136426E+03  0.54025136426E+03  0.00000000000E+00 0.  1.
         23    2    1    2    0    0 -0.80202823774E+02  0.19103798972E+01 -0.37148230747E+03  0.39045609180E+03  0.89558429921E+02 0.  0.
          5    1    1    2  502    0 -0.22021716664E+02 -0.14397535075E+02  0.62365973413E+01  0.27360785213E+02  0.41800000000E+01 0. -1.
         -5    1    1    2    0  502  0.10222454044E+03  0.12487155178E+02 -0.13086226229E+03  0.16657787909E+03  0.41800000000E+01 0. -1.
        -11    1    3    3    0    0 -0.66297828389E+01 -0.28885646746E+02 -0.41654178818E+02  0.51121475149E+02  0.00000000000E+00 0. -1.
         11    1    3    3    0    0 -0.73573040936E+02  0.30796026643E+02 -0.32982812865E+03  0.33933461665E+03  0.00000000000E+00 0.  1.
</event>
<event>
 7    1  0.5831876E-006  0.1392464E+03  0.7561462E-02  0.1214347E+00
          1   -1    0    0  501    0  0.00000000000E+00  0.00000000000E+00  0.44980096375E+03  0.44980096375E+03  0.00000000000E+00 0. -1.
         -1   -1    0    0    0  501 -0.00000000000E+00 -0.00000000000E+00 -0.56767962685E+02  0.56767962685E+02  0.00000000000E+00 0.  1.
         23    2    1    2    0    0 -0.24413699644E+02  0.11391572489E+03  0.17105467621E+03  0.22640061773E+03  0.91786253582E+02 0.  0.
          5    1    1    2  502    0  0.52301494196E+02 -0.33778785206E+02  0.27985734911E+02  0.68389519546E+02  0.41800000000E+01 0.  1.
         -5    1    1    2    0  502 -0.27887794553E+02 -0.80136939680E+02  0.19399258995E+03  0.21177878916E+03  0.41800000000E+01 0.  1.
        -11    1    3    3    0    0 -0.37685013703E+02  0.36057430973E+02  0.12385920980E+03  0.13439271721E+03  0.00000000000E+00 0. -1.
         11    1    3    3    0    0  0.13271314060E+02  0.77858293913E+02  0.47195466408E+02  0.92007900516E+02  0.00000000000E+00 0.  1.
</event>
<event>
 7    1  0.5831876E-006  0.1124173E+03  0.7561462E-02  0.1256158E+00
          1   -1    0    0  501    0  0.00000000000E+00  0.00000000000E+00  0.69012807462E+03  0.69012807462E+03  0.00000000000E+00 0. -1.
         -1   -1    0    0    0  501 -0.00000000000E+00 -0.00000000000E+00 -0.28618813475E+02  0.28618813475E+02  0.00000000000E+00 0.  1.
         23    2    1    2    0    0 -0.32904389815E+02  0.16889958306E+02  0.93840144512E+02  0.13628330486E+03  0.91647132532E+02 0.  0.
          5    1    1    2  502    0 -0.39296634582E+02  0.20578144586E+02  0.13404314855E+03  0.14125411002E+03  0.41800000000E+01 0.  1.
         -5    1    1    2    0  502  0.72201024397E+02 -0.37468102892E+02  0.43362596808E+03  0.44120947321E+03  0.41800000000E+01 0.  1.
        -11    1    3    3    0    0 -0.58790206015E+02 -0.12037278333E+02  0.56712170999E+02  0.82567879544E+02  0.00000000000E+00 0.  1.
         11    1    3    3    0    0  0.25885816200E+02  0.28927236639E+02  0.37127973512E+02  0.53715425317E+02  0.00000000000E+00 0. -1.
</event>
<event>
 7    1  0.5831876E-006  0.9856095E+02  0.7561462E-02  0.1283351E+00
         -1   -1    0    0    0  501 -0.00000000000E+00  0.00000000000E+00  0.19059848159E+03  0.19059848159E+03  0.00000000000E+00 0.  1.
          1   -1    0    0  501    0  0.00000000000E+00 -0.00000000000E+00 -0.60637444349E+02  0.60637444349E+02  0.00000000000E+00 0. -1.
         23    2    1    2    0    0 -0.20888997438E+02 -0.26379319726E+02  0.65904311379E+02  0.11804550405E+03  0.91973605156E+02 0.  0.
          5    1    1    2  502    0  0.58410549473E+02 -0.11541356721E+02  0.17332995077E+02  0.62152235061E+02  0.41800000000E+01 0. -1.
         -5    1    1    2    0  502 -0.37521552035E+02  0.37920676447E+02  0.46723730790E+02  0.71038186831E+02  0.41800000000E+01 0.  1.
        -11    1    3    3    0    0  0.28130187952E+02  0.26830077534E+00 -0.42058198085E+01  0.28444127334E+02  0.00000000000E+00 0. -1.
         11    1    3    3    0    0 -0.49019185390E+02 -0.26647620502E+02  0.70110131188E+02  0.89601376719E+02  0.00000000000E+00 0.  1.
</event>
<event>
 7    1  0.5831876E-006  0.2230482E+03  0.7561462E-02  0.1131631E+00
          1   -1    0    0  501    0  0.00000000000E+00  0.00000000000E+00  0.40365779870E+03  0.40365779870E+03  0.00000000000E+00 0. -1.
         -1   -1    0    0    0  501 -0.00000000000E+00 -0.00000000000E+00 -0.14784319842E+03  0.14784319842E+03  0.00000000000E+00 0.  1.
         23    2    1    2    0    0 -0.86244272408E+02 -0.18590144035E+03  0.40600358604E+02  0.22906889227E+03  0.93950775622E+02 0.  0.
          5    1    1    2  502    0 -0.15529584838E+02  0.75238875346E+01 -0.76595477681E+01  0.19336958419E+02  0.41800000000E+01 0.  1.
         -5    1    1    2    0  502  0.10177385725E+03  0.17837755281E+03  0.22287378945E+03  0.30309514643E+03  0.41800000000E+01 0.  1.
        -11    1    3    3    0    0 -0.18141752651E+02 -0.13914164821E+03  0.41923140583E+02  0.14644818597E+03  0.00000000000E+00 0. -1.
         11    1    3    3    0    0 -0.68102519756E+02 -0.46759792135E+02 -0.13227819796E+01  0.82620706302E+02  0.00000000000E+00 0.  1.
</event>
<event>
 7    1  0.5831876E-006  0.1884764E+03  0.7561462E-02  0.1159843E+00
          1   -1    0    0  501    0  0.00000000000E+00  0.00000000000E+00  0.22673043089E+03  0.22673043089E+03  0.00000000000E+00 0. -1.
         -1   -1    0    0    0  501 -0.00000000000E+00 -0.00000000000E+00 -0.28446996096E+03  0.28446996096E+03  0.00000000000E+00 0.  1.
         23    2    1    2    0    0  0.94742263569E+02 -0.15984317610E+03 -0.16094913786E+03  0.26457146439E+03  0.97813584648E+02 0.  0.
          5    1    1    2  502    0 -0.15827897604E+02  0.52437642847E+01 -0.25321719082E+02  0.30605248956E+02  0.41800000000E+01 0.  1.
         -5    1    1    2    0  502 -0.78914365965E+02  0.15459941181E+03  0.12853132687E+03  0.21602367851E+03  0.41800000000E+01 0.  1.
        -11    1    3    3    0    0  0.44728945179E+02 -0.86242991389E+02 -0.22066026813E+02  0.99626510728E+02  0.00000000000E+00 0. -1.
         11    1    3    3    0    0  0.50013318390E+02 -0.73600184707E+02 -0.13888311104E+03  0.16494495366E+03  0.00000000000E+00 0.  1.
</event>
<event>
 7    1  0.5831876E-006  0.9406748E+02  0.7561462E-02  0.1293290E+00
         -1   -1    0    0    0  501 -0.00000000000E+00  0.00000000000E+00  0.35100274618E+02  0.35100274618E+02  0.00000000000E+00 0.  1.
          1   -1    0    0  501    0  0.00000000000E+00 -0.00000000000E+00 -0.34512380424E+03  0.34512380424E+03  0.00000000000E+00 0. -1.
         23    2    1    2    0    0 -0.38807364859E+01  0.28891735484E+01 -0.10448830757E+03  0.13956724030E+03  0.92400220272E+02 0.  0.
          5    1    1    2  502    0  0.12989922590E+02  0.47160567502E+02 -0.29288919958E+02  0.57167914500E+02  0.41800000000E+01 0. -1.
         -5    1    1    2    0  502 -0.91091861038E+01 -0.50049741051E+02 -0.17624630209E+03  0.18348892406E+03  0.41800000000E+01 0. -1.
        -11    1    3    3    0    0 -0.32015765759E+02 -0.30579457524E+02 -0.74107370242E+02  0.86325053164E+02  0.00000000000E+00 0. -1.
         11    1    3    3    0    0  0.28135029273E+02  0.33468631072E+02 -0.30380937332E+02  0.53242187138E+02  0.00000000000E+00 0.  1.
</event>
<event>
 7    1  0.5831876E-006  0.1147014E+03  0.7561462E-02  0.1252103E+00
         -2   -1    0    0    0  501 -0.00000000000E+00  0.00000000000E+00  0.75247824886E+02  0.75247824886E+02  0.00000000000E+00 0.  1.
          2   -1    0    0  501    0  0.00000000000E+00 -0.00000000000E+00 -0.26673613870E+03  0.26673613870E+03  0.00000000000E+00 0. -1.
         23    2    1    2    0    0 -0.95414264804E+01 -0.79653363910E+02 -0.23981595251E+02  0.11806193772E+03  0.83233448957E+02 0.  0.
          5    1    1    2  502    0 -0.52424401632E+02  0.10454126621E+02 -0.44215031982E+02  0.69498547489E+02  0.41800000000E+01 0.  1.
         -5    1    1    2    0  502  0.61965828112E+02  0.69199237289E+02 -0.12329168658E+03  0.15442347838E+03  0.41800000000E+01 0.  1.
        -11    1    3    3    0    0  0.33620771730E+01 -0.53809101355E+02 -0.54066813154E+02  0.76354064961E+02  0.00000000000E+00 0. -1.
         11    1    3    3    0    0 -0.12903503653E+02 -0.25844262556E+02  0.30085217903E+02  0.41707872756E+02  0.00000000000E+00 0.  1.
</event>
<event>
 7    1  0.5831876E-006  0.1336513E+03  0.7561462E-02  0.1222136E+00
          2   -1    0    0  501    0  0.00000000000E+00  0.00000000000E+00  0.71775250105E+02  0.71775250105E+02  0.00000000000E+00 0. -1.
         -2   -1    0    0    0  501 -0.00000000000E+00 -0.00000000000E+00 -0.32508511160E+03  0.32508511160E+03  0.00000000000E+00 0.  1.
         23    2    1    2    0    0  0.32749667717E+02 -0.90382150301E+02 -0.17157023082E+03  0.21916649197E+03  0.96727107227E+02 0.  0.
          5    1    1    2  502    0  0.34252652562E+02 -0.72498913620E+01 -0.29075941812E+01  0.35379819618E+02  0.41800000000E+01 0.  1.
         -5    1    1    2    0  502 -0.67002320278E+02  0.97632041663E+02 -0.78832036499E+02  0.14231405012E+03  0.41800000000E+01 0.  1.
        -11    1    3    3    0    0  0.30148785100E+02 -0.80785842312E+01 -0.11525495257E+03  0.11940651933E+03  0.00000000000E+00 0.  1.
         11    1    3    3    0    0  0.26008826161E+01 -0.82303566070E+02 -0.56315278250E+02  0.99759972647E+02  0.00000000000E+00 0. -1.
</event>
<event>
 7    1  0.5831876E-006  0.9146695E+02  0.7561462E-02  0.1299338E+00
         -1   -1    0    0    0  501 -0.00000000000E+00  0.00000000000E+00  0.11941738248E+03  0.11941738248E+03  0.00000000000E+00 0. -1.
          1   -1    0    0  501    0  0.00000000000E+00 -0.00000000000E+00 -0.46580442677E+03  0.46580442677E+03  0.00000000000E+00 0.  1.
         23    2    1    2    0    0  0.96132205333E+01 -0.72667698751E+02  0.75620145798E+02  0.13900361213E+03  0.90722595216E+02 0.  0.
          5    1    1    2  502    0 -0.27864789677E+02  0.59722078485E+02 -0.41790232027E+03  0.42308745532E+03  0.41800000000E+01 0. -1.
         -5    1    1    2    0  502  0.18251569144E+02  0.12945620266E+02 -0.41048698132E+01  0.23130741805E+02  0.41800000000E+01 0. -1.
        -11    1    3    3    0    0  0.28488785355E+02 -0.12562283111E+02 -0.10001151474E+02  0.32702368092E+02  0.00000000000E+00 0.  1.
         11    1    3    3    0    0 -0.18875564822E+02 -0.60105415640E+02  0.85621297272E+02  0.10630124403E+03  0.00000000000E+00 0. -1.
</event>
<event>
 7    1  0.5831876E-006  0.1062334E+03  0.7561462E-02  0.1267708E+00
          2   -1    0    0  501    0  0.00000000000E+00  0.00000000000E+00  0.63521567674E+03  0.63521567674E+03  0.00000000000E+00 0. -1.
         -2   -1    0    0    0  501 -0.00000000000E+00 -0.00000000000E+00 -0.26302148751E+02  0.26302148751E+02  0.00000000000E+00 0.  1.
         23    2    1    2    0    0 -0.65817257999E+02 -0.10682542354E+01  0.21085559338E+03  0.23911092228E+03  0.91547251597E+02 0.  0.
          5    1    1    2  502    0  0.74206691799E+02 -0.49546316265E+02  0.26991984383E+03  0.28431613577E+03  0.41800000000E+01 0.  1.
         -5    1    1    2    0  502 -0.83894338007E+01  0.50614570500E+02  0.12813809078E+03  0.13809076745E+03  0.41800000000E+01 0.  1.
        -11    1    3    3    0    0 -0.34242800859E+02 -0.14713365123E+02  0.14865311739E+02  0.40125179339E+02  0.00000000000E+00 0.  1.
         11    1    3    3    0    0 -0.31574457139E+02  0.13645110887E+02  0.19599028164E+03  0.19898574294E+03  0.00000000000E+00 0. -1.
</event>
<event>
 7    1  0.5831876E-006  0.1275048E+03  0.7561462E-02  0.1231206E+00
         -2   -1    0    0    0  501 -0.00000000000E+00  0.00000000000E+00  0.81771875535E+02  0.81771875535E+02  0.00000000000E+00 0.  1.
          2   -1    0    0  501    0  0.00000000000E+00 -0.00000000000E+00 -0.26968728741E+03  0.26968728741E+03  0.00000000000E+00 0. -1.
         23    2    1    2    0    0  0.10030107805E+03  0.10712554182E+01 -0.97206215873E+02  0.16723679278E+03  0.91965442463E+02 0.  0.
          5    1    1    2  502    0 -0.63182135021E+02 -0.50697393115E+02 -0.90408669526E+01  0.81617507495E+02  0.41800000000E+01 0. -1.
         -5    1    1    2    0  502 -0.37118943031E+02  0.49626137696E+02 -0.81668329047E+02  0.10260486267E+03  0.41800000000E+01 0. -1.
        -11    1    3    3    0    0  0.40009872674E+02  0.24705928140E+02  0.38839833019E+01  0.47183239852E+02  0.00000000000E+00 0.  1.
         11    1    3    3    0    0  0.60291205378E+02 -0.23634672722E+02 -0.10109019918E+03  0.12005355293E+03  0.00000000000E+00 0. -1.
</event>
<event>
 7    1  0.5831876E-006  0.2269720E+03  0.7561462E-02  0.1128789E+00
          2   -1    0    0  501    0  0.00000000000E+00  0.00000000000E+00  0.52859819390E+03  0.52859819390E+03  0.00000000000E+00 0. -1.
         -2   -1    0    0    0  501 -0.00000000000E+00 -0.00000000000E+00 -0.13104742172E+03  0.13104742172E+03  0.00000000000E+00 0.  1.
         23    2    1    2    0    0  0.19415273644E+03  0.79154957621E+02  0.48153649661E+02  0.23339876829E+03  0.90528551760E+02 0.  0.
          5    1    1    2  502    0 -0.20498783176E+02 -0.62829062439E+02  0.13037213541E+03  0.14622604861E+03  0.41800000000E+01 0.  1.
         -5    1    1    2    0  502 -0.17365395326E+03 -0.16325895182E+02  0.21902498710E+03  0.28002079871E+03  0.41800000000E+01 0.  1.
        -11    1    3    3    0    0  0.98745853425E+02  0.19267022043E+02 -0.18811560974E+02  0.10235153410E+03  0.00000000000E+00 0.  1.
         11    1    3    3    0    0  0.95406883012E+02  0.59887935577E+02  0.66965210635E+02  0.13104723419E+03  0.00000000000E+00 0. -1.
</event>
<event>
 6    1  0.5831876E-006  0.1382770E+03  0.7561462E-02  0.1215666E+00
         -2   -1    0    0    0  501 -0.00000000000E+00  0.00000000000E+00  0.86646651209E+02  0.86646651209E+02  0.00000000000E+00 0.  1.
          2   -1    0    0  501    0  0.00000000000E+00 -0.00000000000E+00 -0.26242696975E+03  0.26242696975E+03  0.00000000000E+00 0. -1.
          5    1    1    2  502    0  0.27368538872E+02  0.75747334046E+02 -0.10794277581E+03  0.13474349997E+03  0.41800000000E+01 0. -1.
         -5    1    1    2    0  502 -0.95671045899E+01 -0.46227237350E+02 -0.39815054216E+02  0.61896671199E+02  0.41800000000E+01 0. -1.
        -11    1    1    2    0    0 -0.81459636278E+02 -0.10880874093E+02 -0.25524268050E+02  0.86055528719E+02  0.00000000000E+00 0.  1.
         11    1    1    2    0    0  0.63658201997E+02 -0.18639222603E+02 -0.24982204715E+01  0.66377921075E+02  0.00000000000E+00 0. -1.
</event>
<event>
 7    1  0.5831876E-006  0.1108128E+03  0.7561462E-02  0.1259072E+00
         -2   -1    0    0    0  501 -0.00000000000E+00  0.00000000000E+00  0.51453709979E+02  0.51453709979E+02  0.00000000000E+00 0.  1.
          2   -1    0    0  501    0  0.00000000000E+00 -0.00000000000E+00 -0.37757925114E+03  0.37757925114E+03  0.00000000000E+00 0. -1.
         23    2    1    2    0    0 -0.32544489752E+02 -0.78922369494E+02 -0.12601718165E+03  0.17807669461E+03  0.92428863856E+02 0.  0.
          5    1    1    2  502    0  0.34693877536E+02  0.26852570562E+02  0.62559666452E-01  0.44070420896E+02  0.41800000000E+01 0. -1.
         -5    1    1    2    0  502 -0.21493877841E+01  0.52069798932E+02 -0.20017091917E+03  0.20688584561E+03  0.41800000000E+01 0. -1.
        -11    1    3    3    0    0  0.27861797258E+02 -0.52305434018E+02 -0.67929496605E+02  0.90147405305E+02  0.00000000000E+00 0.  1.
         11    1    3    3    0    0 -0.60406287009E+02 -0.26616935476E+02 -0.58087685045E+02  0.87929289308E+02  0.00000000000E+00 0. -1.
</event>
<event>
 6    1  0.5831876E-006  0.5466783E+02  0.7561462E-02  0.1421676E+00
         -1   -1    0    0    0  501 -0.00000000000E+00  0.00000000000E+00  0.18138449703E+02  0.18138449703E+02  0.00000000000E+00 0.  1.
          1   -1    0    0  501    0  0.00000000000E+00 -0.00000000000E+00 -0.32563847758E+03  0.32563847758E+03  0.00000000000E+00 0. -1.
          5    1    1    2  502    0 -0.19283753412E+02 -0.25636776869E+02 -0.23359907066E+03  0.23582855147E+03  0.41800000000E+01 0. -1.
         -5    1    1    2    0  502  0.33403826762E+02  0.38136741133E+02 -0.53365728260E+02  0.73726521818E+02  0.41800000000E+01 0.  1.
        -11    1    1    2    0    0 -0.14327555315E+02 -0.73272253952E+00 -0.60800456060E+01  0.15581485109E+02  0.00000000000E+00 0. -1.
         11    1    1    2    0    0  0.20748196417E+00 -0.11767241725E+02 -0.14455183348E+02  0.18640368886E+02  0.00000000000E+00 0.  1.
</event>
<event>
 7    1  0.5831876E-006  0.1307008E+03  0.7561462E-02  0.1226420E+00
         -2   -1    0    0    0  501 -0.00000000000E+00  0.00000000000E+00  0.21615648692E+02  0.21615648692E+02  0.00000000000E+00 0.  1.
          2   -1    0    0  501    0  0.00000000000E+00 -0.00000000000E+00 -0.94884702519E+03  0.94884702519E+03  0.00000000000E+00 0. -1.
         23    2    1    2    0    0  0.84883504046E+02  0.35794287568E+02 -0.38897418412E+03  0.41023539657E+03  0.92226484265E+02 0.  0.
          5    1    1    2  502    0 -0.82724761493E+02  0.13305309672E+02 -0.17999047744E+03  0.19858112146E+03  0.41800000000E+01 0.  1.
         -5    1    1    2    0  502 -0.21587425536E+01 -0.49099597240E+02 -0.35826671493E+03  0.36164615586E+03  0.41800000000E+01 0.  1.
        -11    1    3    3    0    0  0.19047875420E+02  0.56135064585E+02 -0.21752238337E+03  0.22545499396E+03  0.00000000000E+00 0. -1.
         11    1    3    3    0    0  0.65835628626E+02 -0.20340777017E+02 -0.17145180076E+03  0.18478040261E+03  0.00000000000E+00 0.  1.
</event>
<event>
 7    1  0.5831876E-006  0.1357166E+03  0.7561462E-02  0.1219212E+00
          1   -1    0    0  501    0  0.00000000000E+00  0.00000000000E+00  0.51802918523E+03  0.51802918523E+03  0.00000000000E+00 0. -1.
         -1   -1    0    0    0  501 -0.00000000000E+00 -0.00000000000E+00 -0.45723988206E+02  0.45723988206E+02  0.00000000000E+00 0.  1.
         23    2    1    2    0    0  0.38693674950E+02  0.91482867418E+02  0.13297966182E+03  0.18871080460E+03  0.89787871132E+02 0.  0.
          5    1    1    2  502    0 -0.58506775355E+02 -0.85450877461E+01  0.66079323921E+02  0.88769424561E+02  0.41800000000E+01 0. -1.
         -5    1    1    2    0  502  0.19813100405E+02 -0.82937779672E+02  0.27324621128E+03  0.28627294428E+03  0.41800000000E+01 0. -1.
        -11    1    3    3    0    0 -0.13605270655E+01 -0.13941306937E+02 -0.43789835936E+00  0.14014379329E+02  0.00000000000E+00 0.  1.
         11    1    3    3    0    0  0.40054202016E+02  0.10542417436E+03  0.13341756018E+03  0.17469642527E+03  0.00000000000E+00 0. -1.
</event>
<event>
 7    1  0.5831876E-006  0.1115300E+03  0.7561462E-02  0.1257762E+00
         -2   -1    0    0    0  501 -0.00000000000E+00  0.00000000000E+00  0.27656102532E+03  0.27656102532E+03  0.00000000000E+00 0.  1.
          2   -1    0    0  501    0  0.00000000000E+00 -0.00000000000E+00 -0.11523579351E+03  0.11523579351E+03  0.00000000000E+00 0. -1.
         23    2    1    2    0    0  0.46923480458E+02  0.62202860374E+02  0.20536041064E+03  0.23798715691E+03  0.91618664790E+02 0.  0.
          5    1    1    2  502    0  0.32332093522E+02  0.12571347689E+02 -0.25374668940E+02  0.43182742827E+02  0.41800000000E+01 0. -1.
         -5    1    1    2    0  502 -0.79255573980E+02 -0.74774208063E+02 -0.18660509890E+02  0.11062691909E+03  0.41800000000E+01 0. -1.
        -11    1    3    3    0    0  0.31548618742E+02  0.30688395956E+02  0.18294493558E+02  0.47663208929E+02  0.00000000000E+00 0. -1.
         11    1    3    3    0    0  0.15374861716E+02  0.31514464418E+02  0.18706591708E+03  0.19032394798E+03  0.00000000000E+00 0.  1.
</event>
<event>
 7    1  0.5831876E-006  0.7953680E+02  0.7561462E-02  0.1330371E+00
         -3   -1    0    0    0  501 -0.00000000000E+00  0.00000000000E+00  0.23532682994E+03  0.23532682994E+03  0.00000000000E+00 0.  1.
          3   -1    0    0  501    0  0.00000000000E+00 -0.00000000000E+00 -0.57810311437E+02  0.57810311437E+02  0.00000000000E+00 0. -1.
         23    2    1    2    0    0  0.15560203949E+02  0.36654686537E+02  0.79639171437E+02  0.12939036944E+03  0.93881755865E+02 0.  0.
          5    1    1    2  502    0  0.42297357275E+02 -0.12148220475E+01  0.84314143974E+02  0.94429283060E+02  0.41800000000E+01 0.  1.
         -5    1    1    2    0  502 -0.57857561224E+02 -0.35439864490E+02  0.13563203087E+02  0.69317488874E+02  0.41800000000E+01 0.  1.
        -11    1    3    3    0    0  0.13898465514E+02  0.21893231258E+01 -0.19711723450E+02  0.24218020579E+02  0.00000000000E+00 0. -1.
         11    1    3    3    0    0  0.16617384344E+01  0.34465363411E+02  0.99350894888E+02  0.10517234886E+03  0.00000000000E+00 0.  1.
</event>
<event>
 7    1  0.5831876E-006  0.1399863E+03  0.7561462E-02  0.1213347E+00
         -1   -1    0    0    0  501 -0.00000000000E+00  0.00000000000E+00  0.56604192815E+02  0.56604192815E+02  0.00000000000E+00 0.  1.
          1   -1    0    0  501    0  0.00000000000E+00 -0.00000000000E+00 -0.52638664671E+03  0.52638664671E+03  0.00000000000E+00 0. -1.
         23    2    1    2    0    0 -0.14398074557E+02  0.11854980719E+03 -0.14909909800E+03  0.21864582251E+03  0.10636772697E+03 0.  0.
          5    1    1    2  502    0  0.11500982112E+02 -0.11369368372E+03 -0.33193344335E+03  0.35107806756E+03  0.41800000000E+01 0. -1.
         -5    1    1    2    0  502  0.28970924450E+01 -0.48561234623E+01  0.11250087465E+02  0.13266949449E+02  0.41800000000E+01 0. -1.
        -11    1    3    3    0    0  0.38760831900E+02  0.90574408076E+02 -0.10599539355E+03  0.14471056956E+03  0.00000000000E+00 0. -1.
         11    1    3    3    0    0 -0.53158906457E+02  0.27975399111E+02 -0.43103704451E+02  0.73935252949E+02  0.00000000000E+00 0.  1.
</event>
<event>
 7    1  0.5831876E-006  0.6849611E+02  0.7561462E-02  0.1365283E+00
          1   -1    0    0  501    0  0.00000000000E+00  0.00000000000E+00  0.82617818295E+03  0.82617818295E+03  0.00000000000E+00 0. -1.
         -1   -1    0    0    0  501 -0.00000000000E+00 -0.00000000000E+00 -0.53637264084E+02  0.53637264084E+02  0.00000000000E+00 0.  1.
         23    2    1    2    0    0 -0.15715731876E+02 -0.15295830657E+02 -0.50038215186E+01  0.93348971173E+02  0.90598264473E+02 0.  0.
          5    1    1    2  502    0  0.29894850384E+02  0.41557462986E+01  0.76109080979E+03  0.76170050903E+03  0.41800000000E+01 0. -1.
         -5    1    1    2    0  502 -0.14179118507E+02  0.11140084358E+02  0.16453930594E+02  0.24765966832E+02  0.41800000000E+01 0.  1.
        -11    1    3    3    0    0 -0.19691291060E+02 -0.49658378409E+02 -0.18037697092E+02  0.56383153567E+02  0.00000000000E+00 0.  1.
         11    1    3    3    0    0  0.39755591835E+01  0.34362547752E+02  0.13033875574E+02  0.36965817606E+02  0.00000000000E+00 0. -1.
</event>
<event>
 7    1  0.5831876E-006  0.1913735E+03  0.7561462E-02  0.1157228E+00
         -1   -1    0    0    0  501 -0.00000000000E+00  0.00000000000E+00  0.64572816046E+02  0.64572816046E+02  0.00000000000E+00 0.  1.
          1   -1    0    0  501    0  0.00000000000E+00 -0.00000000000E+00 -0.62625818402E+03  0.62625818402E+03  0.00000000000E+00 0. -1.
         23    2    1    2    0    0 -0.78868054354E+02 -0.14841619085E+03 -0.23905668423E+03  0.30614380205E+03  0.91260032630E+02 0.  0.
          5    1    1    2  502    0 -0.12673889325E+01  0.97993641198E+02 -0.88535161670E+02  0.13213745586E+03  0.41800000000E+01 0.  1.
         -5    1    1    2    0  502  0.80135443287E+02  0.50422549648E+02 -0.23409352207E+03  0.25254974215E+03  0.41800000000E+01 0.  1.
        -11    1    3    3    0    0 -0.51014681729E+02 -0.15333656917E+03 -0.18917261688E+03  0.24879887495E+03  0.00000000000E+00 0.  1.
         11    1    3    3    0    0 -0.27853372625E+02  0.49203783231E+01 -0.49884067340E+02  0.57344927098E+02  0.00000000000E+00 0. -1.
</event>
<event>
 7    1  0.5831876E-006  0.9576848E+02  0.7561462E-02  0.1289455E+00
          2   -1    0    0  501    0  0.00000000000E+00  0.00000000000E+00  0.22734124637E+02  0.22734124637E+02  0.00000000000E+00 0. -1.
         -2   -1    0    0    0  501 -0.00000000000E+00 -0.00000000000E+00 -0.66145868355E+03  0.66145868355E+03  0.00000000000E+00 0.  1.
         23    2    1    2    0    0  0.56352446651E+02 -0.27371641386E+02 -0.35880171831E+03  0.37586239860E+03  0.92785045278E+02 0.  0.
          5    1    1    2  502    0 -0.84151704449E+01 -0.13934405824E+02  0.41120345992E+01  0.17302138244E+02  0.41800000000E+01 0. -1.
         -5    1    1    2    0  502 -0.47937276207E+02  0.41306047210E+02 -0.28403487521E+03  0.29102827134E+03  0.41800000000E+01 0.  1.
        -11    1    3    3    0    0  0.29526733703E+01 -0.52299313317E+02 -0.14892494199E+03  0.15786885317E+03  0.00000000000E+00 0.  1.
         11    1    3    3    0    0  0.53399773281E+02  0.24927671931E+02 -0.20987677631E+03  0.21799354543E+03  0.00000000000E+00 0. -1.
</event>
<event>
 7    1  0.5831876E-006  0.1722731E+03  0.7561462E-02  0.1175498E+00
         -2   -1    0    0    0  501 -0.00000000000E+00  0.00000000000E+00  0.12096716565E+03  0.12096716565E+03  0.00000000000E+00 0.  1.
          2   -1    0    0  501    0  0.00000000000E+00 -0.00000000000E+00 -0.56270756557E+03  0.56270756557E+03  0.00000000000E+00 0. -1.
         23    2    1    2    0    0 -0.13946559616E+03 -0.93709915793E+02 -0.19296192012E+01  0.19038336266E+03  0.89498047554E+02 0.  0.
          5    1    1    2  502    0  0.12186988526E+03  0.78921726454E+02 -0.44605525525E+03  0.46910944456E+03  0.41800000000E+01 0. -1.
         -5    1    1    2    0  502  0.17595710901E+02  0.14788189340E+02  0.62444745263E+01  0.24181923996E+02  0.41800000000E+01 0.  1.
        -11    1    3    3    0    0 -0.44093535708E+02 -0.28156277941E+01 -0.32847812262E+02  0.55055848205E+02  0.00000000000E+00 0. -1.
         11    1    3    3    0    0 -0.95372060455E+02 -0.90894287999E+02  0.30918193061E+02  0.13532751445E+03  0.00000000000E+00 0.  1.
</event>
<event>
 7    1  0.5831876E-006  0.7788125E+02  0.7561462E-02  0.1335174E+00
          2   -1    0    0  501    0  0.00000000000E+00  0.00000000000E+00  0.16041614632E+03  0.16041614632E+03  0.00000000000E+00 0. -1.
         -2   -1    0    0    0  501 -0.00000000000E+00 -0.00000000000E+00 -0.10106838155E+03  0.10106838155E+03  0.00000000000E+00 0.  1.
         23    2    1    2    0    0  0.17006187762E+02  0.63912127584E+02  0.49396085083E+02  0.11963790638E+03  0.86598411920E+02 0.  0.
          5    1    1    2  502    0  0.18884577113E+02 -0.14742764521E+02  0.58834253336E+02  0.63662533127E+02  0.41800000000E+01 0. -1.
         -5    1    1    2    0  502 -0.35890764875E+02 -0.49169363063E+02 -0.48882573642E+02  0.78184088363E+02  0.41800000000E+01 0. -1.
        -11    1    3    3    0    0  0.23255991482E+02  0.48279563445E+02 -0.12889506677E+02  0.55117118653E+02  0.00000000000E+00 0.  1.
         11    1    3    3    0    0 -0.62498037194E+01  0.15632564139E+02  0.62285591760E+02  0.64520787728E+02  0.00000000000E+00 0. -1.
</event>
<event>
 7    1  0.5831876E-006  0.1102212E+03  0.7561462E-02  0.1260161E+00
         -1   -1    0    0    0  501 -0.00000000000E+00  0.00000000000E+00  0.10710673965E+02  0.10710673965E+02  0.00000000000E+00 0.  1.
          1   -1    0    0  501    0  0.00000000000E+00 -0.00000000000E+00 -0.16435145882E+04  0.16435145882E+04  0.00000000000E+00 0. -1.
         23    2    1    2    0    0 -0.59323020357E+02  0.97393250659E+01 -0.43628385180E+03  0.44968297295E+03  0.90868595332E+02 0.  0.
          5    1    1    2  502    0  0.68061048723E+02  0.27679921375E+02 -0.10628803874E+04  0.10654251146E+04  0.41800000000E+01 0.  1.
         -5    1    1    2    0  502 -0.87380283661E+01 -0.37419246441E+02 -0.13363967502E+03  0.13911717465E+03  0.41800000000E+01 0.  1.
        -11    1    3    3    0    0 -0.43387307032E+02  0.49224881322E+02 -0.23806180603E+03  0.24693920475E+03  0.00000000000E+00 0.  1.
         11    1    3    3    0    0 -0.15935713325E+02 -0.39485556256E+02 -0.19822204577E+03  0.20274376819E+03  0.00000000000E+00 0. -1.
</event>
<event>
 7    1  0.5831876E-006  0.9550962E+02  0.7561462E-02  0.1290032E+00
         -1   -1    0    0    0  501 -0.00000000000E+00  0.00000000000E+00  0.22068786091E+03  0.22068786091E+03  0.00000000000E+00 0.  1.
          1   -1    0    0  501    0  0.00000000000E+00 -0.00000000000E+00 -0.13938217748E+03  0.13938217748E+03  0.00000000000E+00 0. -1.
         23    2    1    2    0    0 -0.13156508023E+02  0.59107522081E+00  0.17758933829E+03  0.20166855964E+03  0.94650894350E+02 0.  0.
          5    1    1    2  502    0 -0.19297391727E+02  0.43116826046E+02  0.33361569287E+00  0.47423978272E+02  0.41800000000E+01 0.  1.
         -5    1    1    2    0  502  0.32453899751E+02 -0.43707901266E+02 -0.96617270554E+02  0.11097750047E+03  0.41800000000E+01 0.  1.
        -11    1    3    3    0    0  0.10911349094E+02  0.40745917496E+02  0.12147272727E+03  0.12858814409E+03  0.00000000000E+00 0.  1.
         11    1    3    3    0    0 -0.24067857117E+02 -0.40154842275E+02  0.56116611022E+02  0.73080415550E+02  0.00000000000E+00 0. -1.
</event>
<event>
 7    1  0.5831876E-006  0.6591803E+02  0.7561462E-02  0.1374551E+00
          2   -1    0    0  501    0  0.00000000000E+00  0.00000000000E+00  0.73485847005E+02  0.73485847005E+02  0.00000000000E+00 0. -1.
         -2   -1    0    0    0  501 -0.00000000000E+00 -0.00000000000E+00 -0.23487737091E+03  0.23487737091E+03  0.00000000000E+00 0.  1.
         23    2    1    2    0    0 -0.39673749796E+02 -0.12318067545E+02 -0.14278836699E+03  0.17524742935E+03  0.92722179317E+02 0.  0.
          5    1    1    2  502    0 -0.13002191537E+02  0.89016378545E+01 -0.62340243458E+02  0.64436592831E+02  0.41800000000E+01 0.  1.
         -5    1    1    2    0  502  0.52675941333E+02  0.34164296906E+01  0.43737086540E+02  0.68679195731E+02  0.41800000000E+01 0.  1.
        -11    1    3    3    0    0 -0.48871882356E+02 -0.22197087571E+01 -0.15139456050E+03  0.15910279992E+03  0.00000000000E+00 0.  1.
         11    1    3    3    0    0  0.91981325603E+01 -0.10098358788E+02  0.86061935152E+01  0.16144629436E+02  0.00000000000E+00 0. -1.
</event>
<event>
 6    1  0.5831876E-006  0.1732807E+03  0.7561462E-02  0.1174469E+00
         -1   -1    0    0    0  501 -0.00000000000E+00  0.00000000000E+00  0.24584655562E+03  0.24584655562E+03  0.00000000000E+00 0.  1.
          1   -1    0    0  501    0  0.00000000000E+00 -0.00000000000E+00 -0.18074858156E+03  0.18074858156E+03  0.00000000000E+00 0. -1.
          5    1    1    2  502    0 -0.12698267808E+03 -0.89377439373E+02  0.42739849452E+02  0.16111205521E+03  0.41800000000E+01 0. -1.
         -5    1    1    2    0  502  0.54735546373E+01 -0.15725167247E+02 -0.38917812279E+02  0.42535975338E+02  0.41800000000E+01 0. -1.
        -11    1    1    2    0    0  0.25834666386E+02 -0.69110181100E+01  0.70445162172E+02  0.75350600741E+02  0.00000000000E+00 0.  1.
         11    1    1    2    0    0  0.95674457062E+02  0.11201362473E+03 -0.91692252797E+01  0.14759650589E+03  0.00000000000E+00 0. -1.
</event>
<event>
 7    1  0.5831876E-006  0.8723168E+02  0.7561462E-02  0.1309698E+00
          2   -1    0    0  501    0  0.00000000000E+00  0.00000000000E+00  0.31936893709E+03  0.31936893709E+03  0.00000000000E+00 0. -1.
         -2   -1    0    0    0  501 -0.00000000000E+00 -0.00000000000E+00 -0.41975763989E+02  0.41975763989E+02  0.00000000000E+00 0.  1.
         23    2    1    2    0    0 -0.36468286643E+02 -0.57202583423E+01  0.11097429641E+03  0.14990909459E+03  0.93780514453E+02 0.  0.
          5    1    1    2  502    0 -0.11626209783E+02 -0.25228142515E+02 -0.68584396684E+01  0.28916059956E+02  0.41800000000E+01 0.  1.
         -5    1    1    2    0  502  0.48094496427E+02  0.30948400857E+02  0.17327731636E+03  0.18251954653E+03  0.41800000000E+01 0.  1.
        -11    1    3    3    0    0 -0.45137433019E+02  0.28729207094E+02  0.98799837112E+02  0.11235730067E+03  0.00000000000E+00 0. -1.
         11    1    3    3    0    0  0.86691463759E+01 -0.34449465437E+02  0.12174459301E+02  0.37551793926E+02  0.00000000000E+00 0.  1.
</event>
<event>
 7    1  0.5831876E-006  0.1134992E+03  0.7561462E-02  0.1254224E+00
          1   -1    0    0  501    0  0.00000000000E+00  0.00000000000E+00  0.33877041658E+03  0.33877041658E+03  0.00000000000E+00 0. -1.
         -1   -1    0    0    0  501 -0.00000000000E+00 -0.00000000000E+00 -0.74813098771E+02  0.74813098771E+02  0.00000000000E+00 0.  1.
         23    2    1    2    0    0  0.23628137680E+02  0.45782254373E+02 -0.88876245801E+01  0.10904011558E+03  0.95689357975E+02 0.  0.
          5    1    1    2  502    0  0.33085524022E+02 -0.62114087030E+02  0.10409828491E+03  0.12572484650E+03  0.41800000000E+01 0.  1.
         -5    1    1    2    0  502 -0.56713661702E+02  0.16331832657E+02  0.16874665748E+03  0.17881855327E+03  0.41800000000E+01 0.  1.
        -11    1    3    3    0    0  0.54554986821E+02  0.24589503995E+02 -0.28997170978E+02  0.66496061677E+02  0.00000000000E+00 0.  1.
         11    1    3    3    0    0 -0.30926849141E+02  0.21192750377E+02  0.20109546397E+02  0.42544053905E+02  0.00000000000E+00 0. -1.
</event>
<event>
 7    1  0.5831876E-006  0.9951824E+02  0.7561462E-02  0.1281312E+00
          1   -1    0    0  501    0  0.00000000000E+00  0.00000000000E+00  0.35225961109E+03  0.35225961109E+03  0.00000000000E+00 0. -1.
         -1   -1    0    0    0  501 -0.00000000000E+00 -0.00000000000E+00 -0.69963829493E+02  0.69963829493E+02  0.00000000000E+00 0.  1.
         23    2    1    2    0    0  0.23062206239E+02  0.80716502888E+02  0.29975941377E+02  0.12835532605E+03  0.92355365137E+02 0.  0.
          5    1    1    2  502    0 -0.88516659286E+01 -0.13725609677E+02  0.21520361596E+03  0.21586294975E+03  0.41800000000E+01 0.  1.
         -5    1    1    2    0  502 -0.14210540310E+02 -0.66990893211E+02  0.37116224254E+02  0.78005164778E+02  0.41800000000E+01 0.  1.
        -11    1    3    3    0    0 -0.28407361719E+02  0.27658120218E+02 -0.14347999560E+02  0.42164142411E+02  0.00000000000E+00 0.  1.
         11    1    3    3    0    0  0.51469567958E+02  0.53058382670E+02  0.44323940937E+02  0.86191183642E+02  0.00000000000E+00 0. -1.
</event>
<event>
 7    1  0.5831876E-006  0.1290942E+03  0.7561462E-02  0.1228806E+00
         -2   -1    0    0    0  501 -0.00000000000E+00  0.00000000000E+00  0.14521055953E+03  0.14521055953E+03  0.00000000000E+00 0. -1.
          2   -1    0    0  501    0  0.00000000000E+00 -0.00000000000E+00 -0.15373310997E+03  0.15373310997E+03  0.00000000000E+00 0.  1.
         23    2    1    2    0    0  0.18775865002E+02 -0.85227325050E+02  0.48179413185E+02  0.13621918701E+03  0.92834158656E+02 0.  0.
          5    1    1    2  502    0  0.17621341603E+02 -0.25283752069E+02 -0.30136338312E+02  0.43306478562E+02  0.41800000000E+01 0.  1.
         -5    1    1    2    0  502 -0.36397206605E+02  0.11051107712E+03 -0.26565625318E+02  0.11941800393E+03  0.41800000000E+01 0.  1.
        -11    1    3    3    0    0 -0.25620297755E+02 -0.38131816413E+02 -0.12384478594E+02  0.47579516496E+02  0.00000000000E+00 0.  1.
         11    1    3    3    0    0  0.44396162758E+02 -0.47095508638E+02  0.60563891780E+02  0.88639670515E+02  0.00000000000E+00 0. -1.
</event>
<event>
 7    1  0.5831876E-006  0.1125924E+03  0.7561462E-02  0.1255843E+00
         -1   -1    0    0    0  501 -0.00000000000E+00  0.00000000000E+00  0.78001513494E+03  0.78001513494E+03  0.00000000000E+00 0.  1.
          1   -1    0    0  501    0  0.00000000000E+00 -0.00000000000E+00 -0.21321699935E+02  0.21321699935E+02  0.00000000000E+00 0. -1.
         23    2    1    2    0    0 -0.65731854205E+02  0.26999387906E+02  0.37001020112E+03  0.38688409684E+03  0.87875547506E+02 0.  0.
          5    1    1    2  502    0  0.88104611521E+02 -0.11059847293E+02  0.15155315724E+03  0.17570024093E+03  0.41800000000E+01 0.  1.
         -5    1    1    2    0  502 -0.22372757316E+02 -0.15939540613E+02  0.23713007665E+03  0.23875249711E+03  0.41800000000E+01 0.  1.
        -11    1    3    3    0    0 -0.71219492959E+01 -0.27538594429E+02  0.55760156213E+02  0.62596256803E+02  0.00000000000E+00 0. -1.
         11    1    3    3    0    0 -0.58609904909E+02  0.54537982335E+02  0.31425004491E+03  0.32428784003E+03  0.00000000000E+00 0.  1.
</event>
<event>
 7    1  0.5831876E-006  0.1737423E+03  0.7561462E-02  0.1174000E+00
          1   -1    0    0  501    0  0.00000000000E+00  0.00000000000E+00  0.44962846564E+03  0.44962846564E+03  0.00000000000E+00 0. -1.
         -1   -1    0    0    0  501 -0.00000000000E+00 -0.00000000000E+00 -0.82751849241E+02  0.82751849241E+02  0.00000000000E+00 0.  1.
         23    2    1    2    0    0 -0.43276043466E+02 -0.15335560754E+03  0.16933839843E+03  0.24943651273E+03  0.90290212071E+02 0.  0.
          5    1    1    2  502    0  0.49437009358E+01  0.92561228654E+02  0.25162623087E+02  0.96138708279E+02  0.41800000000E+01 0. -1.
         -5    1    1    2    0  502  0.38332342530E+02  0.60794378886E+02  0.17237559488E+03  0.18680509388E+03  0.41800000000E+01 0. -1.
        -11    1    3    3    0    0 -0.70579385266E+02 -0.95696147788E+02  0.10182649574E+03  0.15654979259E+03  0.00000000000E+00 0.  1.
         11    1    3    3    0    0  0.27303341800E+02 -0.57659459751E+02  0.67511902689E+02  0.92886720132E+02  0.00000000000E+00 0. -1.
</event>
<event>
 7    1  0.5831876E-006  0.1214302E+03  0.7561462E-02  0.1240756E+00
          3   -1    0    0  501    0  0.00000000000E+00  0.00000000000E+00  0.15552326941E+04  0.15552326941E+04  0.00000000000E+00 0. -1.
         -3   -1    0    0    0  501 -0.00000000000E+00 -0.00000000000E+00 -0.23134544623E+02  0.23134544623E+02  0.00000000000E+00 0.  1.
         23    2    1    2    0    0 -0.75563617694E+02 -0.70844446320E+02  0.23345712187E+03  0.27059011902E+03  0.89375549616E+02 0.  0.
          5    1    1    2  502    0  0.64745114297E+02  0.38733399640E+01  0.30675178398E+03  0.31356189495E+03  0.41800000000E+01 0.  1.
         -5    1    1    2    0  502  0.10818503397E+02  0.66971106356E+02  0.99188924361E+03  0.99421522473E+03  0.41800000000E+01 0. -1.
        -11    1    3    3    0    0 -0.30638043811E+02 -0.53672575633E+02  0.45947128334E+02  0.77010218191E+02  0.00000000000E+00 0.  1.
         11    1    3    3    0    0 -0.44925573883E+02 -0.17171870687E+02  0.18750999353E+03  0.19357990083E+03  0.00000000000E+00 0. -1.
</event>
<event>
 7    1  0.5831876E-006  0.7931715E+02  0.7561462E-02  0.1331000E+00
         -1   -1    0    0    0  501 -0.00000000000E+00  0.00000000000E+00  0.17159363838E+02  0.17159363838E+02  0.00000000000E+00 0.  1.
          1   -1    0    0  501    0  0.00000000000E+00 -0.00000000000E+00 -0.70421748769E+03  0.70421748769E+03  0.00000000000E+00 0. -1.
         23    2    1    2    0    0  0.36588168598E+00 -0.10505941262E+02 -0.23251483287E+03  0.24981823321E+03  0.90749619641E+02 0.  0.
          5    1    1    2  502    0  0.22912590392E+02  0.29202452866E+02 -0.43274801473E+03  0.43435709584E+03  0.41800000000E+01 0. -1.
         -5    1    1    2    0  502 -0.23278472078E+02 -0.18696511604E+02 -0.21795276249E+02  0.37201522485E+02  0.41800000000E+01 0. -1.
        -11    1    3    3    0    0 -0.36129023197E+02 -0.32438496457E+02 -0.11513325588E+03  0.12495290704E+03  0.00000000000E+00 0.  1.
         11    1    3    3    0    0  0.36494904883E+02  0.21932555195E+02 -0.11738157700E+03  0.12486532616E+03  0.00000000000E+00 0. -1.
</event>
<event>
 7    1  0.5831876E-006  0.1461679E+03  0.7561462E-02  0.1205262E+00
          2   -1    0    0  501    0  0.00000000000E+00  0.00000000000E+00  0.57212097539E+03  0.57212097539E+03  0.00000000000E+00 0. -1.
         -2   -1    0    0    0  501 -0.00000000000E+00 -0.00000000000E+00 -0.84061805425E+02  0.84061805425E+02  0.00000000000E+00 0.  1.
         23    2    1    2    0    0 -0.14391050936E+03  0.14732332199E+02  0.50736350338E+02  0.17887201035E+03  0.92161502388E+02 0.  0.
          5    1    1    2  502    0  0.26047820827E+02 -0.12962287379E+02  0.27550120646E+03  0.27706478850E+03  0.41800000000E+01 0. -1.
         -5    1    1    2    0  502  0.11786268854E+03 -0.17700448199E+01  0.16182161317E+03  0.20024598197E+03  0.41800000000E+01 0. -1.
        -11    1    3    3    0    0 -0.12629393036E+03  0.16132159879E+02  0.75821733910E+02  0.14818683734E+03  0.00000000000E+00 0. -1.
         11    1    3    3    0    0 -0.17616579003E+02 -0.13998276802E+01 -0.25085383573E+02  0.30685173004E+02  0.00000000000E+00 0.  1.
</event>
<event>
 7    1  0.5831876E-006  0.1267916E+03  0.7561462E-02  0.1232296E+00
          1   -1    0    0  501    0  0.00000000000E+00  0.00000000000E+00  0.10178360438E+03  0.10178360438E+03  0.00000000000E+00 0. -1.
         -1   -1    0    0    0  501 -0.00000000000E+00 -0.00000000000E+00 -0.20275928189E+03  0.20275928189E+03  0.00000000000E+00 0.  1.
         23    2    1    2    0    0  0.53059365925E+02 -0.51468269726E+02 -0.11728681211E+03  0.16582016044E+03  0.90971700076E+02 0.  0.
          5    1    1    2  502    0 -0.79502416901E+02  0.93317044339E+00  0.14323510921E+01  0.79630579112E+02  0.41800000000E+01 0. -1.
         -5    1    1    2    0  502  0.26443050975E+02  0.50535099283E+02  0.14878783509E+02  0.59092146713E+02  0.41800000000E+01 0.  1.
        -11    1    3    3    0    0  0.35145666966E+02  0.21795437928E+02 -0.48539738092E+02  0.63768057795E+02  0.00000000000E+00 0.  1.
         11    1    3    3    0    0  0.17913698960E+02 -0.73263707654E+02 -0.68747074015E+02  0.10205210265E+03  0.00000000000E+00 0. -1.
</event>
<event>
 7    1  0.7258454E-006  0.1055485E+03  0.7561462E-02  0.1269043E+00
          1   -1    0    0  501    0  0.00000000000E+00  0.00000000000E+00  0.14174665836E+04  0.14174665836E+04  0.00000000000E+00 0. -1.
         -1   -1    0    0    0  501 -0.00000000000E+00 -0.00000000000E+00 -0.10073065236E+02  0.10073065236E+02  0.00000000000E+00 0.  1.
         23    2    1    2    0    0 -0.40562903605E+02  0.87792361128E+01  0.44806310102E+03  0.45919849276E+03  0.91543919065E+02 0.  0.
          5    1    1    2  502    0 -0.33251250596E+02 -0.17045146076E+02  0.12077083687E+03  0.12648814217E+03  0.41800000000E+01 0. -1.
         -5    1    1    2    0  502  0.73814154202E+02  0.82659099630E+01  0.83855958051E+03  0.84185301395E+03  0.41800000000E+01 0. -1.
        -11    1    3    3    0    0 -0.38972447733E+02  0.46884248656E+02  0.31148416504E+03  0.31739465894E+03  0.00000000000E+00 0.  1.
         11    1    3    3    0    0 -0.15904558723E+01 -0.38105012543E+02  0.13657893599E+03  0.14180383382E+03  0.00000000000E+00 0. -1.
</event>
<event>
 7    1  0.5831876E-006  0.1241739E+03  0.7561462E-02  0.1236366E+00
         -2   -1    0    0    0  501 -0.00000000000E+00  0.00000000000E+00  0.91486638539E+02  0.91486638539E+02  0.00000000000E+00 0.  1.
          2   -1    0    0  501    0  0.00000000000E+00 -0.00000000000E+00 -0.20143522751E+03  0.20143522751E+03  0.00000000000E+00 0. -1.
         23    2    1    2    0    0 -0.11880199450E+01  0.73687939653E+02 -0.11431590210E+02  0.11746700238E+03  0.90755118601E+02 0.  0.
          5    1    1    2  502    0 -0.50827203832E+02 -0.66319319864E+02 -0.88549182131E+02  0.12181989531E+03  0.41800000000E+01 0.  1.
         -5    1    1    2    0  502  0.52015223777E+02 -0.73686197886E+01 -0.99678166256E+01  0.53634968355E+02  0.41800000000E+01 0.  1.
        -11    1    3    3    0    0  0.15267761162E+02  0.88523422578E+02 -0.22636928266E+02  0.92638714354E+02  0.00000000000E+00 0. -1.
         11    1    3    3    0    0 -0.16455781107E+02 -0.14835482925E+02  0.11205338056E+02  0.24828288028E+02  0.00000000000E+00 0.  1.
</event>
<event>
 7    1  0.5831876E-006  0.8543428E+02  0.7561462E-02  0.1314301E+00
          2   -1    0    0  501    0  0.00000000000E+00  0.00000000000E+00  0.10429115323E+04  0.10429115323E+04  0.00000000000E+00 0. -1.
         -2   -1    0    0    0  501 -0.00000000000E+00 -0.00000000000E+00 -0.96149756987E+02  0.96149756987E+02  0.00000000000E+00 0.  1.
         23    2    1    2    0    0 -0.54183855680E+02  0.28715078711E+02 -0.58657088467E+02  0.12500813994E+03  0.91792892224E+02 0.  0.
          5    1    1    2  502    0  0.17480879439E+02 -0.11033790687E+02  0.90965893183E+03  0.90990338517E+03  0.41800000000E+01 0. -1.
         -5    1    1    2    0  502  0.36702976241E+02 -0.17681288024E+02  0.95759931960E+02  0.10414976419E+03  0.41800000000E+01 0.  1.
        -11    1    3    3    0    0 -0.79574031848E+02  0.22152937773E+02 -0.35070125125E+02  0.89736797763E+02  0.00000000000E+00 0.  1.
         11    1    3    3    0    0  0.25390176168E+02  0.65621409379E+01 -0.23586963341E+02  0.35271342180E+02  0.00000000000E+00 0. -1.
</event>
<event>
 7    1  0.5831876E-006  0.3335216E+03  0.7561462E-02  0.1069589E+00
         -1   -1    0    0    0  501 -0.00000000000E+00  0.00000000000E+00  0.10197770307E+03  0.10197770307E+03  0.00000000000E+00 0.  1.
          1   -1    0    0  501    0  0.00000000000E+00 -0.00000000000E+00 -0.13709386968E+04  0.13709386968E+04  0.00000000000E+00 0. -1.
         23    2    1    2    0    0  0.32645783337E+03 -0.99189067439E+00 -0.34135492858E+03  0.48161632069E+03  0.94103093851E+02 0.  0.
          5    1    1    2  502    0 -0.23698898478E+03 -0.25251313022E+02 -0.50388441361E+03  0.55742118941E+03  0.41800000000E+01 0. -1.
         -5    1    1    2    0  502 -0.89468848588E+02  0.26243203697E+02 -0.42372165154E+03  0.43387888978E+03  0.41800000000E+01 0. -1.
        -11    1    3    3    0    0  0.21432993276E+03 -0.37159857911E+02 -0.25707753427E+03  0.33675960825E+03  0.00000000000E+00 0. -1.
         11    1    3    3    0    0  0.11212790061E+03  0.36167967237E+02 -0.84277394305E+02  0.14485671244E+03  0.00000000000E+00 0.  1.
</event>
<event>
 6    1  0.5831876E-006  0.4865291E+02  0.7561462E-02  0.1452746E+00
          1   -1    0    0  501    0  0.00000000000E+00  0.00000000000E+00  0.13151604844E+03  0.13151604844E+03  0.00000000000E+00 0. -1.
         -1   -1    0    0    0  501 -0.00000000000E+00 -0.00000000000E+00 -0.74954535827E+02  0.74954535827E+02  0.00000000000E+00 0.  1.
          5    1    1    2  502    0 -0.33693150375E+02 -0.52472475736E+01 -0.27464054387E+02  0.43983049833E+02  0.41800000000E+01 0. -1.
         -5    1    1    2    0  502  0.19176872003E+01 -0.16997387691E+02  0.10872857954E+03  0.11014520018E+03  0.41800000000E+01 0. -1.
        -11    1    1    2    0    0  0.19170011184E+01  0.14323805968E+02 -0.12571591084E+02  0.19154404535E+02  0.00000000000E+00 0.  1.
         11    1    1    2    0    0  0.29858462056E+02  0.79208292963E+01 -0.12131421453E+02  0.33187929727E+02  0.00000000000E+00 0. -1.
</event>
<event>
 7    1  0.5831876E-006  0.1581014E+03  0.7561462E-02  0.1190857E+00
          1   -1    0    0  501    0  0.00000000000E+00  0.00000000000E+00  0.18060439872E+03  0.18060439872E+03  0.00000000000E+00 0. -1.
         -1   -1    0    0    0  501 -0.00000000000E+00 -0.00000000000E+00 -0.20293857085E+03  0.20293857085E+03  0.00000000000E+00 0.  1.
         23    2    1    2    0    0 -0.93394925419E+02  0.10183686331E+03 -0.92930057556E+02  0.18927782255E+03  0.89981885345E+02 0.  0.
          5    1    1    2  502    0  0.11152326959E+03 -0.49932438331E+02  0.65991607708E+02  0.13893542653E+03  0.41800000000E+01 0. -1.
         -5    1    1    2    0  502 -0.18128344172E+02 -0.51904424979E+02  0.46042777166E+01  0.55329720478E+02  0.41800000000E+01 0.  1.
        -11    1    3    3    0    0 -0.26225744128E+02  0.20317253007E+02 -0.75173505496E+02  0.82168341552E+02  0.00000000000E+00 0.  1.
         11    1    3    3    0    0 -0.67169181291E+02  0.81519610303E+02 -0.17756552060E+02  0.10710948100E+03  0.00000000000E+00 0. -1.
</event>
<event>
 7    1  0.5831876E-006  0.1123905E+03  0.7561462E-02  0.1256206E+00
         -2   -1    0    0    0  501 -0.00000000000E+00  0.00000000000E+00  0.46720308006E+03  0.46720308006E+03  0.00000000000E+00 0. -1.
          2   -1    0    0  501    0  0.00000000000E+00 -0.00000000000E+00 -0.40318054891E+02  0.40318054891E+02  0.00000000000E+00 0.  1.
         23    2    1    2    0    0  0.40226614150E+02 -0.36876805164E+02  0.31140282846E+03  0.32874192043E+03  0.90119084712E+02 0.  0.
          5    1    1    2  502    0  0.36175135240E+02  0.28447722589E+02  0.85081336472E+01  0.46986956363E+02  0.41800000000E+01 0. -1.
         -5    1    1    2    0  502 -0.76401749389E+02  0.84290825752E+01  0.10697406306E+03  0.13179225816E+03  0.41800000000E+01 0. -1.
        -11    1    3    3    0    0  0.48804847840E+02 -0.59758126135E+02  0.26852383328E+03  0.27938861081E+03  0.00000000000E+00 0.  1.
         11    1    3    3    0    0 -0.85782336897E+01  0.22881320971E+02  0.42878995185E+02  0.49353309623E+02  0.00000000000E+00 0. -1.
</event>
<event>
 7    1  0.5831876E-006  0.1504733E+03  0.7561462E-02  0.1199893E+00
         -1   -1    0    0    0  501 -0.00000000000E+00  0.00000000000E+00  0.35205145125E+02  0.35205145125E+02  0.00000000000E+00 0.  1.
          1   -1    0    0  501    0  0.00000000000E+00 -0.00000000000E+00 -0.96207607087E+03  0.96207607087E+03  0.00000000000E+00 0. -1.
         23    2    1    2    0    0  0.96361303404E+02  0.93854564402E+02 -0.26941939401E+03  0.31464968195E+03  0.91232847298E+02 0.  0.
          5    1    1    2  502    0 -0.58165690204E+02 -0.10046487245E+03 -0.61119370843E+03  0.62213476011E+03  0.41800000000E+01 0. -1.
         -5    1    1    2    0  502 -0.38195613200E+02  0.66103080483E+01 -0.46257823303E+02  0.60496773938E+02  0.41800000000E+01 0. -1.
        -11    1    3    3    0    0  0.57151512324E+02  0.17182027945E+02 -0.46440627960E+02  0.75619107179E+02  0.00000000000E+00 0.  1.
         11    1    3    3    0    0  0.39209791080E+02  0.76672536457E+02 -0.22297876605E+03  0.23903057477E+03  0.00000000000E+00 0. -1.
</event>
<event>
 7    1  0.5831876E-006  0.1373717E+03  0.7561462E-02  0.1216910E+00
          2   -1    0    0  501    0  0.00000000000E+00  0.00000000000E+00  0.13805574537E+04  0.13805574537E+04  0.00000000000E+00 0. -1.
         -2   -1    0    0    0  501 -0.00000000000E+00 -0.00000000000E+00 -0.15921302343E+02  0.15921302343E+02  0.00000000000E+00 0.  1.
         23    2    1    2    0    0 -0.10089178347E+03 -0.42324839513E+01  0.60693672119E+03  0.62191254187E+03  0.90586755723E+02 0.  0.
          5    1    1    2  502    0 -0.34530621066E+01 -0.30271919550E+02  0.37828597707E+03  0.37953401112E+03  0.41800000000E+01 0. -1.
         -5    1    1    2    0  502  0.10434484557E+03  0.34504403501E+02  0.37941345312E+03  0.39503220308E+03  0.41800000000E+01 0. -1.
        -11    1    3    3    0    0 -0.10141722932E+03 -0.31915450218E+02  0.51662385773E+03  0.52745071878E+03  0.00000000000E+00 0.  1.
         11    1    3    3    0    0  0.52544585790E+00  0.27682966266E+02  0.90312863465E+02  0.94461823092E+02  0.00000000000E+00 0. -1.
</event>
<event>
 7    1  0.5831876E-006  0.1581435E+03  0.7561462E-02  0.1190809E+00
         -1   -1    0    0    0  501 -0.00000000000E+00  0.00000000000E+00  0.11903432617E+03  0.11903432617E+03  0.00000000000E+00 0.  1.
          1   -1    0    0  501    0  0.00000000000E+00 -0.00000000000E+00 -0.21585421087E+03  0.21585421087E+03  0.00000000000E+00 0. -1.
         23    2    1    2    0    0  0.87545376495E+02 -0.80119563826E+02 -0.41817952859E+02  0.15389898974E+03  0.88616140781E+02 0.  0.
          5    1    1    2  502    0 -0.11343533930E+03  0.86248458760E+02 -0.57964562154E+02  0.15389521015E+03  0.41800000000E+01 0.  1.
         -5    1    1    2    0  502  0.25889962808E+02 -0.61288949338E+01  0.29626303097E+01  0.27094337151E+02  0.41800000000E+01 0.  1.
        -11    1    3    3    0    0  0.56369031519E+02  0.45638680806E+01 -0.26159286279E+02  0.62310551794E+02  0.00000000000E+00 0.  1.
         11    1    3    3    0    0  0.31176344977E+02 -0.84683431907E+02 -0.15658666580E+02  0.91588437942E+02  0.00000000000E+00 0. -1.
</event>
<event>
 7    1  0.5831876E-006  0.1013102E+03  0.7561462E-02  0.1277565E+00
         -2   -1    0    0    0  501 -0.00000000000E+00  0.00000000000E+00  0.33548958737E+02  0.33548958737E+02  0.00000000000E+00 0.  1.
          2   -1    0    0  501    0  0.00000000000E+00 -0.00000000000E+00 -0.38310047361E+03  0.38310047361E+03  0.00000000000E+00 0. -1.
         23    2    1    2    0    0 -0.28636268094E+02  0.14779990370E+02 -0.12946690853E+03  0.16145769517E+03  0.90930869131E+02 0.  0.
          5    1    1    2  502    0  0.54137721806E+02 -0.57321127535E+02 -0.14508591731E+03  0.16517869229E+03  0.41800000000E+01 0. -1.
         -5    1    1    2    0  502 -0.25501453712E+02  0.42541137165E+02 -0.74998689029E+02  0.90013044881E+02  0.41800000000E+01 0. -1.
        -11    1    3    3    0    0  0.16789707760E+02  0.22228501632E+02 -0.44176902398E+01  0.28204903093E+02  0.00000000000E+00 0.  1.
         11    1    3    3    0    0 -0.45425975854E+02 -0.74485112617E+01 -0.12504921829E+03  0.13325279208E+03  0.00000000000E+00 0. -1.
</event>
<event>
 7    1  0.5831876E-006  0.1121973E+03  0.7561462E-02  0.1256554E+00
         -2   -1    0    0    0  501 -0.00000000000E+00  0.00000000000E+00  0.17032173775E+02  0.17032173775E+02  0.00000000000E+00 0.  1.
          2   -1    0    0  501    0  0.00000000000E+00 -0.00000000000E+00 -0.93523253033E+03  0.93523253033E+03  0.00000000000E+00 0. -1.
         23    2    1    2    0    0 -0.23822609288E+02 -0.55101447048E+02 -0.32242184639E+03  0.34054320979E+03  0.91706840096E+02 0.  0.
          5    1    1    2  502    0 -0.42403304846E+02  0.18502977528E+02 -0.38386810313E+03  0.38666858347E+03  0.41800000000E+01 0. -1.
         -5    1    1    2    0  502  0.66225914134E+02  0.36598469520E+02 -0.21191040703E+03  0.22505291085E+03  0.41800000000E+01 0. -1.
        -11    1    3    3    0    0 -0.54506916917E+02 -0.28282087758E+02 -0.25011205011E+03  0.25754012908E+03  0.00000000000E+00 0. -1.
         11    1    3    3    0    0  0.30684307628E+02 -0.26819359289E+02 -0.72309796287E+02  0.83003080704E+02  0.00000000000E+00 0.  1.
</event>
<event>
 7    1  0.5831876E-006  0.2225806E+03  0.7561462E-02  0.1131974E+00
         -2   -1    0    0    0  501 -0.00000000000E+00  0.00000000000E+00  0.40005312509E+02  0.40005312509E+02  0.00000000000E+00 0.  1.
          2   -1    0    0  501    0  0.00000000000E+00 -0.00000000000E+00 -0.15583352404E+04  0.15583352404E+04  0.00000000000E+00 0. -1.
         23    2    1    2    0    0  0.35561062164E+02 -0.19810324485E+03 -0.42006588171E+03  0.47480104491E+03  0.92039135760E+02 0.  0.
          5    1    1    2  502    0 -0.24816354696E+02 -0.10768664163E+02 -0.14978300027E+03  0.15226370270E+03  0.41800000000E+01 0. -1.
         -5    1    1    2    0  502 -0.10744707467E+02  0.20887190901E+03 -0.94848104587E+03  0.97127580526E+03  0.41800000000E+01 0. -1.
        -11    1    3    3    0    0  0.47649446577E+02 -0.18377472694E+03 -0.31277712128E+03  0.36588679618E+03  0.00000000000E+00 0.  1.
         11    1    3    3    0    0 -0.12088384413E+02 -0.14328517910E+02 -0.10728876042E+03  0.10891424873E+03  0.00000000000E+00 0. -1.
</event>
<event>
 7    1  0.5831876E-006  0.1144475E+03  0.7561462E-02  0.1252549E+00
         -2   -1    0    0    0  501 -0.00000000000E+00  0.00000000000E+00  0.18243816878E+03  0.18243816878E+03  0.00000000000E+00 0.  1.
          2   -1    0    0  501    0  0.00000000000E+00 -0.00000000000E+00 -0.12100926609E+03  0.12100926609E+03  0.00000000000E+00 0. -1.
         23    2    1    2    0    0  0.75162932185E+02 -0.52998222536E+02  0.70456375580E+02  0.14792088711E+03  0.91968527316E+02 0.  0.
          5    1    1    2  502    0 -0.77811156857E+02  0.42590893035E+02 -0.57440267025E+02  0.10576113169E+03  0.41800000000E+01 0.  1.
         -5    1    1    2    0  502  0.26482246717E+01  0.10407329501E+02  0.48412794128E+02  0.49765416069E+02  0.41800000000E+01 0.  1.
        -11    1    3    3    0    0  0.47713372442E+02 -0.78001778346E+02  0.39606485593E+02  0.99646962000E+02  0.00000000000E+00 0.  1.
         11    1    3    3    0    0  0.27449559743E+02  0.25003555810E+02  0.30849889988E+02  0.48273925109E+02  0.00000000000E+00 0. -1.
</event>
<event>
 7    1  0.5831876E-006  0.1706614E+03  0.7561462E-02  0.1177160E+00
         -2   -1    0    0    0  501 -0.00000000000E+00  0.00000000000E+00  0.34911850735E+02  0.34911850735E+02  0.00000000000E+00 0. -1.
          2   -1    0    0  501    0  0.00000000000E+00 -0.00000000000E+00 -0.13033554863E+04  0.13033554863E+04  0.00000000000E+00 0.  1.
         23    2    1    2    0    0  0.66119145499E+02  0.12427798991E+03 -0.24466299430E+03  0.29731174344E+03  0.93367723705E+02 0.  0.
          5    1    1    2  502    0 -0.44439381519E+02  0.26957297396E+01 -0.48143717360E+03  0.48350941057E+03  0.41800000000E+01 0.  1.
         -5    1    1    2    0  502 -0.21679763980E+02 -0.12697371965E+03 -0.54234346764E+03  0.55744618300E+03  0.41800000000E+01 0.  1.
        -11    1    3    3    0    0  0.10531544106E+02 -0.14677637855E+02 -0.38766302104E+02  0.42768828054E+02  0.00000000000E+00 0.  1.
         11    1    3    3    0    0  0.55587601393E+02  0.13895562776E+03 -0.20589669220E+03  0.25454291538E+03  0.00000000000E+00 0. -1.
</event>
<event>
 7    1  0.5831876E-006  0.1642552E+03  0.7561462E-02  0.1183975E+00
         -2   -1    0    0    0  501 -0.00000000000E+00  0.00000000000E+00  0.15902716946E+03  0.15902716946E+03  0.00000000000E+00 0.  1.
          2   -1    0    0  501    0  0.00000000000E+00 -0.00000000000E+00 -0.49676529247E+03  0.49676529247E+03  0.00000000000E+00 0. -1.
         23    2    1    2    0    0 -0.78846849016E+02  0.10888435671E+03  0.93518516474E+02  0.18706903620E+03  0.90423905265E+02 0.  0.
          5    1    1    2  502    0  0.40903997300E+02 -0.13188231820E+03 -0.34512409933E+03  0.37174480385E+03  0.41800000000E+01 0.  1.
         -5    1    1    2    0  502  0.37942851717E+02  0.22997961492E+02 -0.86132540161E+02  0.96978621890E+02  0.41800000000E+01 0.  1.
        -11    1    3    3    0    0 -0.33482642058E+02  0.91131800886E+02  0.98247985689E+02  0.13812588151E+03  0.00000000000E+00 0.  1.
         11    1    3    3    0    0 -0.45364206958E+02  0.17752555828E+02 -0.47294692144E+01  0.48943154684E+02  0.00000000000E+00 0. -1.
</event>
<event>
 7    1  0.5831876E-006  0.1052020E+03  0.7561462E-02  0.1269722E+00
          2   -1    0    0  501    0  0.00000000000E+00  0.00000000000E+00  0.10766337746E+04  0.10766337746E+04  0.00000000000E+00 0. -1.
         -2   -1    0    0    0  501 -0.00000000000E+00 -0.00000000000E+00 -0.13876296702E+02  0.13876296702E+02  0.00000000000E+00 0.  1.
         23    2    1    2    0    0 -0.12325289417E+02 -0.35510451119E+02  0.27808529879E+03  0.29504176821E+03  0.91133455347E+02 0.  0.
          5    1    1    2  502    0  0.59821131276E+01  0.78394351947E+02  0.62585406426E+03  0.63078700228E+03  0.41800000000E+01 0. -1.
         -5    1    1    2    0  502  0.63431762899E+01 -0.42883900828E+02  0.15881811489E+03  0.16468130086E+03  0.41800000000E+01 0. -1.
        -11    1    3    3    0    0  0.32384187263E+02 -0.23783100442E+01  0.17410480340E+03  0.17710695783E+03  0.00000000000E+00 0. -1.
         11    1    3    3    0    0 -0.44709476680E+02 -0.33132141075E+02  0.10398049539E+03  0.11793481038E+03  0.00000000000E+00 0.  1.
</event>
<event>
 7    1  0.5831876E-006  0.1106148E+03  0.7561462E-02  0.1259436E+00
          2   -1    0    0  501    0  0.00000000000E+00  0.00000000000E+00  0.10360863372E+04  0.10360863372E+04  0.00000000000E+00 0.  1.
         -2   -1    0    0    0  501 -0.00000000000E+00 -0.00000000000E+00 -0.13061888192E+02  0.13061888192E+02  0.00000000000E+00 0. -1.
         23    2    1    2    0    0 -0.26204731957E+02 -0.28586711443E+02  0.35266987580E+03  0.36611997172E+03  0.90354326658E+02 0.  0.
          5    1    1    2  502    0 -0.45398740415E+02 -0.21741642884E+01  0.36565922612E+03  0.36849683129E+03  0.41800000000E+01 0. -1.
         -5    1    1    2    0  502  0.71603472372E+02  0.30760875731E+02  0.30469534708E+03  0.31453142238E+03  0.41800000000E+01 0. -1.
        -11    1    3    3    0    0 -0.81055737679E+01 -0.60400442956E+02  0.19732579686E+03  0.20652211490E+03  0.00000000000E+00 0. -1.
         11    1    3    3    0    0 -0.18099158189E+02  0.31813731513E+02  0.15534407894E+03  0.15959785682E+03  0.00000000000E+00 0.  1.
</event>
<event>
 7    1  0.5831876E-006  0.1440851E+03  0.7561462E-02  0.1207936E+00
         -1   -1    0    0    0  501 -0.00000000000E+00  0.00000000000E+00  0.17128821248E+02  0.17128821248E+02  0.00000000000E+00 0.  1.
          1   -1    0    0  501    0  0.00000000000E+00 -0.00000000000E+00 -0.16907944048E+04  0.16907944048E+04  0.00000000000E+00 0. -1.
         23    2    1    2    0    0  0.94676908995E+02 -0.60810376894E+02 -0.55216894504E+03  0.57089990176E+03  0.91512485100E+02 0.  0.
          5    1    1    2  502    0 -0.50036739890E+02 -0.19288079976E+02 -0.82241872053E+03  0.82417578807E+03  0.41800000000E+01 0. -1.
         -5    1    1    2    0  502 -0.44640169105E+02  0.80098456870E+02 -0.29907791797E+03  0.31284753620E+03  0.41800000000E+01 0.  1.
        -11    1    3    3    0    0  0.67551883691E+01 -0.53981205880E+02 -0.16205678212E+03  0.17094444650E+03  0.00000000000E+00 0. -1.
         11    1    3    3    0    0  0.87921720626E+02 -0.68291710133E+01 -0.39011216292E+03  0.39995545526E+03  0.00000000000E+00 0.  1.
</event>
<event>
 7    1  0.5831876E-006  0.1515132E+03  0.7561462E-02  0.1198626E+00
          1   -1    0    0  501    0  0.00000000000E+00  0.00000000000E+00  0.12571010943E+03  0.12571010943E+03  0.00000000000E+00 0. -1.
         -1   -1    0    0    0  501 -0.00000000000E+00 -0.00000000000E+00 -0.27499341755E+03  0.27499341755E+03  0.00000000000E+00 0.  1.
         23    2    1    2    0    0  0.10148756686E+03  0.10299078687E+03 -0.11881441546E+03  0.20709833479E+03  0.88690622636E+02 0.  0.
          5    1    1    2  502    0 -0.40310719684E+01  0.84166285567E+01 -0.43754237117E+02  0.44933226494E+02  0.41800000000E+01 0.  1.
         -5    1    1    2    0  502 -0.97456494887E+02 -0.11140741543E+03  0.13285344453E+02  0.14867196570E+03  0.41800000000E+01 0.  1.
        -11    1    3    3    0    0  0.61621307941E+02  0.66786029521E+02 -0.17760153802E+02  0.92590401201E+02  0.00000000000E+00 0. -1.
         11    1    3    3    0    0  0.39866258914E+02  0.36204757350E+02 -0.10105426166E+03  0.11450793358E+03  0.00000000000E+00 0.  1.
</event>
<event>
 7    1  0.5831876E-006  0.9455025E+02  0.7561462E-02  0.1292192E+00
         -3   -1    0    0    0  501 -0.00000000000E+00  0.00000000000E+00  0.39955999289E+03  0.39955999289E+03  0.00000000000E+00 0.  1.
          3   -1    0    0  501    0  0.00000000000E+00 -0.00000000000E+00 -0.51869670667E+02  0.51869670667E+02  0.00000000000E+00 0. -1.
         23    2    1    2    0    0 -0.15612323960E+02 -0.71488331362E+02  0.26904325603E+03  0.29298224973E+03  0.89999993686E+02 0.  0.
          5    1    1    2  502    0  0.24202505218E+02  0.68854443903E+02 -0.58814295704E+01  0.73340025347E+02  0.41800000000E+01 0. -1.
         -5    1    1    2    0  502 -0.85901812586E+01  0.26338874590E+01  0.84528495768E+02  0.85107388480E+02  0.41800000000E+01 0.  1.
        -11    1    3    3    0    0 -0.41187748487E+02 -0.69042885819E+02  0.24477896155E+03  0.25764334016E+03  0.00000000000E+00 0.  1.
         11    1    3    3    0    0  0.25575424527E+02 -0.24454455427E+01  0.24264294472E+02  0.35338909574E+02  0.00000000000E+00 0. -1.
</event>
<event>
 7    1  0.5831876E-006  0.2012418E+03  0.7561462E-02  0.1148696E+00
          1   -1    0    0  501    0  0.00000000000E+00  0.00000000000E+00  0.10090583531E+04  0.10090583531E+04  0.00000000000E+00 0. -1.
         -1   -1    0    0    0  501 -0.00000000000E+00 -0.00000000000E+00 -0.88005611688E+02  0.88005611688E+02  0.00000000000E+00 0.  1.
         23    2    1    2    0    0 -0.96487289544E+02  0.15146508330E+03  0.62850049236E+02  0.21139413063E+03  0.92118843198E+02 0.  0.
          5    1    1    2  502    0  0.27238077781E+02  0.17484201025E+02  0.81693581955E+02  0.87971153791E+02  0.41800000000E+01 0.  1.
         -5    1    1    2    0  502  0.69249211763E+02 -0.16894928433E+03  0.77650911025E+03  0.79769868039E+03  0.41800000000E+01 0.  1.
        -11    1    3    3    0    0 -0.27892189578E+02  0.93701327329E+01  0.43372025577E+02  0.52410936164E+02  0.00000000000E+00 0. -1.
         11    1    3    3    0    0 -0.68595099966E+02  0.14209495057E+03  0.19478023659E+02  0.15898319447E+03  0.00000000000E+00 0.  1.
</event>
<event>
 7    1  0.5831876E-006  0.1145537E+03  0.7561462E-02  0.1252362E+00
         -1   -1    0    0    0  501 -0.00000000000E+00  0.00000000000E+00  0.20005282904E+02  0.20005282904E+02  0.00000000000E+00 0.  1.
          1   -1    0    0  501    0  0.00000000000E+00 -0.00000000000E+00 -0.10599679866E+04  0.10599679866E+04  0.00000000000E+00 0. -1.
         23    2    1    2    0    0  0.46236354978E+02  0.47685053293E+02 -0.20834556893E+03  0.23638213676E+03  0.89760646473E+02 0.  0.
          5    1    1    2  502    0 -0.41623217176E+02  0.34847893422E+02 -0.23285169924E+03  0.23913229418E+03  0.41800000000E+01 0. -1.
         -5    1    1    2    0  502 -0.46131378025E+01 -0.82532946715E+02 -0.59876543553E+03  0.60445883856E+03  0.41800000000E+01 0. -1.
        -11    1    3    3    0    0 -0.15419412639E+02  0.17246059509E+02 -0.78597421847E+01  0.24432773112E+02  0.00000000000E+00 0.  1.
         11    1    3    3    0    0  0.61655767618E+02  0.30438993784E+02 -0.20048582675E+03  0.21194936364E+03  0.00000000000E+00 0. -1.
</event>
<event>
 7    1  0.5831876E-006  0.8853795E+02  0.7561462E-02  0.1306431E+00
         -2   -1    0    0    0  501 -0.00000000000E+00  0.00000000000E+00  0.11204429210E+02  0.11204429210E+02  0.00000000000E+00 0.  1.
          2   -1    0    0  501    0  0.00000000000E+00 -0.00000000000E+00 -0.83482047723E+03  0.83482047723E+03  0.00000000000E+00 0. -1.
         23    2    1    2    0    0  0.26427232476E+02 -0.62112172934E+01 -0.25964888799E+03  0.26771410667E+03  0.59298566922E+02 0.  0.
          5    1    1    2  502    0  0.39447527160E+02 -0.22881854777E+02 -0.33855078716E+03  0.34163400674E+03  0.41800000000E+01 0. -1.
         -5    1    1    2    0  502 -0.65874759636E+02  0.29093072070E+02 -0.22541637288E+03  0.23667679303E+03  0.41800000000E+01 0. -1.
        -11    1    3    3    0    0  0.36283012947E+01  0.22326954629E+02 -0.49619607556E+02  0.54532219167E+02  0.00000000000E+00 0.  1.
         11    1    3    3    0    0  0.22798931181E+02 -0.28538171922E+02 -0.21002928043E+03  0.21318188750E+03  0.00000000000E+00 0. -1.
</event>
<event>
 7    1  0.5831876E-006  0.2799670E+03  0.7561462E-02  0.1095707E+00
          2   -1    0    0  501    0  0.00000000000E+00  0.00000000000E+00  0.14890432416E+04  0.14890432416E+04  0.00000000000E+00 0. -1.
         -2   -1    0    0    0  501 -0.00000000000E+00 -0.00000000000E+00 -0.64767282196E+02  0.64767282196E+02  0.00000000000E+00 0.  1.
         23    2    1    2    0    0 -0.13831663259E+03 -0.23631014192E+03  0.45550037556E+03  0.53934167064E+03  0.91841556656E+02 0.  0.
          5    1    1    2  502    0  0.13308120192E+03  0.22049745205E+03  0.71270320143E+03  0.75782125755E+03  0.41800000000E+01 0. -1.
         -5    1    1    2    0  502  0.52354306709E+01  0.15812689866E+02  0.25607238243E+03  0.25664759562E+03  0.41800000000E+01 0. -1.
        -11    1    3    3    0    0 -0.91484087396E+02 -0.21514557634E+03  0.33675824279E+03  0.40995496259E+03  0.00000000000E+00 0.  1.
         11    1    3    3    0    0 -0.46832545194E+02 -0.21164565582E+02  0.11874213277E+03  0.12938670805E+03  0.00000000000E+00 0. -1.
</event>
<event>
 7    1  0.5831876E-006  0.8499878E+02  0.7561462E-02  0.1315436E+00
          2   -1    0    0  501    0  0.00000000000E+00  0.00000000000E+00  0.23443417150E+03  0.23443417150E+03  0.00000000000E+00 0. -1.
         -2   -1    0    0    0  501 -0.00000000000E+00 -0.00000000000E+00 -0.68923690607E+02  0.68923690607E+02  0.00000000000E+00 0.  1.
         23    2    1    2    0    0  0.12442496753E+02 -0.86345539562E+01 -0.46804582771E+01  0.91598050335E+02  0.90215990202E+02 0.  0.
          5    1    1    2  502    0  0.25150330011E+02  0.26929696053E+02  0.16535886595E+03  0.16946614581E+03  0.41800000000E+01 0. -1.
         -5    1    1    2    0  502 -0.37592826764E+02 -0.18295142097E+02  0.48320732211E+01  0.42293665957E+02  0.41800000000E+01 0. -1.
        -11    1    3    3    0    0  0.12470673171E+02 -0.48984460402E+02 -0.77231697009E+01  0.51133574102E+02  0.00000000000E+00 0.  1.
         11    1    3    3    0    0 -0.28176417897E-01  0.40349906445E+02  0.30427114238E+01  0.40464476234E+02  0.00000000000E+00 0. -1.
</event>
<event>
 7    1  0.5831876E-006  0.1866867E+03  0.7561462E-02  0.1161484E+00
         -2   -1    0    0    0  501 -0.00000000000E+00  0.00000000000E+00  0.21127220017E+02  0.21127220017E+02  0.00000000000E+00 0.  1.
          2   -1    0    0  501    0  0.00000000000E+00 -0.00000000000E+00 -0.32159985780E+04  0.32159985780E+04  0.00000000000E+00 0. -1.
         23    2    1    2    0    0 -0.16554779681E+03 -0.11822234027E+02 -0.50796516225E+03  0.54219384001E+03  0.91649963653E+02 0.  0.
          5    1    1    2  502    0  0.12100650804E+03 -0.49639682399E+02 -0.18205408376E+04  0.18252378165E+04  0.41800000000E+01 0.  1.
         -5    1    1    2    0  502  0.44541288771E+02  0.61461916425E+02 -0.86636535820E+03  0.86969414156E+03  0.41800000000E+01 0.  1.
        -11    1    3    3    0    0 -0.71608970416E+02  0.14449347076E+01 -0.97932676398E+02  0.12132906324E+03  0.00000000000E+00 0.  1.
         11    1    3    3    0    0 -0.93938826399E+02 -0.13267168734E+02 -0.41003248585E+03  0.42086477677E+03  0.00000000000E+00 0. -1.
</event>
<event>
 7    1  0.5831876E-006  0.9577449E+02  0.7561462E-02  0.1289441E+00
          1   -1    0    0  501    0  0.00000000000E+00  0.00000000000E+00  0.94626457318E+03  0.94626457318E+03  0.00000000000E+00 0. -1.
         -1   -1    0    0    0  501 -0.00000000000E+00 -0.00000000000E+00 -0.15533343770E+02  0.15533343770E+02  0.00000000000E+00 0.  1.
         23    2    1    2    0    0  0.48613308273E+02 -0.14584831533E+02  0.48473205602E+03  0.49581548850E+03  0.91059658778E+02 0.  0.
          5    1    1    2  502    0 -0.68192429051E+02  0.19276640403E+02  0.12065377101E+03  0.13998786056E+03  0.41800000000E+01 0.  1.
         -5    1    1    2    0  502  0.19579120778E+02 -0.46918088701E+01  0.32534540238E+03  0.32599456788E+03  0.41800000000E+01 0.  1.
        -11    1    3    3    0    0  0.57597196232E+02  0.22503688696E+02  0.36340262342E+03  0.36862626023E+03  0.00000000000E+00 0.  1.
         11    1    3    3    0    0 -0.89838879590E+01 -0.37088520229E+02  0.12132943259E+03  0.12718922827E+03  0.00000000000E+00 0. -1.
</event>
<event>
 7    1  0.5831876E-006  0.1196339E+03  0.7561462E-02  0.1243702E+00
          1   -1    0    0  501    0  0.00000000000E+00  0.00000000000E+00  0.91100335759E+02  0.91100335759E+02  0.00000000000E+00 0. -1.
         -1   -1    0    0    0  501 -0.00000000000E+00 -0.00000000000E+00 -0.19722680876E+03  0.19722680876E+03  0.00000000000E+00 0.  1.
         23    2    1    2    0    0  0.61830353279E+02  0.26670732884E+01 -0.10276318485E+03  0.14872263851E+03  0.87909300857E+02 0.  0.
          5    1    1    2  502    0 -0.61204932255E+02 -0.53177357432E+02  0.20269290739E+02  0.83679099080E+02  0.41800000000E+01 0. -1.
         -5    1    1    2    0  502 -0.62542102442E+00  0.50510284144E+02 -0.23632578890E+02  0.55925406934E+02  0.41800000000E+01 0. -1.
        -11    1    3    3    0    0  0.26532038520E+02  0.45022091468E+02 -0.46570580460E+02  0.69998262497E+02  0.00000000000E+00 0.  1.
         11    1    3    3    0    0  0.35298314760E+02 -0.42355018180E+02 -0.56192604392E+02  0.78724376011E+02  0.00000000000E+00 0. -1.
</event>
<event>
 7    1  0.5831876E-006  0.1195828E+03  0.7561462E-02  0.1243787E+00
          1   -1    0    0  501    0  0.00000000000E+00  0.00000000000E+00  0.11483203553E+03  0.11483203553E+03  0.00000000000E+00 0. -1.
         -1   -1    0    0    0  501 -0.00000000000E+00 -0.00000000000E+00 -0.20923933555E+03  0.20923933555E+03  0.00000000000E+00 0.  1.
         23    2    1    2    0    0  0.98134957992E+02  0.42644567575E+02 -0.73865789358E+02  0.15818774064E+03  0.90100928558E+02 0.  0.
          5    1    1    2  502    0 -0.57605120473E+02  0.53802727606E+01  0.46171272561E+02  0.74138762126E+02  0.41800000000E+01 0. -1.
         -5    1    1    2    0  502 -0.40529837519E+02 -0.48024840335E+02 -0.66712783221E+02  0.91744868324E+02  0.41800000000E+01 0. -1.
        -11    1    3    3    0    0  0.82286525550E+01  0.25313282659E+02 -0.59925758034E+02  0.65571102460E+02  0.00000000000E+00 0.  1.
         11    1    3    3    0    0  0.89906305437E+02  0.17331284916E+02 -0.13940031324E+02  0.92616638179E+02  0.00000000000E+00 0. -1.
</event>
<event>
 7    1  0.5831876E-006  0.2671274E+03  0.7561462E-02  0.1102935E+00
          2   -1    0    0  501    0  0.00000000000E+00  0.00000000000E+00  0.93417607450E+03  0.93417607450E+03  0.00000000000E+00 0. -1.
         -2   -1    0    0    0  501 -0.00000000000E+00 -0.00000000000E+00 -0.78693520550E+02  0.78693520550E+02  0.00000000000E+00 0.  1.
         23    2    1    2    0    0 -0.11458834723E+03  0.21496038705E+03  0.33619637220E+03  0.42580046460E+03  0.94549339759E+02 0.  0.
          5    1    1    2  502    0  0.24040453527E+02  0.13003945603E+02  0.39711711116E+02  0.48389445201E+02  0.41800000000E+01 0.  1.
         -5    1    1    2    0  502  0.90547893703E+02 -0.22796433266E+03  0.47957447063E+03  0.53867968525E+03  0.41800000000E+01 0.  1.
        -11    1    3    3    0    0 -0.29147910722E+02  0.15296579985E+03  0.20296205376E+03  0.25581581634E+03  0.00000000000E+00 0.  1.
         11    1    3    3    0    0 -0.85440436508E+02  0.61994587202E+02  0.13323431845E+03  0.16998464826E+03  0.00000000000E+00 0. -1.
</event>
<event>
 7    1  0.5831876E-006  0.1243633E+03  0.7561462E-02  0.1236068E+00
         -2   -1    0    0    0  501 -0.00000000000E+00  0.00000000000E+00  0.81562276164E+02  0.81562276164E+02  0.00000000000E+00 0.  1.
          2   -1    0    0  501    0  0.00000000000E+00 -0.00000000000E+00 -0.39894140708E+03  0.39894140708E+03  0.00000000000E+00 0. -1.
         23    2    1    2    0    0 -0.77492870524E+02  0.55421473820E+02 -0.28543571653E+01  0.12886432547E+03  0.86724750109E+02 0.  0.
          5    1    1    2  502    0  0.53717209198E+02  0.31805216829E+02 -0.90487834821E+02  0.11001195859E+03  0.41800000000E+01 0. -1.
         -5    1    1    2    0  502  0.23775661325E+02 -0.87226690649E+02 -0.22403693893E+03  0.24162739919E+03  0.41800000000E+01 0. -1.
        -11    1    3    3    0    0 -0.23297125629E+02  0.21609169566E+02  0.40637223802E+02  0.51585814235E+02  0.00000000000E+00 0.  1.
         11    1    3    3    0    0 -0.54195744895E+02  0.33812304253E+02 -0.43491580967E+02  0.77278511235E+02  0.00000000000E+00 0. -1.
</event>
<event>
 7    1  0.5831876E-006  0.9080639E+02  0.7561462E-02  0.1300911E+00
         -4   -1    0    0    0  501 -0.00000000000E+00  0.00000000000E+00  0.67867493340E+02  0.67867493340E+02  0.00000000000E+00 0.  1.
          4   -1    0    0  501    0  0.00000000000E+00 -0.00000000000E+00 -0.18218668654E+03  0.18218668654E+03  0.00000000000E+00 0. -1.
         23    2    1    2    0    0 -0.13607311948E+02  0.96079422582E+01 -0.25941379590E+02  0.95959973627E+02  0.90872932552E+02 0.  0.
          5    1    1    2  502    0  0.44630277565E+01  0.39136833247E+02  0.12557916520E+02  0.41554590609E+02  0.41800000000E+01 0.  1.
         -5    1    1    2    0  502  0.91442841914E+01 -0.48744775505E+02 -0.10093573013E+03  0.11253961564E+03  0.41800000000E+01 0.  1.
        -11    1    3    3    0    0  0.36639242464E+02  0.18750913496E+02 -0.88032779697E+01  0.42089530150E+02  0.00000000000E+00 0.  1.
         11    1    3    3    0    0 -0.50246554412E+02 -0.91429712375E+01 -0.17138101620E+02  0.53870443477E+02  0.00000000000E+00 0. -1.
</event>
<event>
 7    1  0.5831876E-006  0.1023572E+03  0.7561462E-02  0.1275416E+00
         -1   -1    0    0    0  501 -0.00000000000E+00  0.00000000000E+00  0.89840605694E+02  0.89840605694E+02  0.00000000000E+00 0.  1.
          1   -1    0    0  501    0  0.00000000000E+00 -0.00000000000E+00 -0.13652244807E+03  0.13652244807E+03  0.00000000000E+00 0. -1.
         23    2    1    2    0    0  0.76898001314E+01 -0.44246852212E+01 -0.36422188373E+01  0.93777250471E+02  0.93285562026E+02 0.  0.
          5    1    1    2  502    0  0.35216261042E+02  0.50311135118E+02 -0.13388548461E+02  0.62993023333E+02  0.41800000000E+01 0.  1.
         -5    1    1    2    0  502 -0.42906061174E+02 -0.45886449897E+02 -0.29651075082E+02  0.69592779964E+02  0.41800000000E+01 0.  1.
        -11    1    3    3    0    0  0.40451116124E+02  0.13764243482E+02  0.22303591788E+02  0.48199558099E+02  0.00000000000E+00 0.  1.
         11    1    3    3    0    0 -0.32761315992E+02 -0.18188928704E+02 -0.25945810626E+02  0.45577692372E+02  0.00000000000E+00 0. -1.
</event>
<event>
 7    1  0.5831876E-006  0.9937331E+02  0.7561462E-02  0.1281619E+00
         -1   -1    0    0    0  501 -0.00000000000E+00  0.00000000000E+00  0.57624478701E+02  0.57624478701E+02  0.00000000000E+00 0.  1.
          1   -1    0    0  501    0  0.00000000000E+00 -0.00000000000E+00 -0.22303951521E+03  0.22303951521E+03  0.00000000000E+00 0. -1.
         23    2    1    2    0    0 -0.18558126542E+02 -0.13712385543E+02 -0.34078852635E+02  0.97827803777E+02  0.88749520657E+02 0.  0.
          5    1    1    2  502    0  0.67979239960E+02  0.17508871275E+02 -0.45906323389E+02  0.83979762836E+02  0.41800000000E+01 0.  1.
         -5    1    1    2    0  502 -0.49421113418E+02 -0.37964857324E+01 -0.85429860484E+02  0.98856427296E+02  0.41800000000E+01 0.  1.
        -11    1    3    3    0    0 -0.38194231463E+02 -0.33500550806E+02  0.36291676874E+01  0.50933850035E+02  0.00000000000E+00 0.  1.
         11    1    3    3    0    0  0.19636104921E+02  0.19788165263E+02 -0.37708020322E+02  0.46893953742E+02  0.00000000000E+00 0. -1.
</event>
<event>
 7    1  0.5831876E-006  0.2100502E+03  0.7561462E-02  0.1141526E+00
         -1   -1    0    0    0  501 -0.00000000000E+00  0.00000000000E+00  0.11762816802E+03  0.11762816802E+03  0.00000000000E+00 0.  1.
          1   -1    0    0  501    0  0.00000000000E+00 -0.00000000000E+00 -0.51611538712E+03  0.51611538712E+03  0.00000000000E+00 0. -1.
         23    2    1    2    0    0 -0.32217254771E+02  0.18141002656E+03 -0.33214402424E+02  0.20593604348E+03  0.85784079162E+02 0.  0.
          5    1    1    2  502    0 -0.30689205355E+02 -0.13626002591E+03 -0.18736521420E+03  0.23373450297E+03  0.41800000000E+01 0. -1.
         -5    1    1    2    0  502  0.62906460125E+02 -0.45150000642E+02 -0.17790760247E+03  0.19407300869E+03  0.41800000000E+01 0. -1.
        -11    1    3    3    0    0  0.23106589951E+02  0.11045294866E+03 -0.11896484299E+02  0.11346935580E+03  0.00000000000E+00 0.  1.
         11    1    3    3    0    0 -0.55323844721E+02  0.70957077894E+02 -0.21317918125E+02  0.92466687683E+02  0.00000000000E+00 0. -1.
</event>
<event>
 7    1  0.5831876E-006  0.1025764E+03  0.7561462E-02  0.1274970E+00
         -2   -1    0    0    0  501 -0.00000000000E+00  0.00000000000E+00  0.43992042498E+02  0.43992042498E+02  0.00000000000E+00 0.  1.
          2   -1    0    0  501    0  0.00000000000E+00 -0.00000000000E+00 -0.28713320906E+03  0.28713320906E+03  0.00000000000E+00 0. -1.
         23    2    1    2    0    0  0.16359431621E+02 -0.36112052968E+01 -0.63116647388E+02  0.11337095221E+03  0.92674644971E+02 0.  0.
          5    1    1    2  502    0  0.40920231805E+02  0.35593714637E+02 -0.10308640894E+03  0.11655753086E+03  0.41800000000E+01 0. -1.
         -5    1    1    2    0  502 -0.57279663426E+02 -0.31982509340E+02 -0.76938110232E+02  0.10119676849E+03  0.41800000000E+01 0.  1.
        -11    1    3    3    0    0  0.14023085874E+02  0.39464400681E+02 -0.55556634433E+02  0.69574603757E+02  0.00000000000E+00 0. -1.
         11    1    3    3    0    0  0.23363457471E+01 -0.43075605977E+02 -0.75600129556E+01  0.43796348451E+02  0.00000000000E+00 0.  1.
</event>
<event>
 7    1  0.5831876E-006  0.1365673E+03  0.7561462E-02  0.1218024E+00
         -2   -1    0    0    0  501 -0.00000000000E+00  0.00000000000E+00  0.19003942308E+02  0.19003942308E+02  0.00000000000E+00 0.  1.
          2   -1    0    0  501    0  0.00000000000E+00 -0.00000000000E+00 -0.14778875870E+04  0.14778875870E+04  0.00000000000E+00 0. -1.
         23    2    1    2    0    0 -0.12218133323E+03  0.27495811277E+02 -0.57988395726E+03  0.60024667891E+03  0.91358490777E+02 0.  0.
          5    1    1    2  502    0  0.48786643317E+02  0.97656950402E+01 -0.67183394972E+03  0.67368674751E+03  0.41800000000E+01 0.  1.
         -5    1    1    2    0  502  0.73394689910E+02 -0.37261506317E+02 -0.20716573769E+03  0.22295810286E+03  0.41800000000E+01 0.  1.
        -11    1    3    3    0    0 -0.13805588882E+01  0.19685794544E+02 -0.22764088043E+02  0.30127066802E+02  0.00000000000E+00 0.  1.
         11    1    3    3    0    0 -0.12080077434E+03  0.78100167332E+01 -0.55711986921E+03  0.57011961211E+03  0.00000000000E+00 0. -1.
</event>
<event>
 7    1  0.5831876E-006  0.1598440E+03  0.7561462E-02  0.1188873E+00
          1   -1    0    0  501    0  0.00000000000E+00  0.00000000000E+00  0.14617740928E+04  0.14617740928E+04  0.00000000000E+00 0. -1.
         -1   -1    0    0    0  501 -0.00000000000E+00 -0.00000000000E+00 -0.24644386014E+02  0.24644386014E+02  0.00000000000E+00 0.  1.
         23    2    1    2    0    0  0.26513872211E+02  0.12112828017E+03  0.31440313413E+03  0.34996140439E+03  0.90821848356E+02 0.  0.
          5    1    1    2  502    0 -0.61041716903E+02 -0.12434787925E+03  0.96564840969E+03  0.97554231575E+03  0.41800000000E+01 0.  1.
         -5    1    1    2    0  502  0.34527844692E+02  0.32195990751E+01  0.15707816296E+03  0.16091475867E+03  0.41800000000E+01 0.  1.
        -11    1    3    3    0    0 -0.27347614016E+02  0.49526731377E+02  0.72259019644E+02  0.91772299923E+02  0.00000000000E+00 0. -1.
         11    1    3    3    0    0  0.53861486227E+02  0.71601548796E+02  0.24214411448E+03  0.25818910447E+03  0.00000000000E+00 0.  1.
</event>
<event>
 7    1  0.5831876E-006  0.1175111E+03  0.7561462E-02  0.1247260E+00
          1   -1    0    0  501    0  0.00000000000E+00  0.00000000000E+00  0.10314759531E+04  0.10314759531E+04  0.00000000000E+00 0. -1.
         -1   -1    0    0    0  501 -0.00000000000E+00 -0.00000000000E+00 -0.13798779168E+02  0.13798779168E+02  0.00000000000E+00 0.  1.
         23    2    1    2    0    0  0.13839035081E+02 -0.50504631337E+02  0.35732027082E+03  0.37113733957E+03  0.85574015968E+02 0.  0.
          5    1    1    2  502    0 -0.85706699268E+01 -0.41447830340E+02  0.17434100378E+03  0.17945371833E+03  0.41800000000E+01 0.  1.
         -5    1    1    2    0  502 -0.52683651539E+01  0.91952461678E+02  0.48601589932E+03  0.49468367435E+03  0.41800000000E+01 0.  1.
        -11    1    3    3    0    0  0.23310406391E+02 -0.72601711704E+02  0.26762293713E+03  0.27827400178E+03  0.00000000000E+00 0.  1.
         11    1    3    3    0    0 -0.94713713102E+01  0.22097080367E+02  0.89697333686E+02  0.92863337791E+02  0.00000000000E+00 0. -1.
</event>
<event>
 7    1  0.5831876E-006  0.1004758E+03  0.7561462E-02  0.1279299E+00
          2   -1    0    0  501    0  0.00000000000E+00  0.00000000000E+00  0.53310771307E+03  0.53310771307E+03  0.00000000000E+00 0. -1.
         -2   -1    0    0    0  501 -0.00000000000E+00 -0.00000000000E+00 -0.38799028431E+02  0.38799028431E+02  0.00000000000E+00 0.  1.
         23    2    1    2    0    0  0.27902335434E+02 -0.46351801836E+02  0.81149810451E+02  0.13685263188E+03  0.96001673221E+02 0.  0.
          5    1    1    2  502    0  0.24704674069E+02 -0.11705855360E+02  0.27326605193E+03  0.27466189308E+03  0.41800000000E+01 0.  1.
         -5    1    1    2    0  502 -0.52607009503E+02  0.58057657196E+02  0.13989282226E+03  0.16039221654E+03  0.41800000000E+01 0.  1.
        -11    1    3    3    0    0  0.10558435090E+02  0.21956038929E+02 -0.56853370761E+01  0.25017419025E+02  0.00000000000E+00 0.  1.
         11    1    3    3    0    0  0.17343900344E+02 -0.68307840765E+02  0.86835147527E+02  0.11183521286E+03  0.00000000000E+00 0. -1.
</event>
<event>
 7    1  0.5831876E-006  0.9797140E+02  0.7561462E-02  0.1284621E+00
          1   -1    0    0  501    0  0.00000000000E+00  0.00000000000E+00  0.47741695732E+02  0.47741695732E+02  0.00000000000E+00 0. -1.
         -1   -1    0    0    0  501 -0.00000000000E+00 -0.00000000000E+00 -0.27640139715E+03  0.27640139715E+03  0.00000000000E+00 0.  1.
         23    2    1    2    0    0 -0.37420322828E+00 -0.91367581481E+01 -0.15170503545E+03  0.17697988723E+03  0.90685403042E+02 0.  0.
          5    1    1    2  502    0 -0.28239601986E+02 -0.44548116932E+02 -0.54520784898E+01  0.53190294250E+02  0.41800000000E+01 0. -1.
         -5    1    1    2    0  502  0.28613805215E+02  0.53684875081E+02 -0.71502587469E+02  0.93972911395E+02  0.41800000000E+01 0. -1.
        -11    1    3    3    0    0 -0.80255476864E+00 -0.45591034884E+02 -0.12103052525E+03  0.12933512515E+03  0.00000000000E+00 0.  1.
         11    1    3    3    0    0  0.42835154036E+00  0.36454276736E+02 -0.30674510206E+02  0.47644762081E+02  0.00000000000E+00 0. -1.
</event>
<event>
 7    1  0.5831876E-006  0.1899725E+03  0.7561462E-02  0.1158486E+00
         -3   -1    0    0    0  501 -0.00000000000E+00  0.00000000000E+00  0.87788824524E+03  0.87788824524E+03  0.00000000000E+00 0.  1.
          3   -1    0    0  501    0  0.00000000000E+00 -0.00000000000E+00 -0.97938786756E+02  0.97938786756E+02  0.00000000000E+00 0. -1.
         23    2    1    2    0    0  0.62591341197E+02 -0.16825740643E+03  0.72194764872E+03  0.74947750445E+03  0.90993908397E+02 0.  0.
          5    1    1    2  502    0 -0.29381570700E+01  0.96021262404E+02  0.85449924782E+02  0.12863855427E+03  0.41800000000E+01 0. -1.
         -5    1    1    2    0  502 -0.59653184127E+02  0.72236144024E+02 -0.27448115021E+02  0.97710973274E+02  0.41800000000E+01 0. -1.
        -11    1    3    3    0    0  0.45056472320E+02 -0.16638394757E+03  0.70199392749E+03  0.72284796323E+03  0.00000000000E+00 0.  1.
         11    1    3    3    0    0  0.17534868878E+02 -0.18734588577E+01  0.19953721235E+02  0.26629541223E+02  0.00000000000E+00 0. -1.
</event>
<event>
 7    1  0.5831876E-006  0.1577380E+03  0.7561462E-02  0.1191274E+00
          1   -1    0    0  501    0  0.00000000000E+00  0.00000000000E+00  0.12190612875E+03  0.12190612875E+03  0.00000000000E+00 0. -1.
         -1   -1    0    0    0  501 -0.00000000000E+00 -0.00000000000E+00 -0.28029303640E+03  0.28029303640E+03  0.00000000000E+00 0.  1.
         23    2    1    2    0    0 -0.38363057281E+02  0.12273524304E+03 -0.15680931122E+03  0.22279473628E+03  0.92264133773E+02 0.  0.
          5    1    1    2  502    0  0.54810941750E+02 -0.12811823274E+03 -0.33021069637E+02  0.14327031910E+03  0.41800000000E+01 0. -1.
         -5    1    1    2    0  502 -0.16447884469E+02  0.53829896978E+01  0.31443473205E+02  0.36134109769E+02  0.41800000000E+01 0. -1.
        -11    1    3    3    0    0 -0.54447067482E+02  0.12975074819E+03 -0.13872811565E+03  0.19759865861E+03  0.00000000000E+00 0. -1.
         11    1    3    3    0    0  0.16084010201E+02 -0.70155051504E+01 -0.18081195565E+02  0.25196077666E+02  0.00000000000E+00 0.  1.
</event>
<event>
 7    1  0.5831876E-006  0.1513968E+03  0.7561462E-02  0.1198767E+00
         -2   -1    0    0    0  501 -0.00000000000E+00  0.00000000000E+00  0.24729915558E+03  0.24729915558E+03  0.00000000000E+00 0.  1.
          2   -1    0    0  501    0  0.00000000000E+00 -0.00000000000E+00 -0.99208088030E+02  0.99208088030E+02  0.00000000000E+00 0. -1.
         23    2    1    2    0    0 -0.52387980580E+02  0.94356724412E+02  0.10392814806E+03  0.17548614937E+03  0.91359929455E+02 0.  0.
          5    1    1    2  502    0  0.91241074189E+02 -0.55242427342E+02  0.44709857147E+02  0.11572857523E+03  0.41800000000E+01 0.  1.
         -5    1    1    2    0  502 -0.38853093609E+02 -0.39114297070E+02 -0.54693765672E+00  0.55292519016E+02  0.41800000000E+01 0.  1.
        -11    1    3    3    0    0  0.14674274088E+02  0.66572235581E+02  0.42007084015E+02  0.80073665944E+02  0.00000000000E+00 0.  1.
         11    1    3    3    0    0 -0.67062254669E+02  0.27784488831E+02  0.61921064048E+02  0.95412483427E+02  0.00000000000E+00 0. -1.
</event>
<event>
 7    1  0.5831876E-006  0.1124012E+03  0.7561462E-02  0.1256187E+00
          2   -1    0    0  501    0  0.00000000000E+00  0.00000000000E+00  0.86630274254E+03  0.86630274254E+03  0.00000000000E+00 0. -1.
         -2   -1    0    0    0  501 -0.00000000000E+00 -0.00000000000E+00 -0.16471841180E+02  0.16471841180E+02  0.00000000000E+00 0.  1.
         23    2    1    2    0    0 -0.87252164715E+00  0.49678033987E+02  0.31538994783E+03  0.33167179404E+03  0.89814761668E+02 0.  0.
          5    1    1    2  502    0 -0.45485301308E+02 -0.67255247083E+02  0.26814980584E+03  0.28020344692E+03  0.41800000000E+01 0.  1.
         -5    1    1    2    0  502  0.46357822955E+02  0.17577213096E+02  0.26629114769E+03  0.27089934276E+03  0.41800000000E+01 0.  1.
        -11    1    3    3    0    0 -0.23507176641E+02 -0.13172583232E+02  0.39543369119E+02  0.47851670231E+02  0.00000000000E+00 0.  1.
         11    1    3    3    0    0  0.22634654994E+02  0.62850617219E+02  0.27584657871E+03  0.28382012381E+03  0.00000000000E+00 0. -1.
</event>
<event>
 7    1  0.5831876E-006  0.8189530E+02  0.7561462E-02  0.1323757E+00
         -3   -1    0    0    0  501 -0.00000000000E+00  0.00000000000E+00  0.34754942753E+02  0.34754942753E+02  0.00000000000E+00 0.  1.
          3   -1    0    0  501    0  0.00000000000E+00 -0.00000000000E+00 -0.50929392668E+03  0.50929392668E+03  0.00000000000E+00 0. -1.
         23    2    1    2    0    0 -0.14988832139E+02  0.42433709539E+02 -0.62520122443E+02  0.11111354636E+03  0.80076024382E+02 0.  0.
          5    1    1    2  502    0 -0.14009956734E+02  0.14796673009E+02 -0.57096492885E+01  0.21570649384E+02  0.41800000000E+01 0.  1.
         -5    1    1    2    0  502  0.28998788874E+02 -0.57230382548E+02 -0.40630921220E+03  0.41136467369E+03  0.41800000000E+01 0.  1.
        -11    1    3    3    0    0 -0.38291253915E+02  0.11527529541E+02 -0.60285520698E+02  0.72342574391E+02  0.00000000000E+00 0. -1.
         11    1    3    3    0    0  0.23302421776E+02  0.30906179998E+02 -0.22346017448E+01  0.38770971972E+02  0.00000000000E+00 0.  1.
</event>
<event>
 7    1  0.5831876E-006  0.1192571E+03  0.7561462E-02  0.1244328E+00
          1   -1    0    0  501    0  0.00000000000E+00  0.00000000000E+00  0.11234947513E+04  0.11234947513E+04  0.00000000000E+00 0. -1.
         -1   -1    0    0    0  501 -0.00000000000E+00 -0.00000000000E+00 -0.14182404279E+02  0.14182404279E+02  0.00000000000E+00 0.  1.
         23    2    1    2    0    0  0.14289695232E+02  0.57997553366E+02  0.34594936871E+03  0.36183061357E+03  0.87592897108E+02 0.  0.
          5    1    1    2  502    0 -0.24678072679E+02 -0.93843782758E+02  0.62395113544E+03  0.63146508585E+03  0.41800000000E+01 0.  1.
         -5    1    1    2    0  502  0.10388377447E+02  0.35846229393E+02  0.13941184289E+03  0.14438145617E+03  0.41800000000E+01 0.  1.
        -11    1    3    3    0    0  0.40693773524E+02  0.64846447702E+02  0.21936064284E+03  0.23233625763E+03  0.00000000000E+00 0.  1.
         11    1    3    3    0    0 -0.26404078291E+02 -0.68488943366E+01  0.12658872586E+03  0.12949435594E+03  0.00000000000E+00 0. -1.
</event>
<event>
 7    1  0.6982502E-006  0.2069880E+03  0.7561462E-02  0.1143974E+00
         -1   -1    0    0    0  501 -0.00000000000E+00  0.00000000000E+00  0.72685491041E+03  0.72685491041E+03  0.00000000000E+00 0.  1.
          1   -1    0    0  501    0  0.00000000000E+00 -0.00000000000E+00 -0.73725438159E+02  0.73725438159E+02  0.00000000000E+00 0. -1.
         23    2    1    2    0    0  0.60946272550E+01  0.20052001325E+03  0.37854179333E+03  0.43823921329E+03  0.92272956864E+02 0.  0.
          5    1    1    2  502    0 -0.10820803003E+02 -0.47098333925E+02  0.16942145037E+03  0.17622838330E+03  0.41800000000E+01 0.  1.
         -5    1    1    2    0  502  0.47261757485E+01 -0.15342167932E+03  0.10516622855E+03  0.18611275198E+03  0.41800000000E+01 0.  1.
        -11    1    3    3    0    0 -0.30326700287E+02  0.11572782434E+03  0.27286929960E+03  0.29794343883E+03  0.00000000000E+00 0.  1.
         11    1    3    3    0    0  0.36421327542E+02  0.84792188900E+02  0.10567249373E+03  0.14029577446E+03  0.00000000000E+00 0. -1.
</event>
<event>
 7    1  0.5831876E-006  0.1292570E+03  0.7561462E-02  0.1228562E+00
          1   -1    0    0  501    0  0.00000000000E+00  0.00000000000E+00  0.72062128925E+02  0.72062128925E+02  0.00000000000E+00 0. -1.
         -1   -1    0    0    0  501 -0.00000000000E+00 -0.00000000000E+00 -0.52227506135E+03  0.52227506135E+03  0.00000000000E+00 0.  1.
         23    2    1    2    0    0 -0.57896453936E+02  0.44416289978E+02 -0.43300272754E+03  0.44849630442E+03  0.91283989973E+02 0.  0.
          5    1    1    2  502    0  0.39072139593E+01 -0.79149345897E+02 -0.43522235599E+00  0.79357085981E+02  0.41800000000E+01 0.  1.
         -5    1    1    2    0  502  0.53989239977E+02  0.34733055919E+02 -0.16774982525E+02  0.66483799873E+02  0.41800000000E+01 0.  1.
        -11    1    3    3    0    0 -0.81683862542E+02  0.30047308062E+02 -0.28837940272E+03  0.30122711371E+03  0.00000000000E+00 0. -1.
         11    1    3    3    0    0  0.23787408605E+02  0.14368981916E+02 -0.14462332482E+03  0.14726919070E+03  0.00000000000E+00 0.  1.
</event>
<event>
 7    1  0.5831876E-006  0.1145617E+03  0.7561462E-02  0.1252348E+00
          1   -1    0    0  501    0  0.00000000000E+00  0.00000000000E+00  0.99457269782E+02  0.99457269782E+02  0.00000000000E+00 0. -1.
         -1   -1    0    0    0  501 -0.00000000000E+00 -0.00000000000E+00 -0.20300497638E+03  0.20300497638E+03  0.00000000000E+00 0.  1.
         23    2    1    2    0    0 -0.32344873067E+02 -0.34957718253E+02 -0.12902336050E+03  0.16620952163E+03  0.93329227179E+02 0.  0.
          5    1    1    2  502    0  0.20976351606E+02  0.77964209258E+02 -0.68065268902E+01  0.81130921727E+02  0.41800000000E+01 0. -1.
         -5    1    1    2    0  502  0.11368521461E+02 -0.43006491004E+02  0.32282180788E+02  0.55121802811E+02  0.41800000000E+01 0. -1.
        -11    1    3    3    0    0 -0.32243603752E+02 -0.65526451591E+02 -0.10172995734E+03  0.12522919013E+03  0.00000000000E+00 0.  1.
         11    1    3    3    0    0 -0.10126931545E+00  0.30568733338E+02 -0.27293403157E+02  0.40980331492E+02  0.00000000000E+00 0. -1.
</event>
<event>
 7    1  0.5831876E-006  0.1254227E+03  0.7561462E-02  0.1234410E+00
          2   -1    0    0  501    0  0.00000000000E+00  0.00000000000E+00  0.25661910165E+03  0.25661910165E+03  0.00000000000E+00 0. -1.
         -2   -1    0    0    0  501 -0.00000000000E+00 -0.00000000000E+00 -0.80331724861E+02  0.80331724861E+02  0.00000000000E+00 0.  1.
         23    2    1    2    0    0 -0.87437735042E+01  0.93166455920E+02  0.77084968693E+02  0.15189629337E+03  0.91509286183E+02 0.  0.
          5    1    1    2  502    0  0.52132624744E+02 -0.97381375280E+02  0.57570142132E+02  0.12463039950E+03  0.41800000000E+01 0.  1.
         -5    1    1    2    0  502 -0.43388851239E+02  0.42149193608E+01  0.41632265968E+02  0.60424133645E+02  0.41800000000E+01 0.  1.
        -11    1    3    3    0    0 -0.10731951862E+02  0.15666022701E+02 -0.20050821187E+02  0.27615837636E+02  0.00000000000E+00 0.  1.
         11    1    3    3    0    0  0.19881783580E+01  0.77500433218E+02  0.97135789880E+02  0.12428045574E+03  0.00000000000E+00 0. -1.
</event>
<event>
 7    1  0.5831876E-006  0.9313033E+02  0.7561462E-02  0.1295443E+00
          1   -1    0    0  501    0  0.00000000000E+00  0.00000000000E+00  0.11624308706E+03  0.11624308706E+03  0.00000000000E+00 0. -1.
         -1   -1    0    0    0  501 -0.00000000000E+00 -0.00000000000E+00 -0.97873524063E+02  0.97873524063E+02  0.00000000000E+00 0.  1.
         23    2    1    2    0    0 -0.10367882111E+02  0.22629949635E+02  0.64716933284E+01  0.92652445364E+02  0.89011152208E+02 0.  0.
          5    1    1    2  502    0  0.50779107979E+02 -0.41219375063E+02  0.31454061037E+02  0.72693775823E+02  0.41800000000E+01 0. -1.
         -5    1    1    2    0  502 -0.40411225867E+02  0.18589425428E+02 -0.19556191367E+02  0.48770389937E+02  0.41800000000E+01 0.  1.
        -11    1    3    3    0    0 -0.36580901048E+02  0.31601467508E+02 -0.21835134704E+02  0.53043267034E+02  0.00000000000E+00 0.  1.
         11    1    3    3    0    0  0.26213018936E+02 -0.89715178724E+01  0.28306828033E+02  0.39609178330E+02  0.00000000000E+00 0. -1.
</event>
<event>
 7    1  0.5831876E-006  0.1182668E+03  0.7561462E-02  0.1245984E+00
         -1   -1    0    0    0  501 -0.00000000000E+00  0.00000000000E+00  0.21485403047E+02  0.21485403047E+02  0.00000000000E+00 0.  1.
          1   -1    0    0  501    0  0.00000000000E+00 -0.00000000000E+00 -0.70661337612E+03  0.70661337612E+03  0.00000000000E+00 0. -1.
         23    2    1    2    0    0  0.44836207570E+02 -0.12645986754E+02 -0.23189667490E+03  0.25562077256E+03  0.96931445090E+02 0.  0.
          5    1    1    2  502    0  0.14387447461E+02 -0.46199706169E+02 -0.19970638060E+03  0.20552742480E+03  0.41800000000E+01 0. -1.
         -5    1    1    2    0  502 -0.59223655031E+02  0.58845692923E+02 -0.25352491758E+03  0.26695058181E+03  0.41800000000E+01 0. -1.
        -11    1    3    3    0    0  0.45946684339E+02 -0.49479308892E+02 -0.11850811632E+03  0.13639455064E+03  0.00000000000E+00 0.  1.
         11    1    3    3    0    0 -0.11104767686E+01  0.36833322138E+02 -0.11338855857E+03  0.11922622192E+03  0.00000000000E+00 0. -1.
</event>
<event>
 7    1  0.5831876E-006  0.1914248E+03  0.7561462E-02  0.1157183E+00
          1   -1    0    0  501    0  0.00000000000E+00  0.00000000000E+00  0.49384119873E+03  0.49384119873E+03  0.00000000000E+00 0. -1.
         -1   -1    0    0    0  501 -0.00000000000E+00 -0.00000000000E+00 -0.92010739037E+02  0.92010739037E+02  0.00000000000E+00 0.  1.
         23    2    1    2    0    0  0.17442060439E+03 -0.58800106991E+02  0.18511478538E+03  0.27521845635E+03  0.87164873257E+02 0.  0.
          5    1    1    2  502    0 -0.89551699103E+02  0.26949587402E+02  0.22521653099E+02  0.96283354385E+02  0.41800000000E+01 0.  1.
         -5    1    1    2    0  502 -0.84868905292E+02  0.31850519588E+02  0.19419402121E+03  0.21435012703E+03  0.41800000000E+01 0.  1.
        -11    1    3    3    0    0 -0.97192865834E+00 -0.18504994508E+02  0.22727692492E+01  0.18669358508E+02  0.00000000000E+00 0.  1.
         11    1    3    3    0    0  0.17539253305E+03 -0.40295112483E+02  0.18284201613E+03  0.25654909784E+03  0.00000000000E+00 0. -1.
</event>
<event>
 7    1  0.5831876E-006  0.1149296E+03  0.7561462E-02  0.1251704E+00
          2   -1    0    0  501    0  0.00000000000E+00  0.00000000000E+00  0.85084927424E+02  0.85084927424E+02  0.00000000000E+00 0. -1.
         -2   -1    0    0    0  501 -0.00000000000E+00 -0.00000000000E+00 -0.16853711781E+03  0.16853711781E+03  0.00000000000E+00 0.  1.
         23    2    1    2    0    0  0.44479406590E+02 -0.37179250341E+02 -0.45875734742E+02  0.11726671467E+03  0.91028484909E+02 0.  0.
          5    1    1    2  502    0  0.73639321780E+01 -0.34254886054E+02  0.90738050766E+01  0.36433927242E+02  0.41800000000E+01 0. -1.
         -5    1    1    2    0  502 -0.51843338768E+02  0.71434136394E+02 -0.46650260724E+02  0.99921403326E+02  0.41800000000E+01 0.  1.
        -11    1    3    3    0    0  0.32894901018E+02  0.26030092735E+02 -0.80969283059E+01  0.42722365205E+02  0.00000000000E+00 0.  1.
         11    1    3    3    0    0  0.11584505572E+02 -0.63209343075E+02 -0.37778806436E+02  0.74544349465E+02  0.00000000000E+00 0. -1.
</event>
<event>
 7    1  0.5831876E-006  0.3029066E+03  0.7561462E-02  0.1083797E+00
          1   -1    0    0  501    0  0.00000000000E+00  0.00000000000E+00  0.90022092464E+02  0.90022092464E+02  0.00000000000E+00 0. -1.
         -1   -1    0    0    0  501 -0.00000000000E+00 -0.00000000000E+00 -0.10924872961E+04  0.10924872961E+04  0.00000000000E+00 0.  1.
         23    2    1    2    0    0 -0.49566654741E+02 -0.28545712924E+03 -0.40525389431E+03  0.50704593727E+03  0.94457597633E+02 0.  0.
          5    1    1    2  502    0  0.25628906710E+02 -0.28524184060E+01 -0.44457910834E+02  0.51565059736E+02  0.41800000000E+01 0. -1.
         -5    1    1    2    0  502  0.23937748031E+02  0.28830954764E+03 -0.55275339845E+03  0.62389839152E+03  0.41800000000E+01 0. -1.
        -11    1    3    3    0    0 -0.15507090137E+02 -0.14513639204E+03 -0.12666178507E+03  0.19325695314E+03  0.00000000000E+00 0.  1.
         11    1    3    3    0    0 -0.34059564604E+02 -0.14032073719E+03 -0.27859210925E+03  0.31378898413E+03  0.00000000000E+00 0. -1.
</event>
<event>
 7    1  0.5831876E-006  0.2088475E+03  0.7561462E-02  0.1142482E+00
         -1   -1    0    0    0  501 -0.00000000000E+00  0.00000000000E+00  0.44297367724E+03  0.44297367724E+03  0.00000000000E+00 0.  1.
          1   -1    0    0  501    0  0.00000000000E+00 -0.00000000000E+00 -0.33972724265E+03  0.33972724265E+03  0.00000000000E+00 0. -1.
         23    2    1    2    0    0  0.86687453384E+02  0.11875562313E+03  0.35590013557E+03  0.39596610511E+03  0.92231433362E+02 0.  0.
          5    1    1    2  502    0 -0.14984425112E+03 -0.13844596497E+03 -0.24673879704E+03  0.32018446429E+03  0.41800000000E+01 0. -1.
         -5    1    1    2    0  502  0.63156797738E+02  0.19690341840E+02 -0.59149039351E+01  0.66550350494E+02  0.41800000000E+01 0.  1.
        -11    1    3    3    0    0  0.24875964930E+02  0.26916774179E+02  0.18876462733E+02  0.41226777811E+02  0.00000000000E+00 0. -1.
         11    1    3    3    0    0  0.61811488455E+02  0.91838848950E+02  0.33702367283E+03  0.35473932730E+03  0.00000000000E+00 0.  1.
</event>
<event>
 7    1  0.5831876E-006  0.7995896E+02  0.7561462E-02  0.1329168E+00
         -2   -1    0    0    0  501 -0.00000000000E+00  0.00000000000E+00  0.11762711874E+02  0.11762711874E+02  0.00000000000E+00 0.  1.
          2   -1    0    0  501    0  0.00000000000E+00 -0.00000000000E+00 -0.12168173087E+04  0.12168173087E+04  0.00000000000E+00 0. -1.
         23    2    1    2    0    0  0.14186995616E+01 -0.43526167895E+02 -0.39258569488E+03  0.40538602886E+03  0.91201779450E+02 0.  0.
          5    1    1    2  502    0  0.31815895390E+01  0.54970519849E+02 -0.80729356126E+03  0.80917998431E+03  0.41800000000E+01 0.  1.
         -5    1    1    2    0  502 -0.46002891006E+01 -0.11444351954E+02 -0.51753406551E+01  0.14014007362E+02  0.41800000000E+01 0.  1.
        -11    1    3    3    0    0 -0.19463385387E+02 -0.61259885481E+02 -0.34071388665E+03  0.34672402497E+03  0.00000000000E+00 0. -1.
         11    1    3    3    0    0  0.20882084948E+02  0.17733717586E+02 -0.51871808233E+02  0.58662003892E+02  0.00000000000E+00 0.  1.
</event>
<event>
 7    1  0.5831876E-006  0.1217163E+03  0.7561462E-02  0.1240292E+00
          2   -1    0    0  501    0  0.00000000000E+00  0.00000000000E+00  0.37868028254E+03  0.37868028254E+03  0.00000000000E+00 0.  1.
         -2   -1    0    0    0  501 -0.00000000000E+00 -0.00000000000E+00 -0.42049783377E+02  0.42049783377E+02  0.00000000000E+00 0. -1.
         23    2    1    2    0    0  0.47969879406E+02  0.36998592885E+02  0.18481490656E+03  0.21489973311E+03  0.91407551099E+02 0.  0.
          5    1    1    2  502    0  0.42136225151E+02 -0.16959233398E+02  0.39077757250E+02  0.60063471254E+02  0.41800000000E+01 0. -1.
         -5    1    1    2    0  502 -0.90106104557E+02 -0.20039359487E+02  0.11273783535E+03  0.14576686155E+03  0.41800000000E+01 0. -1.
        -11    1    3    3    0    0  0.54253377125E+02 -0.12373908880E+02  0.12672407390E+03  0.13840351677E+03  0.00000000000E+00 0.  1.
         11    1    3    3    0    0 -0.62834977193E+01  0.49372501765E+02  0.58090832666E+02  0.76496216337E+02  0.00000000000E+00 0. -1.
</event>
<event>
 7    1  0.5831876E-006  0.6128526E+02  0.7561462E-02  0.1392516E+00
         -2   -1    0    0    0  501 -0.00000000000E+00  0.00000000000E+00  0.22389539374E+02  0.22389539374E+02  0.00000000000E+00 0.  1.
          2   -1    0    0  501    0  0.00000000000E+00 -0.00000000000E+00 -0.69092613597E+03  0.69092613597E+03  0.00000000000E+00 0. -1.
         23    2    1    2    0    0 -0.43731677320E+01  0.24680738467E+01 -0.11897291027E+03  0.14967289546E+03  0.90676382110E+02 0.  0.
          5    1    1    2  502    0 -0.10974981067E+02 -0.36058945943E+02 -0.50127221633E+03  0.50270468971E+03  0.41800000000E+01 0.  1.
         -5    1    1    2    0  502  0.15348148799E+02  0.33590872096E+02 -0.48291469992E+02  0.60938090172E+02  0.41800000000E+01 0.  1.
        -11    1    3    3    0    0 -0.36650327320E+01  0.24834100834E+02 -0.12418489980E+03  0.12669670227E+03  0.00000000000E+00 0. -1.
         11    1    3    3    0    0 -0.70813500004E+00 -0.22366026987E+02  0.52119895303E+01  0.22976193184E+02  0.00000000000E+00 0.  1.
</event>
<event>
 7    1  0.5831876E-006  0.3096316E+03  0.7561462E-02  0.1080523E+00
          2   -1    0    0  501    0  0.00000000000E+00  0.00000000000E+00  0.73208982328E+03  0.73208982328E+03  0.00000000000E+00 0. -1.
         -2   -1    0    0    0  501 -0.00000000000E+00 -0.00000000000E+00 -0.13316912404E+03  0.13316912404E+03  0.00000000000E+00 0.  1.
         23    2    1    2    0    0  0.28375144407E+03 -0.58022791874E+02  0.24483446235E+03  0.39101692632E+03  0.95230227992E+02 0.  0.
          5    1    1    2  502    0 -0.41762554656E+02  0.60097733409E+02  0.76335032580E+02  0.10583174444E+03  0.41800000000E+01 0.  1.
         -5    1    1    2    0  502 -0.24198888942E+03 -0.20749415354E+01  0.27775120430E+03  0.36841027656E+03  0.41800000000E+01 0.  1.
        -11    1    3    3    0    0  0.15715022082E+03  0.14849644710E+02  0.11171087588E+03  0.19338051516E+03  0.00000000000E+00 0. -1.
         11    1    3    3    0    0  0.12660122325E+03 -0.72872436584E+02  0.13312358647E+03  0.19763641116E+03  0.00000000000E+00 0.  1.
</event>
<event>
 7    1  0.5831876E-006  0.7072472E+02  0.7561462E-02  0.1357646E+00
         -4   -1    0    0    0  501 -0.00000000000E+00  0.00000000000E+00  0.15506848851E+03  0.15506848851E+03  0.00000000000E+00 0.  1.
          4   -1    0    0  501    0  0.00000000000E+00 -0.00000000000E+00 -0.80704228916E+02  0.80704228916E+02  0.00000000000E+00 0. -1.
         23    2    1    2    0    0  0.35055208282E-01 -0.26292180605E+02  0.39186310900E+02  0.10320598168E+03  0.91785770701E+02 0.  0.
          5    1    1    2  502    0 -0.24841316263E+02 -0.22430077123E+02 -0.31559806757E+02  0.46191916565E+02  0.41800000000E+01 0.  1.
         -5    1    1    2    0  502  0.24806261055E+02  0.48722257728E+02  0.66737755455E+02  0.86374819182E+02  0.41800000000E+01 0.  1.
        -11    1    3    3    0    0 -0.21421879190E+02 -0.37180291902E+01 -0.24229878425E+02  0.32554687183E+02  0.00000000000E+00 0. -1.
         11    1    3    3    0    0  0.21456934398E+02 -0.22574151415E+02  0.63416189325E+02  0.70651294499E+02  0.00000000000E+00 0.  1.
</event>
<event>
 7    1  0.5831876E-006  0.1118710E+03  0.7561462E-02  0.1257144E+00
         -2   -1    0    0    0  501 -0.00000000000E+00  0.00000000000E+00  0.24538525325E+02  0.24538525325E+02  0.00000000000E+00 0.  1.
          2   -1    0    0  501    0  0.00000000000E+00 -0.00000000000E+00 -0.10577825320E+04  0.10577825320E+04  0.00000000000E+00 0. -1.
         23    2    1    2    0    0  0.47012517359E+02 -0.20101257499E+02 -0.12068311426E+03  0.15980879354E+03  0.91434124296E+02 0.  0.
          5    1    1    2  502    0  0.22042991819E+02  0.47379741411E+02 -0.22929704368E+03  0.23521339253E+03  0.41800000000E+01 0.  1.
         -5    1    1    2    0  502 -0.69055509177E+02 -0.27278483911E+02 -0.68326384878E+03  0.68729887129E+03  0.41800000000E+01 0.  1.
        -11    1    3    3    0    0 -0.35111487723E+01 -0.41814069419E+02 -0.83426529452E+02  0.93384850931E+02  0.00000000000E+00 0. -1.
         11    1    3    3    0    0  0.50523666131E+02  0.21712811920E+02 -0.37256584803E+02  0.66423942611E+02  0.00000000000E+00 0.  1.
</event>
<event>
 7    1  0.5831876E-006  0.1084054E+03  0.7561462E-02  0.1263552E+00
         -1   -1    0    0    0  501 -0.00000000000E+00  0.00000000000E+00  0.13103072744E+03  0.13103072744E+03  0.00000000000E+00 0.  1.
          1   -1    0    0  501    0  0.00000000000E+00 -0.00000000000E+00 -0.11345732623E+03  0.11345732623E+03  0.00000000000E+00 0. -1.
         23    2    1    2    0    0  0.31478643559E+02  0.69448962006E+01  0.54140509949E+02  0.11023594493E+03  0.90452375057E+02 0.  0.
          5    1    1    2  502    0 -0.64482705926E+02 -0.43117755390E+02 -0.98228050456E+01  0.78301469286E+02  0.41800000000E+01 0. -1.
         -5    1    1    2    0  502  0.33004062367E+02  0.36172859190E+02 -0.26744303691E+02  0.55950639447E+02  0.41800000000E+01 0. -1.
        -11    1    3    3    0    0  0.60116670900E+02 -0.14686311924E+01  0.16810688754E+02  0.62440133360E+02  0.00000000000E+00 0. -1.
         11    1    3    3    0    0 -0.28638027341E+02  0.84135273930E+01  0.37329821195E+02  0.47795811570E+02  0.00000000000E+00 0.  1.
</event>
<event>
 7    1  0.5831876E-006  0.1359291E+03  0.7561462E-02  0.1218914E+00
         -2   -1    0    0    0  501 -0.00000000000E+00  0.00000000000E+00  0.57583546788E+02  0.57583546788E+02  0.00000000000E+00 0.  1.
          2   -1    0    0  501    0  0.00000000000E+00 -0.00000000000E+00 -0.36484543343E+03  0.36484543343E+03  0.00000000000E+00 0. -1.
         23    2    1    2    0    0 -0.86646002761E+02 -0.33780980908E+02 -0.16219363874E+03  0.20948401887E+03  0.94488587923E+02 0.  0.
          5    1    1    2  502    0  0.44743364189E+02  0.70438838481E+02 -0.37149045405E+02  0.91439174209E+02  0.41800000000E+01 0. -1.
         -5    1    1    2    0  502  0.41902638572E+02 -0.36657857573E+02 -0.10791920250E+03  0.12150578714E+03  0.41800000000E+01 0. -1.
        -11    1    3    3    0    0 -0.30730835379E+02  0.33188367194E+02 -0.51502743553E+02  0.68544763137E+02  0.00000000000E+00 0. -1.
         11    1    3    3    0    0 -0.55915167383E+02 -0.66969348102E+02 -0.11069089519E+03  0.14093925573E+03  0.00000000000E+00 0.  1.
</event>
<event>
 7    1  0.5831876E-006  0.7230791E+02  0.7561462E-02  0.1352416E+00
          1   -1    0    0  501    0  0.00000000000E+00  0.00000000000E+00  0.56029904796E+02  0.56029904796E+02  0.00000000000E+00 0. -1.
         -1   -1    0    0    0  501 -0.00000000000E+00 -0.00000000000E+00 -0.24312331394E+03  0.24312331394E+03  0.00000000000E+00 0.  1.
         23    2    1    2    0    0  0.36323271197E+02 -0.22928210242E+02 -0.64541762463E+02  0.11884270154E+03  0.90071448043E+02 0.  0.
          5    1    1    2  502    0  0.13672658492E+01 -0.27973187468E+02  0.12601489664E+02  0.30994170013E+02  0.41800000000E+01 0.  1.
         -5    1    1    2    0  502 -0.37690537046E+02  0.50901397711E+02 -0.13515313634E+03  0.14931634718E+03  0.41800000000E+01 0.  1.
        -11    1    3    3    0    0  0.27001765008E+01 -0.18749398318E+02 -0.79558277862E+02  0.81782335909E+02  0.00000000000E+00 0.  1.
         11    1    3    3    0    0  0.33623094696E+02 -0.41788119240E+01  0.15016515399E+02  0.37060365632E+02  0.00000000000E+00 0. -1.
</event>
