<event>
 8    1  0.5900800E-006  0.3291550E+02  0.7561462E-02  0.1567931E+00
          1   -1    0    0  501    0  0.00000000000E+00  0.00000000000E+00  0.12092633163E+03  0.12092633163E+03  0.00000000000E+00 0. -1.
         -1   -1    0    0    0  501 -0.00000000000E+00 -0.00000000000E+00 -0.87970637894E+02  0.87970637894E+02  0.00000000000E+00 0.  1.
         23    2    1    2    0    0 -0.24141339966E+02 -0.14337826207E+02  0.73858939594E+01  0.78167781892E+02  0.72575981844E+02 0.  0.
         23    2    1    2    0    0  0.24141339966E+02  0.14337826207E+02  0.25569799780E+02  0.13072918763E+03  0.12509167951E+03 0.  0.
          5    1    4    4  502    0  0.21918740932E+02  0.10690273654E+02 -0.49543668490E+02  0.55378340913E+02  0.41800000000E+01 0. -1.
         -5    1    4    4    0  502  0.22225990343E+01  0.36475525526E+01  0.75113468270E+02  0.75350846722E+02  0.41800000000E+01 0. -1.
        -11    1    3    3    0    0 -0.16739256804E+02  0.23053454932E+01 -0.31209437312E+02  0.35490087539E+02  0.00000000000E+00 0.  1.
         11    1    3    3    0    0 -0.74020831627E+01 -0.16643171700E+02  0.38595331271E+02  0.42677694354E+02  0.00000000000E+00 0. -1.
</event>
<event>
 8    1  0.9520339E-006  0.1023182E+03  0.7561462E-02  0.1275495E+00
         -1   -1    0    0    0  501 -0.00000000000E+00  0.00000000000E+00  0.31813129145E+03  0.31813129145E+03  0.00000000000E+00 0.  1.
          1   -1    0    0  501    0  0.00000000000E+00 -0.00000000000E+00 -0.55397874224E+02  0.55397874224E+02  0.00000000000E+00 0. -1.
         23    2    1    2    0    0  0.72808150994E+01 -0.74635069936E+02  0.13196782138E+03  0.17764588415E+03  0.92299243470E+02 0.  0.
         23    2    1    2    0    0 -0.72808150994E+01  0.74635069936E+02  0.13076559585E+03  0.19588328152E+03  0.12508882839E+03 0.  0.
          5    1    4    4  502    0 -0.47302227241E+02  0.78581403814E+01  0.10199271114E+03  0.11277959300E+03  0.41800000000E+01 0.  1.
         -5    1    4    4    0  502  0.40021412141E+02  0.66776929554E+02  0.28772884705E+02  0.83103688514E+02  0.41800000000E+01 0.  1.
        -11    1    3    3    0    0 -0.84723783672E+01 -0.31471359708E+02 -0.51842992448E+01  0.33001585351E+02  0.00000000000E+00 0. -1.
         11    1    3    3    0    0  0.15753193467E+02 -0.43163710228E+02  0.13715212062E+03  0.14464429880E+03  0.00000000000E+00 0.  1.
</event>
<event>
 8    1  0.5900800E-006  0.7191390E+02  0.7561462E-02  0.1353703E+00
          1   -1    0    0  501    0  0.00000000000E+00  0.00000000000E+00  0.10061706688E+04  0.10061706688E+04  0.00000000000E+00 0. -1.
         -1   -1    0    0    0  501 -0.00000000000E+00 -0.00000000000E+00 -0.18930004948E+02  0.18930004948E+02  0.00000000000E+00 0.  1.
         23    2    1    2    0    0  0.77749020590E+01  0.23307535743E+02  0.13494233049E+03  0.16331923066E+03  0.88656912992E+02 0.  0.
         23    2    1    2    0    0 -0.77749020590E+01 -0.23307535743E+02  0.85229833340E+03  0.86178144312E+03  0.12510442148E+03 0.  0.
          5    1    4    4  502    0  0.35113171877E+02 -0.18992094906E+02  0.74489644280E+03  0.74597708906E+03  0.41800000000E+01 0.  1.
         -5    1    4    4    0  502 -0.42888073936E+02 -0.43154408364E+01  0.10740189060E+03  0.11580435406E+03  0.41800000000E+01 0.  1.
        -11    1    3    3    0    0 -0.95597093401E+01 -0.15311807083E+02 -0.36412362631E+01  0.18414615943E+02  0.00000000000E+00 0.  1.
         11    1    3    3    0    0  0.17334611399E+02  0.38619342826E+02  0.13858356675E+03  0.14490461471E+03  0.00000000000E+00 0. -1.
</event>
<event>
 8    1  0.5900800E-006  0.1124898E+03  0.7561462E-02  0.1256028E+00
          3   -1    0    0  501    0  0.00000000000E+00  0.00000000000E+00  0.14338950845E+03  0.14338950845E+03  0.00000000000E+00 0. -1.
         -3   -1    0    0    0  501 -0.00000000000E+00 -0.00000000000E+00 -0.96548998051E+02  0.96548998051E+02  0.00000000000E+00 0.  1.
         23    2    1    2    0    0 -0.40432668093E+02 -0.11743684266E+02  0.60580140325E+01  0.10179605312E+03  0.92482550400E+02 0.  0.
         23    2    1    2    0    0  0.40432668093E+02  0.11743684266E+02  0.40782496370E+02  0.13814245338E+03  0.12508961047E+03 0.  0.
          5    1    4    4  502    0  0.78739683841E+02  0.26752984811E+02  0.48078855567E+02  0.96149408528E+02  0.41800000000E+01 0. -1.
         -5    1    4    4    0  502 -0.38307015748E+02 -0.15009300546E+02 -0.72963591969E+01  0.41993044852E+02  0.41800000000E+01 0. -1.
        -11    1    3    3    0    0  0.20036047757E+02 -0.30989228478E+02 -0.54529824065E+01  0.37302955761E+02  0.00000000000E+00 0.  1.
         11    1    3    3    0    0 -0.60468715850E+02  0.19245544212E+02  0.11510996439E+02  0.64493097364E+02  0.00000000000E+00 0. -1.
</event>
<event>
 8    1  0.5900800E-006  0.1553457E+03  0.7561462E-02  0.1194054E+00
          2   -1    0    0  501    0  0.00000000000E+00  0.00000000000E+00  0.50695994288E+02  0.50695994288E+02  0.00000000000E+00 0. -1.
         -2   -1    0    0    0  501 -0.00000000000E+00 -0.00000000000E+00 -0.56476514661E+03  0.56476514661E+03  0.00000000000E+00 0.  1.
         23    2    1    2    0    0 -0.97937076747E+02 -0.76619186521E+02 -0.29274433008E+03  0.33124598981E+03  0.92533735606E+02 0.  0.
         23    2    1    2    0    0  0.97937076747E+02  0.76619186521E+02 -0.22132482223E+03  0.28421515108E+03  0.12779438338E+03 0.  0.
          5    1    4    4  502    0  0.26365551017E+02  0.85074965899E+02 -0.59993876479E+02  0.10746920358E+03  0.41800000000E+01 0. -1.
         -5    1    4    4    0  502  0.71571525730E+02 -0.84557793780E+01 -0.16133094576E+03  0.17674594750E+03  0.41800000000E+01 0.  1.
        -11    1    3    3    0    0 -0.69208246755E+01  0.17250145696E+02 -0.74937724350E+02  0.77208340686E+02  0.00000000000E+00 0. -1.
         11    1    3    3    0    0 -0.91016252072E+02 -0.93869332217E+02 -0.21780660573E+03  0.25403764913E+03  0.00000000000E+00 0.  1.
</event>
<event>
 8    1  0.5900800E-006  0.3622481E+03  0.7561462E-02  0.1057697E+00
          1   -1    0    0  501    0  0.00000000000E+00  0.00000000000E+00  0.65223066926E+03  0.65223066926E+03  0.00000000000E+00 0. -1.
         -1   -1    0    0    0  501 -0.00000000000E+00 -0.00000000000E+00 -0.20233162876E+03  0.20233162876E+03  0.00000000000E+00 0.  1.
         23    2    1    2    0    0 -0.25318759051E+03 -0.23648754828E+03  0.22063288740E+03  0.42069568402E+03  0.90970715435E+02 0.  0.
         23    2    1    2    0    0  0.25318759051E+03  0.23648754828E+03  0.22926615310E+03  0.43386661400E+03  0.12508778241E+03 0.  0.
          5    1    4    4  502    0  0.83770225038E+01 -0.13480174216E+02  0.17682257514E+01  0.16507229484E+02  0.41800000000E+01 0.  1.
         -5    1    4    4    0  502  0.24481056801E+03  0.24996772250E+03  0.22749792735E+03  0.41735938452E+03  0.41800000000E+01 0.  1.
        -11    1    3    3    0    0 -0.17707302986E+03 -0.21609941019E+03  0.17028034169E+03  0.32718375228E+03  0.00000000000E+00 0.  1.
         11    1    3    3    0    0 -0.76114560648E+02 -0.20388138088E+02  0.50352545714E+02  0.93511931737E+02  0.00000000000E+00 0. -1.
</event>
<event>
 8    1  0.5900800E-006  0.1123103E+03  0.7561462E-02  0.1256350E+00
          2   -1    0    0  501    0  0.00000000000E+00  0.00000000000E+00  0.41178949690E+03  0.41178949690E+03  0.00000000000E+00 0. -1.
         -2   -1    0    0    0  501 -0.00000000000E+00 -0.00000000000E+00 -0.44893212865E+02  0.44893212865E+02  0.00000000000E+00 0.  1.
         23    2    1    2    0    0 -0.10082252458E+01  0.33044510836E+02  0.45150280142E+02  0.10981628050E+03  0.94488684246E+02 0.  0.
         23    2    1    2    0    0  0.10082252458E+01 -0.33044510836E+02  0.32174600389E+03  0.34686642927E+03  0.12531110293E+03 0.  0.
          5    1    4    4  502    0  0.19615408689E+02  0.44857355763E+02  0.13304297862E+03  0.14182684225E+03  0.41800000000E+01 0.  1.
         -5    1    4    4    0  502 -0.18607183443E+02 -0.77901866599E+02  0.18870302527E+03  0.20503958701E+03  0.41800000000E+01 0.  1.
        -11    1    3    3    0    0  0.23683344013E+02 -0.23633876325E+02  0.32635609039E+02  0.46739104304E+02  0.00000000000E+00 0. -1.
         11    1    3    3    0    0 -0.24691569259E+02  0.56678387160E+02  0.12514671103E+02  0.63077176192E+02  0.00000000000E+00 0.  1.
</event>
<event>
 8    1  0.5900800E-006  0.9746643E+02  0.7561462E-02  0.1285716E+00
         -1   -1    0    0    0  501 -0.00000000000E+00  0.00000000000E+00  0.23301297574E+02  0.23301297574E+02  0.00000000000E+00 0.  1.
          1   -1    0    0  501    0  0.00000000000E+00 -0.00000000000E+00 -0.56734181527E+03  0.56734181527E+03  0.00000000000E+00 0. -1.
         23    2    1    2    0    0 -0.68940940741E+01 -0.39754397356E+02 -0.24384975558E+03  0.26293735271E+03  0.89696195642E+02 0.  0.
         23    2    1    2    0    0  0.68940940741E+01  0.39754397356E+02 -0.30019076212E+03  0.32770576014E+03  0.12509448798E+03 0.  0.
          5    1    4    4  502    0 -0.40028944822E+02  0.63411592600E+02 -0.13732919996E+03  0.15652516751E+03  0.41800000000E+01 0. -1.
         -5    1    4    4    0  502  0.46923038896E+02 -0.23657195244E+02 -0.16286156215E+03  0.17118059263E+03  0.41800000000E+01 0. -1.
        -11    1    3    3    0    0 -0.30393892716E+02 -0.25093106343E+02 -0.22725671153E+03  0.23064922639E+03  0.00000000000E+00 0. -1.
         11    1    3    3    0    0  0.23499798642E+02 -0.14661291013E+02 -0.16593044052E+02  0.32288126321E+02  0.00000000000E+00 0.  1.
</event>
<event>
 8    1  0.5900800E-006  0.7942424E+02  0.7561462E-02  0.1330693E+00
         -1   -1    0    0    0  501 -0.00000000000E+00  0.00000000000E+00  0.40325773633E+02  0.40325773633E+02  0.00000000000E+00 0.  1.
          1   -1    0    0  501    0  0.00000000000E+00 -0.00000000000E+00 -0.37073998521E+03  0.37073998521E+03  0.00000000000E+00 0. -1.
         23    2    1    2    0    0  0.10254484445E+02 -0.54166121625E+02 -0.89558324042E+02  0.13412133448E+03  0.83238907815E+02 0.  0.
         23    2    1    2    0    0 -0.10254484445E+02  0.54166121625E+02 -0.24085588754E+03  0.27694442437E+03  0.12509009730E+03 0.  0.
          5    1    4    4  502    0 -0.26969268495E+02  0.53748205755E+02 -0.25018661458E+03  0.25734612019E+03  0.41800000000E+01 0.  1.
         -5    1    4    4    0  502  0.16714784050E+02  0.41791587007E+00  0.93307270366E+01  0.19598304176E+02  0.41800000000E+01 0.  1.
        -11    1    3    3    0    0 -0.15227051095E+02 -0.53732734369E+02 -0.18823533707E+02  0.58935517721E+02  0.00000000000E+00 0.  1.
         11    1    3    3    0    0  0.25481535540E+02 -0.43338725610E+00 -0.70734790334E+02  0.75185816758E+02  0.00000000000E+00 0. -1.
</event>
<event>
 8    1  0.5900800E-006  0.1770854E+03  0.7561462E-02  0.1170654E+00
         -2   -1    0    0    0  501 -0.00000000000E+00  0.00000000000E+00  0.48818733846E+02  0.48818733846E+02  0.00000000000E+00 0.  1.
          2   -1    0    0  501    0  0.00000000000E+00 -0.00000000000E+00 -0.11179596863E+04  0.11179596863E+04  0.00000000000E+00 0. -1.
         23    2    1    2    0    0 -0.14057807404E+03 -0.56023108080E+02 -0.16569447329E+03  0.24224384096E+03  0.91250405296E+02 0.  0.
         23    2    1    2    0    0  0.14057807404E+03  0.56023108080E+02 -0.90344647914E+03  0.92453457916E+03  0.12509142198E+03 0.  0.
          5    1    4    4  502    0  0.14261456045E+03  0.28614342802E+01 -0.63545019002E+03  0.65127683596E+03  0.41800000000E+01 0.  1.
         -5    1    4    4    0  502 -0.20364864131E+01  0.53161673799E+02 -0.26799628912E+03  0.27325774320E+03  0.41800000000E+01 0.  1.
        -11    1    3    3    0    0 -0.31276656455E+02  0.68346891555E+01  0.24132348657E+01  0.32105543406E+02  0.00000000000E+00 0. -1.
         11    1    3    3    0    0 -0.10930141758E+03 -0.62857797235E+02 -0.16810770816E+03  0.21013829756E+03  0.00000000000E+00 0.  1.
</event>
<event>
 8    1  0.5900800E-006  0.2997358E+03  0.7561462E-02  0.1085373E+00
          1   -1    0    0  501    0  0.00000000000E+00  0.00000000000E+00  0.80830541461E+03  0.80830541461E+03  0.00000000000E+00 0. -1.
         -1   -1    0    0    0  501 -0.00000000000E+00 -0.00000000000E+00 -0.16669744277E+03  0.16669744277E+03  0.00000000000E+00 0.  1.
         23    2    1    2    0    0 -0.16582940930E+03 -0.23749402701E+03  0.51845488920E+02  0.30705916985E+03  0.87718716410E+02 0.  0.
         23    2    1    2    0    0  0.16582940930E+03  0.23749402701E+03  0.58976248292E+03  0.66794368753E+03  0.12010902379E+03 0.  0.
          5    1    4    4  502    0  0.18016514615E+03  0.19967069873E+03  0.54305468121E+03  0.60601462607E+03  0.41800000000E+01 0. -1.
         -5    1    4    4    0  502 -0.14335736849E+02  0.37823328287E+02  0.46707801710E+02  0.61929061468E+02  0.41800000000E+01 0.  1.
        -11    1    3    3    0    0 -0.14422133378E+03 -0.21217591936E+03  0.14394705206E+02  0.25695451235E+03  0.00000000000E+00 0.  1.
         11    1    3    3    0    0 -0.21608075520E+02 -0.25318107649E+02  0.37450783714E+02  0.50104657502E+02  0.00000000000E+00 0. -1.
</event>
<event>
 8    1  0.5900800E-006  0.1057038E+03  0.7561462E-02  0.1268739E+00
         -1   -1    0    0    0  501 -0.00000000000E+00  0.00000000000E+00  0.12663223755E+02  0.12663223755E+02  0.00000000000E+00 0.  1.
          1   -1    0    0  501    0  0.00000000000E+00 -0.00000000000E+00 -0.12822937240E+04  0.12822937240E+04  0.00000000000E+00 0. -1.
         23    2    1    2    0    0  0.50654759112E+02 -0.34967793618E+02 -0.41457947537E+03  0.42861509681E+03  0.89700103706E+02 0.  0.
         23    2    1    2    0    0 -0.50654759112E+02  0.34967793618E+02 -0.85505102487E+03  0.86634185094E+03  0.12508915359E+03 0.  0.
          5    1    4    4  502    0 -0.45773033626E+02  0.60837584138E+02 -0.81290839032E+03  0.81647651877E+03  0.41800000000E+01 0.  1.
         -5    1    4    4    0  502 -0.48817254867E+01 -0.25869790521E+02 -0.42142634544E+02  0.49865332162E+02  0.41800000000E+01 0.  1.
        -11    1    3    3    0    0  0.27483687028E+02 -0.64999615495E+02 -0.28410286513E+03  0.29273664110E+03  0.00000000000E+00 0.  1.
         11    1    3    3    0    0  0.23171072084E+02  0.30031821877E+02 -0.13047661025E+03  0.13587845572E+03  0.00000000000E+00 0. -1.
</event>
<event>
 8    1  0.5900800E-006  0.1030867E+03  0.7561462E-02  0.1273936E+00
         -2   -1    0    0    0  501 -0.00000000000E+00  0.00000000000E+00  0.72891233161E+02  0.72891233161E+02  0.00000000000E+00 0.  1.
          2   -1    0    0  501    0  0.00000000000E+00 -0.00000000000E+00 -0.31178171259E+03  0.31178171259E+03  0.00000000000E+00 0. -1.
         23    2    1    2    0    0 -0.40681907139E+02 -0.66022445214E+02 -0.18707197195E+02  0.12255058534E+03  0.93030671822E+02 0.  0.
         23    2    1    2    0    0  0.40681907139E+02  0.66022445214E+02 -0.22018328223E+03  0.26212236041E+03  0.11922027181E+03 0.  0.
          5    1    4    4  502    0  0.39725985362E+02  0.29904063870E+02 -0.22016661020E+03  0.22575033908E+03  0.41800000000E+01 0. -1.
         -5    1    4    4    0  502  0.95592177708E+00  0.36118381344E+02 -0.16672030863E-01  0.36372021326E+02  0.41800000000E+01 0.  1.
        -11    1    3    3    0    0 -0.15730037533E+02 -0.86317588800E+02 -0.21284752438E+02  0.90284001370E+02  0.00000000000E+00 0.  1.
         11    1    3    3    0    0 -0.24951869606E+02  0.20295143586E+02  0.25775552433E+01  0.32266583969E+02  0.00000000000E+00 0. -1.
</event>
<event>
 8    1  0.5900800E-006  0.5260270E+02  0.7561462E-02  0.1431788E+00
         -1   -1    0    0    0  501 -0.00000000000E+00  0.00000000000E+00  0.91029892249E+02  0.91029892249E+02  0.00000000000E+00 0.  1.
          1   -1    0    0  501    0  0.00000000000E+00 -0.00000000000E+00 -0.14303075151E+03  0.14303075151E+03  0.00000000000E+00 0. -1.
         23    2    1    2    0    0  0.73253792884E+01  0.13359030215E+02  0.97938471462E+00  0.97358690550E+02  0.96154201995E+02 0.  0.
         23    2    1    2    0    0 -0.73253792884E+01 -0.13359030215E+02 -0.52980243981E+02  0.13670195321E+03  0.12509353656E+03 0.  0.
          5    1    4    4  502    0  0.25517462422E+02  0.13863330421E+02 -0.80557813103E+02  0.85734278272E+02  0.41800000000E+01 0.  1.
         -5    1    4    4    0  502 -0.32842841710E+02 -0.27222360636E+02  0.27577569123E+02  0.50967674941E+02  0.41800000000E+01 0.  1.
        -11    1    3    3    0    0 -0.10161892077E+02 -0.12217588843E+01  0.45883961569E+02  0.47011644033E+02  0.00000000000E+00 0.  1.
         11    1    3    3    0    0  0.17487271365E+02  0.14580789100E+02 -0.44904576855E+02  0.50347046518E+02  0.00000000000E+00 0. -1.
</event>
<event>
 8    1  0.5900800E-006  0.1292376E+03  0.7561462E-02  0.1228591E+00
         -2   -1    0    0    0  501 -0.00000000000E+00  0.00000000000E+00  0.18115228626E+03  0.18115228626E+03  0.00000000000E+00 0.  1.
          2   -1    0    0  501    0  0.00000000000E+00 -0.00000000000E+00 -0.14369284173E+03  0.14369284173E+03  0.00000000000E+00 0. -1.
         23    2    1    2    0    0 -0.62951002010E+02 -0.72684827439E+02  0.87936680932E+02  0.15918947468E+03  0.91446794382E+02 0.  0.
         23    2    1    2    0    0  0.62951002010E+02  0.72684827439E+02 -0.50477236403E+02  0.16565565331E+03  0.12509169151E+03 0.  0.
          5    1    4    4  502    0  0.23583246441E+02  0.90725516871E+02  0.63947184238E+01  0.94051335706E+02  0.41800000000E+01 0. -1.
         -5    1    4    4    0  502  0.39367755569E+02 -0.18040689432E+02 -0.56871954826E+02  0.71604317604E+02  0.41800000000E+01 0. -1.
        -11    1    3    3    0    0 -0.17537864937E+02 -0.73653039498E+02  0.84765667816E+02  0.11365546786E+03  0.00000000000E+00 0.  1.
         11    1    3    3    0    0 -0.45413137073E+02  0.96821205857E+00  0.31710131161E+01  0.45534006825E+02  0.00000000000E+00 0. -1.
</event>
<event>
 8    1  0.5900800E-006  0.1687410E+03  0.7561462E-02  0.1179167E+00
         -1   -1    0    0    0  501 -0.00000000000E+00  0.00000000000E+00  0.32964913440E+02  0.32964913440E+02  0.00000000000E+00 0.  1.
          1   -1    0    0  501    0  0.00000000000E+00 -0.00000000000E+00 -0.12777233545E+04  0.12777233545E+04  0.00000000000E+00 0. -1.
         23    2    1    2    0    0 -0.53457816245E+02  0.12214581020E+03 -0.23951109729E+03  0.28895118037E+03  0.91377687885E+02 0.  0.
         23    2    1    2    0    0  0.53457816245E+02 -0.12214581020E+03 -0.10052473438E+04  0.10217370876E+04  0.12508843634E+03 0.  0.
          5    1    4    4  502    0 -0.27074695348E+02 -0.81677285819E+02 -0.35735830315E+03  0.36759576627E+03  0.41800000000E+01 0. -1.
         -5    1    4    4    0  502  0.80532511593E+02 -0.40468524378E+02 -0.64788904060E+03  0.65414132129E+03  0.41800000000E+01 0. -1.
        -11    1    3    3    0    0  0.25684532123E+02  0.34598970069E+02 -0.54049177591E+02  0.69123784029E+02  0.00000000000E+00 0.  1.
         11    1    3    3    0    0 -0.79142348368E+02  0.87546840127E+02 -0.18546191970E+03  0.21982739634E+03  0.00000000000E+00 0. -1.
</event>
<event>
 7    1  0.5900800E-006  0.1508538E+03  0.7561462E-02  0.1199428E+00
         -3   -1    0    0    0  501 -0.00000000000E+00  0.00000000000E+00  0.73212312239E+02  0.73212312239E+02  0.00000000000E+00 0.  1.
          3   -1    0    0  501    0  0.00000000000E+00 -0.00000000000E+00 -0.38231457645E+03  0.38231457645E+03  0.00000000000E+00 0. -1.
         23    2    1    2    0    0 -0.38711310409E+02 -0.27873324732E+02 -0.12423593054E+03  0.16114112629E+03  0.90864780624E+02 0.  0.
          5    1    1    2  502    0  0.12334125702E+03 -0.29288885518E+02 -0.99318901133E+02  0.16109817199E+03  0.41800000000E+01 0. -1.
         -5    1    1    2    0  502 -0.84629946608E+02  0.57162210250E+02 -0.85547432534E+02  0.13328759041E+03  0.41800000000E+01 0.  1.
        -11    1    3    3    0    0 -0.46662963456E+01  0.16260480675E+02  0.71919374009E+01  0.18382097730E+02  0.00000000000E+00 0.  1.
         11    1    3    3    0    0 -0.34045014064E+02 -0.44133805407E+02 -0.13142786794E+03  0.14275902856E+03  0.00000000000E+00 0. -1.
</event>
<event>
 8    1  0.5900800E-006  0.1446377E+03  0.7561462E-02  0.1207221E+00
         -1   -1    0    0    0  501 -0.00000000000E+00  0.00000000000E+00  0.14233581241E+02  0.14233581241E+02  0.00000000000E+00 0.  1.
          1   -1    0    0  501    0  0.00000000000E+00 -0.00000000000E+00 -0.22391167985E+04  0.22391167985E+04  0.00000000000E+00 0. -1.
         23    2    1    2    0    0 -0.91280809723E+02  0.54691003389E+02 -0.46148745219E+03  0.48232366717E+03  0.91335421957E+02 0.  0.
         23    2    1    2    0    0  0.91280809723E+02 -0.54691003389E+02 -0.17633957650E+04  0.17710267125E+04  0.12509076832E+03 0.  0.
          5    1    4    4  502    0  0.11583098847E+03 -0.17841658924E+02 -0.11291475923E+04  0.11352210799E+04  0.41800000000E+01 0. -1.
         -5    1    4    4    0  502 -0.24550178751E+02 -0.36849344464E+02 -0.63424817271E+03  0.63580563261E+03  0.41800000000E+01 0. -1.
        -11    1    3    3    0    0 -0.10321439570E+03  0.47766170717E+02 -0.45064788862E+03  0.46477772974E+03  0.00000000000E+00 0. -1.
         11    1    3    3    0    0  0.11933585975E+02  0.69248326716E+01 -0.10839563568E+02  0.17545937424E+02  0.00000000000E+00 0.  1.
</event>
<event>
 8    1  0.5900800E-006  0.1487109E+03  0.7561462E-02  0.1202066E+00
          1   -1    0    0  501    0  0.00000000000E+00  0.00000000000E+00  0.70630057901E+03  0.70630057901E+03  0.00000000000E+00 0. -1.
         -1   -1    0    0    0  501 -0.00000000000E+00 -0.00000000000E+00 -0.40351104124E+02  0.40351104124E+02  0.00000000000E+00 0.  1.
         23    2    1    2    0    0  0.10278342357E+03  0.75220872406E+02  0.31056490917E+03  0.34893707157E+03  0.95309523673E+02 0.  0.
         23    2    1    2    0    0 -0.10278342357E+03 -0.75220872406E+02  0.35538456571E+03  0.39771461156E+03  0.12512438169E+03 0.  0.
          5    1    4    4  502    0 -0.40642422980E+02  0.27804701099E+02  0.54135793185E+02  0.73301189982E+02  0.41800000000E+01 0. -1.
         -5    1    4    4    0  502 -0.62141000593E+02 -0.10302557350E+03  0.30124877253E+03  0.32441342158E+03  0.41800000000E+01 0. -1.
        -11    1    3    3    0    0  0.53819844804E+02  0.44268270176E+02  0.60607871331E+02  0.92355668513E+02  0.00000000000E+00 0.  1.
         11    1    3    3    0    0  0.48963578769E+02  0.30952602230E+02  0.24995703784E+03  0.25658140306E+03  0.00000000000E+00 0. -1.
</event>
<event>
 8    1  0.5900800E-006  0.1069671E+03  0.7561462E-02  0.1266292E+00
         -2   -1    0    0    0  501 -0.00000000000E+00  0.00000000000E+00  0.25782095366E+03  0.25782095366E+03  0.00000000000E+00 0. -1.
          2   -1    0    0  501    0  0.00000000000E+00 -0.00000000000E+00 -0.64194975928E+02  0.64194975928E+02  0.00000000000E+00 0.  1.
         23    2    1    2    0    0 -0.13549097046E+02  0.69077793743E+02  0.98801001462E+02  0.14998344803E+03  0.88193407762E+02 0.  0.
         23    2    1    2    0    0  0.13549097046E+02 -0.69077793743E+02  0.94824976275E+02  0.17203248157E+03  0.12509228181E+03 0.  0.
          5    1    4    4  502    0  0.69193670373E+02 -0.30731143222E+02  0.50833923081E+02  0.91289250842E+02  0.41800000000E+01 0. -1.
         -5    1    4    4    0  502 -0.55644573327E+02 -0.38346650521E+02  0.43991053194E+02  0.80743230726E+02  0.41800000000E+01 0. -1.
        -11    1    3    3    0    0 -0.99878778209E+01  0.48612541578E+02  0.62297247687E+00  0.49631894954E+02  0.00000000000E+00 0.  1.
         11    1    3    3    0    0 -0.35612192252E+01  0.20465252165E+02  0.98178028985E+02  0.10035155307E+03  0.00000000000E+00 0. -1.
</event>
<event>
 8    1  0.5900800E-006  0.1984985E+03  0.7561462E-02  0.1151012E+00
          2   -1    0    0  501    0  0.00000000000E+00  0.00000000000E+00  0.19309691072E+04  0.19309691072E+04  0.00000000000E+00 0. -1.
         -2   -1    0    0    0  501 -0.00000000000E+00 -0.00000000000E+00 -0.52008743803E+02  0.52008743803E+02  0.00000000000E+00 0.  1.
         23    2    1    2    0    0  0.12185266065E+03 -0.14165622860E+03  0.19949656222E+03  0.28852779987E+03  0.92384278690E+02 0.  0.
         23    2    1    2    0    0 -0.12185266065E+03  0.14165622860E+03  0.16794638012E+04  0.16944500511E+04  0.12509100020E+03 0.  0.
          5    1    4    4  502    0 -0.70668345464E+02  0.13039327642E+03  0.15034092014E+04  0.15107127857E+04  0.41800000000E+01 0.  1.
         -5    1    4    4    0  502 -0.51184315190E+02  0.11262952182E+02  0.17605459980E+03  0.18373726548E+03  0.41800000000E+01 0.  1.
        -11    1    3    3    0    0  0.72594553330E+02 -0.39514530784E+02  0.13437808916E+03  0.15776196678E+03  0.00000000000E+00 0. -1.
         11    1    3    3    0    0  0.49258107325E+02 -0.10214169781E+03  0.65118473068E+02  0.13076583309E+03  0.00000000000E+00 0.  1.
</event>
<event>
 8    1  0.5900800E-006  0.8282097E+02  0.7561462E-02  0.1321231E+00
         -4   -1    0    0    0  501 -0.00000000000E+00  0.00000000000E+00  0.96015793685E+02  0.96015793685E+02  0.00000000000E+00 0.  1.
          4   -1    0    0  501    0  0.00000000000E+00 -0.00000000000E+00 -0.19073249671E+03  0.19073249671E+03  0.00000000000E+00 0. -1.
         23    2    1    2    0    0 -0.68808013824E+02  0.57885214008E+01  0.86079208931E+01  0.11041964746E+03  0.85734196770E+02 0.  0.
         23    2    1    2    0    0  0.68808013824E+02 -0.57885214008E+01 -0.10332462392E+03  0.17632864294E+03  0.12509101753E+03 0.  0.
          5    1    4    4  502    0 -0.76076655349E+01  0.84210488221E+01 -0.97528219227E+02  0.98275208388E+02  0.41800000000E+01 0.  1.
         -5    1    4    4    0  502  0.76415679359E+02 -0.14209570223E+02 -0.57964046918E+01  0.78053434551E+02  0.41800000000E+01 0.  1.
        -11    1    3    3    0    0 -0.57016868756E+02 -0.79912252411E+01 -0.32054629690E+02  0.65895995995E+02  0.00000000000E+00 0. -1.
         11    1    3    3    0    0 -0.11791145069E+02  0.13779746642E+02  0.40662550583E+02  0.44523651461E+02  0.00000000000E+00 0.  1.
</event>
<event>
 8    1  0.5900800E-006  0.1149926E+03  0.7561462E-02  0.1251594E+00
          1   -1    0    0  501    0  0.00000000000E+00  0.00000000000E+00  0.27022965859E+03  0.27022965859E+03  0.00000000000E+00 0. -1.
         -1   -1    0    0    0  501 -0.00000000000E+00 -0.00000000000E+00 -0.93785244608E+02  0.93785244608E+02  0.00000000000E+00 0.  1.
         23    2    1    2    0    0  0.66883441982E+02 -0.76824420131E+02  0.24765451837E+02  0.14258857290E+03  0.96658094219E+02 0.  0.
         23    2    1    2    0    0 -0.66883441982E+02  0.76824420131E+02  0.15167896214E+03  0.22142633029E+03  0.12509087037E+03 0.  0.
          5    1    4    4  502    0 -0.68757639252E+02  0.88799364148E+02  0.16709641827E+03  0.20137434153E+03  0.41800000000E+01 0.  1.
         -5    1    4    4    0  502  0.18741972698E+01 -0.11974944017E+02 -0.15417456131E+02  0.20051988758E+02  0.41800000000E+01 0.  1.
        -11    1    3    3    0    0  0.42785415186E+02 -0.30442277872E+02  0.59862714640E+02  0.79629571384E+02  0.00000000000E+00 0. -1.
         11    1    3    3    0    0  0.24098026795E+02 -0.46382142259E+02 -0.35097262803E+02  0.62959001519E+02  0.00000000000E+00 0.  1.
</event>
<event>
 8    1  0.5900800E-006  0.1758247E+03  0.7561462E-02  0.1171906E+00
         -2   -1    0    0    0  501 -0.00000000000E+00  0.00000000000E+00  0.47787594005E+02  0.47787594005E+02  0.00000000000E+00 0.  1.
          2   -1    0    0  501    0  0.00000000000E+00 -0.00000000000E+00 -0.12013974835E+04  0.12013974835E+04  0.00000000000E+00 0. -1.
         23    2    1    2    0    0  0.14652742778E+03  0.60933872159E+02 -0.18601456331E+03  0.26071563912E+03  0.90487583962E+02 0.  0.
         23    2    1    2    0    0 -0.14652742778E+03 -0.60933872159E+02 -0.96759532614E+03  0.98846943834E+03  0.12509153245E+03 0.  0.
          5    1    4    4  502    0 -0.55119577008E+02 -0.66244481170E+02 -0.70659288615E+03  0.71184090794E+03  0.41800000000E+01 0.  1.
         -5    1    4    4    0  502 -0.91407850772E+02  0.53106090103E+01 -0.26100243999E+03  0.27662853040E+03  0.41800000000E+01 0.  1.
        -11    1    3    3    0    0  0.51730713062E+02  0.59584410726E+02 -0.45128779280E+02  0.90900909757E+02  0.00000000000E+00 0.  1.
         11    1    3    3    0    0  0.94796714719E+02  0.13494614339E+01 -0.14088578403E+03  0.16981472937E+03  0.00000000000E+00 0. -1.
</event>
<event>
 7    1  0.5900800E-006  0.1575336E+03  0.7561462E-02  0.1191510E+00
         -2   -1    0    0    0  501 -0.00000000000E+00  0.00000000000E+00  0.41198002100E+02  0.41198002100E+02  0.00000000000E+00 0.  1.
          2   -1    0    0  501    0  0.00000000000E+00 -0.00000000000E+00 -0.66434975762E+03  0.66434975762E+03  0.00000000000E+00 0. -1.
         23    2    1    2    0    0  0.80527243070E+02 -0.44409454379E+02 -0.16339833040E+03  0.20877357367E+03  0.91818049275E+02 0.  0.
          5    1    1    2  502    0 -0.36307832564E+02 -0.60914719409E+02 -0.21961755231E+03  0.23082071707E+03  0.41800000000E+01 0. -1.
         -5    1    1    2    0  502 -0.44219410506E+02  0.10532417379E+03 -0.24013587282E+03  0.26595346898E+03  0.41800000000E+01 0.  1.
        -11    1    3    3    0    0  0.16975418298E+02  0.28395314236E+02 -0.47208076826E+02  0.57645999120E+02  0.00000000000E+00 0.  1.
         11    1    3    3    0    0  0.63551824772E+02 -0.72804768616E+02 -0.11619025357E+03  0.15112757455E+03  0.00000000000E+00 0. -1.
</event>
<event>
 8    1  0.5900800E-006  0.1047261E+03  0.7561462E-02  0.1270660E+00
         -2   -1    0    0    0  501 -0.00000000000E+00  0.00000000000E+00  0.13243494710E+02  0.13243494710E+02  0.00000000000E+00 0. -1.
          2   -1    0    0  501    0  0.00000000000E+00 -0.00000000000E+00 -0.10832618245E+04  0.10832618245E+04  0.00000000000E+00 0.  1.
         23    2    1    2    0    0  0.32104833212E+02 -0.28540313012E+02 -0.38484360231E+03  0.39867358762E+03  0.94819625836E+02 0.  0.
         23    2    1    2    0    0 -0.32104833212E+02  0.28540313012E+02 -0.68517472751E+03  0.69783173162E+03  0.12513771876E+03 0.  0.
          5    1    4    4  502    0  0.36479634699E+02 -0.94305334793E+01 -0.92301629463E+02  0.99783575357E+02  0.41800000000E+01 0. -1.
         -5    1    4    4    0  502 -0.68584467912E+02  0.37970846491E+02 -0.59287309805E+03  0.59804815626E+03  0.41800000000E+01 0. -1.
        -11    1    3    3    0    0  0.42938873132E+02 -0.51856513716E+02 -0.34313270637E+03  0.34967541953E+03  0.00000000000E+00 0.  1.
         11    1    3    3    0    0 -0.10834039919E+02  0.23316200704E+02 -0.41710895941E+02  0.48998168093E+02  0.00000000000E+00 0. -1.
</event>
<event>
 8    1  0.5900800E-006  0.1272178E+03  0.7561462E-02  0.1231643E+00
          4   -1    0    0  501    0  0.00000000000E+00  0.00000000000E+00  0.94593776208E+02  0.94593776208E+02  0.00000000000E+00 0. -1.
         -4   -1    0    0    0  501 -0.00000000000E+00 -0.00000000000E+00 -0.22031820279E+03  0.22031820279E+03  0.00000000000E+00 0.  1.
         23    2    1    2    0    0  0.16376962859E+02 -0.84928842335E+02 -0.99934880224E+02  0.16052379187E+03  0.91103206851E+02 0.  0.
         23    2    1    2    0    0 -0.16376962859E+02  0.84928842335E+02 -0.25789546361E+02  0.15438818713E+03  0.12525772811E+03 0.  0.
          5    1    4    4  502    0 -0.25035036550E+02  0.11030490732E+03  0.50619092841E+01  0.11330057793E+03  0.41800000000E+01 0. -1.
         -5    1    4    4    0  502  0.86580736916E+01 -0.25376064986E+02 -0.30851455645E+02  0.41087609198E+02  0.41800000000E+01 0. -1.
        -11    1    3    3    0    0 -0.29066811775E+02 -0.21827919934E+02 -0.33186586879E+01  0.36501385328E+02  0.00000000000E+00 0.  1.
         11    1    3    3    0    0  0.45443774633E+02 -0.63100922400E+02 -0.96616221536E+02  0.12402240654E+03  0.00000000000E+00 0. -1.
</event>
<event>
 8    1  0.5900800E-006  0.1110833E+03  0.7561462E-02  0.1258577E+00
         -1   -1    0    0    0  501 -0.00000000000E+00  0.00000000000E+00  0.54722085264E+02  0.54722085264E+02  0.00000000000E+00 0.  1.
          1   -1    0    0  501    0  0.00000000000E+00 -0.00000000000E+00 -0.54400906875E+03  0.54400906875E+03  0.00000000000E+00 0. -1.
         23    2    1    2    0    0 -0.73747942832E+02  0.26041389054E+02 -0.42409383621E+02  0.12813165145E+03  0.92207652978E+02 0.  0.
         23    2    1    2    0    0  0.73747942832E+02 -0.26041389054E+02 -0.44687759987E+03  0.47059950257E+03  0.12508952610E+03 0.  0.
          5    1    4    4  502    0 -0.28007051447E+02  0.15400858338E+02 -0.56658541880E+02  0.65186226584E+02  0.41800000000E+01 0. -1.
         -5    1    4    4    0  502  0.10175499428E+03 -0.41442247392E+02 -0.39021905799E+03  0.40541327599E+03  0.41800000000E+01 0. -1.
        -11    1    3    3    0    0 -0.13771190384E+02 -0.17454470762E+01 -0.58480309732E+02  0.60105231856E+02  0.00000000000E+00 0. -1.
         11    1    3    3    0    0 -0.59976752448E+02  0.27786836130E+02  0.16070926111E+02  0.68026419591E+02  0.00000000000E+00 0.  1.
</event>
<event>
 8    1  0.5900800E-006  0.1195017E+03  0.7561462E-02  0.1243921E+00
          2   -1    0    0  501    0  0.00000000000E+00  0.00000000000E+00  0.25472950202E+04  0.25472950202E+04  0.00000000000E+00 0. -1.
         -2   -1    0    0    0  501 -0.00000000000E+00 -0.00000000000E+00 -0.98213090289E+01  0.98213090289E+01  0.00000000000E+00 0.  1.
         23    2    1    2    0    0 -0.74866081687E+02 -0.31262155010E+02  0.52245449423E+03  0.53658786942E+03  0.91572870139E+02 0.  0.
         23    2    1    2    0    0  0.74866081687E+02  0.31262155010E+02  0.20150192169E+04  0.20205284598E+04  0.12510219713E+03 0.  0.
          5    1    4    4  502    0  0.53677623709E+02  0.63713971588E+02  0.18047316508E+04  0.18066583964E+04  0.41800000000E+01 0. -1.
         -5    1    4    4    0  502  0.21188457979E+02 -0.32451816577E+02  0.21028756610E+03  0.21387006337E+03  0.41800000000E+01 0. -1.
        -11    1    3    3    0    0 -0.83666593299E+02 -0.48889904564E+02  0.48132549415E+03  0.49098325116E+03  0.00000000000E+00 0.  1.
         11    1    3    3    0    0  0.88005116114E+01  0.17627749554E+02  0.41129000076E+02  0.45604618255E+02  0.00000000000E+00 0. -1.
</event>
<event>
 7    1  0.5900800E-006  0.1784353E+03  0.7561462E-02  0.1169326E+00
          2   -1    0    0  501    0  0.00000000000E+00  0.00000000000E+00  0.25136788693E+03  0.25136788693E+03  0.00000000000E+00 0. -1.
         -2   -1    0    0    0  501 -0.00000000000E+00 -0.00000000000E+00 -0.13548637071E+03  0.13548637071E+03  0.00000000000E+00 0.  1.
         23    2    1    2    0    0 -0.20990829272E+02  0.11493946483E+03  0.23377871724E+02  0.14743374848E+03  0.86824477052E+02 0.  0.
          5    1    1    2  502    0  0.33180574516E+02 -0.16536792478E+03  0.68233894332E+02  0.18199131245E+03  0.41800000000E+01 0. -1.
         -5    1    1    2    0  502 -0.12189745244E+02  0.50428459952E+02  0.24269750169E+02  0.57429196716E+02  0.41800000000E+01 0.  1.
        -11    1    3    3    0    0  0.49722830048E+01  0.10945771121E+03  0.39396682527E+02  0.11643802101E+03  0.00000000000E+00 0.  1.
         11    1    3    3    0    0 -0.25963112277E+02  0.54817536150E+01 -0.16018810803E+02  0.30995727469E+02  0.00000000000E+00 0. -1.
</event>
<event>
 8    1  0.5900800E-006  0.1801865E+03  0.7561462E-02  0.1167623E+00
         -2   -1    0    0    0  501 -0.00000000000E+00  0.00000000000E+00  0.20024957336E+03  0.20024957336E+03  0.00000000000E+00 0.  1.
          2   -1    0    0  501    0  0.00000000000E+00 -0.00000000000E+00 -0.16899404008E+03  0.16899404008E+03  0.00000000000E+00 0. -1.
         23    2    1    2    0    0 -0.14187715859E+03  0.40812807911E+02  0.32758590054E+02  0.17573901848E+03  0.89533591326E+02 0.  0.
         23    2    1    2    0    0  0.14187715859E+03 -0.40812807911E+02 -0.15030567773E+01  0.19350459495E+03  0.12508779185E+03 0.  0.
          5    1    4    4  502    0 -0.22694999719E+02 -0.10885060695E+02 -0.56358469202E+01  0.26130111540E+02  0.41800000000E+01 0.  1.
         -5    1    4    4    0  502  0.16457215831E+03 -0.29927747216E+02  0.41327901429E+01  0.16737448341E+03  0.41800000000E+01 0.  1.
        -11    1    3    3    0    0 -0.87282411372E+02  0.63987383081E+02  0.41259918123E+02  0.11582307789E+03  0.00000000000E+00 0.  1.
         11    1    3    3    0    0 -0.54594747219E+02 -0.23174575170E+02 -0.85013280682E+01  0.59915940593E+02  0.00000000000E+00 0. -1.
</event>
<event>
 7    1  0.5900800E-006  0.1105481E+03  0.7561462E-02  0.1259558E+00
         -1   -1    0    0    0  501 -0.00000000000E+00  0.00000000000E+00  0.22014328246E+02  0.22014328246E+02  0.00000000000E+00 0.  1.
          1   -1    0    0  501    0  0.00000000000E+00 -0.00000000000E+00 -0.14138328072E+04  0.14138328072E+04  0.00000000000E+00 0. -1.
         23    2    1    2    0    0  0.96460837459E+01  0.62618191448E+00 -0.92796081566E+02  0.12954765753E+03  0.89877938238E+02 0.  0.
          5    1    1    2  502    0  0.55536773734E+02  0.25702285801E+02 -0.79770721638E+03  0.80006200772E+03  0.41800000000E+01 0. -1.
         -5    1    1    2    0  502 -0.65182857480E+02 -0.26328467715E+02 -0.50131518105E+03  0.50623747024E+03  0.41800000000E+01 0.  1.
        -11    1    3    3    0    0 -0.37991502696E+02  0.12933235278E+02 -0.31947904872E+02  0.51296115618E+02  0.00000000000E+00 0. -1.
         11    1    3    3    0    0  0.47637586441E+02 -0.12307053363E+02 -0.60848176694E+02  0.78251541911E+02  0.00000000000E+00 0.  1.
</event>
<event>
 8    1  0.5900800E-006  0.1807229E+03  0.7561462E-02  0.1167105E+00
         -1   -1    0    0    0  501 -0.00000000000E+00  0.00000000000E+00  0.31487726744E+02  0.31487726744E+02  0.00000000000E+00 0.  1.
          1   -1    0    0  501    0  0.00000000000E+00 -0.00000000000E+00 -0.20812144395E+04  0.20812144395E+04  0.00000000000E+00 0. -1.
         23    2    1    2    0    0  0.38316847673E+02  0.15024047422E+03 -0.32911166838E+03  0.38059217511E+03  0.11178341818E+03 0.  0.
         23    2    1    2    0    0 -0.38316847673E+02 -0.15024047422E+03 -0.17206150444E+04  0.17321099911E+04  0.12509400281E+03 0.  0.
          5    1    4    4  502    0 -0.56856109347E+02 -0.14080538963E+03 -0.10273404414E+04  0.10385107750E+04  0.41800000000E+01 0. -1.
         -5    1    4    4    0  502  0.18539261674E+02 -0.94350845894E+01 -0.69327460302E+03  0.69359921615E+03  0.41800000000E+01 0. -1.
        -11    1    3    3    0    0 -0.29698322246E+02  0.98446509066E+02 -0.14680338934E+03  0.17923431762E+03  0.00000000000E+00 0. -1.
         11    1    3    3    0    0  0.68015169919E+02  0.51793965158E+02 -0.18230827904E+03  0.20135785749E+03  0.00000000000E+00 0.  1.
</event>
<event>
 8    1  0.5900800E-006  0.9163215E+02  0.7561462E-02  0.1298947E+00
         -1   -1    0    0    0  501 -0.00000000000E+00  0.00000000000E+00  0.18109396406E+03  0.18109396406E+03  0.00000000000E+00 0.  1.
          1   -1    0    0  501    0  0.00000000000E+00 -0.00000000000E+00 -0.85013634297E+02  0.85013634297E+02  0.00000000000E+00 0. -1.
         23    2    1    2    0    0 -0.12102637958E+02 -0.28953429049E+02  0.94916889330E+02  0.13712570294E+03  0.93858764253E+02 0.  0.
         23    2    1    2    0    0  0.12102637958E+02  0.28953429049E+02  0.11634404285E+01  0.12898189541E+03  0.12510076279E+03 0.  0.
          5    1    4    4  502    0 -0.49146562213E+02 -0.16252935562E+02  0.75325416358E+01  0.52476223904E+02  0.41800000000E+01 0. -1.
         -5    1    4    4    0  502  0.61249200172E+02  0.45206364611E+02 -0.63691012073E+01  0.76505671510E+02  0.41800000000E+01 0. -1.
        -11    1    3    3    0    0 -0.82170538325E+01 -0.41319828833E+02  0.10967209842E+03  0.11748539228E+03  0.00000000000E+00 0.  1.
         11    1    3    3    0    0 -0.38855841258E+01  0.12366399784E+02 -0.14755209085E+02  0.19640310659E+02  0.00000000000E+00 0. -1.
</event>
<event>
 8    1  0.5900800E-006  0.1006897E+03  0.7561462E-02  0.1278852E+00
          2   -1    0    0  501    0  0.00000000000E+00  0.00000000000E+00  0.27627501743E+03  0.27627501743E+03  0.00000000000E+00 0. -1.
         -2   -1    0    0    0  501 -0.00000000000E+00 -0.00000000000E+00 -0.51622334731E+02  0.51622334731E+02  0.00000000000E+00 0.  1.
         23    2    1    2    0    0 -0.35543475981E+02  0.11795950095E+02  0.52692260573E+02  0.11197615201E+03  0.91431401455E+02 0.  0.
         23    2    1    2    0    0  0.35543475981E+02 -0.11795950095E+02  0.17196042213E+03  0.21592120015E+03  0.12509634196E+03 0.  0.
          5    1    4    4  502    0 -0.70882511468E+01  0.50461806962E+02  0.96032763281E+02  0.10879522641E+03  0.41800000000E+01 0.  1.
         -5    1    4    4    0  502  0.42631727128E+02 -0.62257757057E+02  0.75927658847E+02  0.10712597374E+03  0.41800000000E+01 0.  1.
        -11    1    3    3    0    0 -0.17579815819E+02  0.38599139176E+02 -0.80731354835E+01  0.43175444246E+02  0.00000000000E+00 0.  1.
         11    1    3    3    0    0 -0.17963660162E+02 -0.26803189081E+02  0.60765396057E+02  0.68800707767E+02  0.00000000000E+00 0. -1.
</event>
<event>
 8    1  0.5900800E-006  0.9903825E+02  0.7561462E-02  0.1282331E+00
         -1   -1    0    0    0  501 -0.00000000000E+00  0.00000000000E+00  0.39203765751E+03  0.39203765751E+03  0.00000000000E+00 0.  1.
          1   -1    0    0  501    0  0.00000000000E+00 -0.00000000000E+00 -0.33628517796E+02  0.33628517796E+02  0.00000000000E+00 0. -1.
         23    2    1    2    0    0 -0.23571064978E+02 -0.26856994781E+02  0.17279305752E+03  0.19900140135E+03  0.92017518642E+02 0.  0.
         23    2    1    2    0    0  0.23571064978E+02  0.26856994781E+02  0.18561608219E+03  0.22666477396E+03  0.12508675595E+03 0.  0.
          5    1    4    4  502    0  0.36694555786E+02 -0.26064597924E+02  0.16002796976E+03  0.16628973869E+03  0.41800000000E+01 0. -1.
         -5    1    4    4    0  502 -0.13123490808E+02  0.52921592706E+02  0.25588112432E+02  0.60375035266E+02  0.41800000000E+01 0. -1.
        -11    1    3    3    0    0 -0.31847810752E+02  0.28184696996E+02  0.85105986937E+02  0.95140365813E+02  0.00000000000E+00 0.  1.
         11    1    3    3    0    0  0.82767457743E+01 -0.55041691777E+02  0.87687070585E+02  0.10386103553E+03  0.00000000000E+00 0. -1.
</event>
<event>
 8    1  0.5900800E-006  0.9149813E+02  0.7561462E-02  0.1299264E+00
         -3   -1    0    0    0  501 -0.00000000000E+00  0.00000000000E+00  0.10364791147E+02  0.10364791147E+02  0.00000000000E+00 0.  1.
          3   -1    0    0  501    0  0.00000000000E+00 -0.00000000000E+00 -0.14068862100E+04  0.14068862100E+04  0.00000000000E+00 0. -1.
         23    2    1    2    0    0 -0.22117294464E+02  0.47492702875E+00 -0.32753131562E+03  0.34073937443E+03  0.91308040765E+02 0.  0.
         23    2    1    2    0    0  0.22117294464E+02 -0.47492702875E+00 -0.10689901033E+04  0.10765116267E+04  0.12509213151E+03 0.  0.
          5    1    4    4  502    0  0.33870145923E+02 -0.43945670146E+02 -0.89539775633E+03  0.89712486486E+03  0.41800000000E+01 0. -1.
         -5    1    4    4    0  502 -0.11752851459E+02  0.43470743117E+02 -0.17359234693E+03  0.17938676188E+03  0.41800000000E+01 0. -1.
        -11    1    3    3    0    0 -0.23492860873E+02  0.37948432472E+02 -0.25712326780E+03  0.26096814534E+03  0.00000000000E+00 0. -1.
         11    1    3    3    0    0  0.13755664090E+01 -0.37473505443E+02 -0.70408047818E+02  0.79771229091E+02  0.00000000000E+00 0.  1.
</event>
<event>
 7    1  0.5900800E-006  0.9611284E+02  0.7561462E-02  0.1288689E+00
          2   -1    0    0  501    0  0.00000000000E+00  0.00000000000E+00  0.19227119576E+03  0.19227119576E+03  0.00000000000E+00 0. -1.
         -2   -1    0    0    0  501 -0.00000000000E+00 -0.00000000000E+00 -0.10778791156E+03  0.10778791156E+03  0.00000000000E+00 0.  1.
         23    2    1    2    0    0 -0.48056812544E+02  0.26001576121E+02 -0.13388711515E+02  0.10626130371E+03  0.90148033128E+02 0.  0.
          5    1    1    2  502    0  0.40326138831E+01 -0.40024687695E+02  0.13079838341E+03  0.13690846249E+03  0.41800000000E+01 0. -1.
         -5    1    1    2    0  502  0.44024198661E+02  0.14023111574E+02 -0.32926387703E+02  0.56889341120E+02  0.41800000000E+01 0.  1.
        -11    1    3    3    0    0 -0.28275161384E+02 -0.32826136967E+02 -0.66441522882E+01  0.43831321896E+02  0.00000000000E+00 0. -1.
         11    1    3    3    0    0 -0.19781651159E+02  0.58827713088E+02 -0.67445592268E+01  0.62429981811E+02  0.00000000000E+00 0.  1.
</event>
<event>
 8    1  0.5900800E-006  0.1440424E+03  0.7561462E-02  0.1207991E+00
          1   -1    0    0  501    0  0.00000000000E+00  0.00000000000E+00  0.25709246246E+03  0.25709246246E+03  0.00000000000E+00 0. -1.
         -1   -1    0    0    0  501 -0.00000000000E+00 -0.00000000000E+00 -0.84773499579E+02  0.84773499579E+02  0.00000000000E+00 0.  1.
         23    2    1    2    0    0  0.69340473265E+02 -0.70889919677E+02  0.59467345216E+02  0.14637607208E+03  0.89755820910E+02 0.  0.
         23    2    1    2    0    0 -0.69340473265E+02  0.70889919677E+02  0.11285161767E+03  0.19548988996E+03  0.12508927820E+03 0.  0.
          5    1    4    4  502    0 -0.47953499240E+02  0.10419735133E+03  0.10361573934E+03  0.15462962185E+03  0.41800000000E+01 0. -1.
         -5    1    4    4    0  502 -0.21386974025E+02 -0.33307431658E+02  0.92358783333E+01  0.40860268112E+02  0.41800000000E+01 0. -1.
        -11    1    3    3    0    0  0.76388226585E+02 -0.15851326891E+02  0.39127295660E+02  0.87277551470E+02  0.00000000000E+00 0. -1.
         11    1    3    3    0    0 -0.70477533203E+01 -0.55038592786E+02  0.20340049557E+02  0.59098520614E+02  0.00000000000E+00 0.  1.
</event>
<event>
 8    1  0.5900800E-006  0.8419598E+02  0.7561462E-02  0.1317549E+00
         -2   -1    0    0    0  501 -0.00000000000E+00  0.00000000000E+00  0.90086456828E+02  0.90086456828E+02  0.00000000000E+00 0.  1.
          2   -1    0    0  501    0  0.00000000000E+00 -0.00000000000E+00 -0.16995325182E+03  0.16995325182E+03  0.00000000000E+00 0. -1.
         23    2    1    2    0    0 -0.56416304609E+02  0.49163908011E+01 -0.83312985260E+01  0.10521098460E+03  0.88277802542E+02 0.  0.
         23    2    1    2    0    0  0.56416304609E+02 -0.49163908011E+01 -0.71535496468E+02  0.15482872405E+03  0.12509051207E+03 0.  0.
          5    1    4    4  502    0  0.68751395152E+02  0.29382935436E+02 -0.50843022328E+00  0.74885526849E+02  0.41800000000E+01 0.  1.
         -5    1    4    4    0  502 -0.12335090543E+02 -0.34299326237E+02 -0.71027066245E+02  0.79943197198E+02  0.41800000000E+01 0.  1.
        -11    1    3    3    0    0 -0.14906608368E+02  0.33592697825E+01 -0.46409312223E+02  0.48860167084E+02  0.00000000000E+00 0. -1.
         11    1    3    3    0    0 -0.41509696241E+02  0.15571210186E+01  0.38078013697E+02  0.56350817518E+02  0.00000000000E+00 0.  1.
</event>
<event>
 8    1  0.5900800E-006  0.1061472E+03  0.7561462E-02  0.1267876E+00
         -1   -1    0    0    0  501 -0.00000000000E+00  0.00000000000E+00  0.14514208978E+03  0.14514208978E+03  0.00000000000E+00 0.  1.
          1   -1    0    0  501    0  0.00000000000E+00 -0.00000000000E+00 -0.11981190777E+03  0.11981190777E+03  0.00000000000E+00 0. -1.
         23    2    1    2    0    0  0.51195750695E+01 -0.12458652159E+02  0.84937315686E+02  0.12573964519E+03  0.91731579694E+02 0.  0.
         23    2    1    2    0    0 -0.51195750695E+01  0.12458652159E+02 -0.59607133673E+02  0.13921435236E+03  0.12508476109E+03 0.  0.
          5    1    4    4  502    0 -0.54016500157E+02  0.36362967664E+02 -0.11096664624E+02  0.66186524854E+02  0.41800000000E+01 0.  1.
         -5    1    4    4    0  502  0.48896925087E+02 -0.23904315506E+02 -0.48510469049E+02  0.73027827505E+02  0.41800000000E+01 0.  1.
        -11    1    3    3    0    0  0.29208099261E+02 -0.43973902065E+02  0.43823962977E+02  0.68610180413E+02  0.00000000000E+00 0.  1.
         11    1    3    3    0    0 -0.24088524191E+02  0.31515249906E+02  0.41113352708E+02  0.57129464773E+02  0.00000000000E+00 0. -1.
</event>
<event>
 8    1  0.5900800E-006  0.1063792E+03  0.7561462E-02  0.1267426E+00
         -1   -1    0    0    0  501 -0.00000000000E+00  0.00000000000E+00  0.54601943521E+03  0.54601943521E+03  0.00000000000E+00 0.  1.
          1   -1    0    0  501    0  0.00000000000E+00 -0.00000000000E+00 -0.22869413467E+02  0.22869413467E+02  0.00000000000E+00 0. -1.
         23    2    1    2    0    0  0.59490181446E+01 -0.61459693077E+01  0.27646526285E+03  0.29216902420E+03  0.94109156722E+02 0.  0.
         23    2    1    2    0    0 -0.59490181446E+01  0.61459693077E+01  0.24668475889E+03  0.27671982448E+03  0.12508927707E+03 0.  0.
          5    1    4    4  502    0  0.56171632057E+02 -0.28202680485E+01  0.74745587874E+02  0.93635364400E+02  0.41800000000E+01 0.  1.
         -5    1    4    4    0  502 -0.62120650201E+02  0.89662373562E+01  0.17193917102E+03  0.18308446008E+03  0.41800000000E+01 0.  1.
        -11    1    3    3    0    0  0.49577531473E+02 -0.17567817817E+01  0.12499542527E+03  0.13448001430E+03  0.00000000000E+00 0. -1.
         11    1    3    3    0    0 -0.43628513328E+02 -0.43891875261E+01  0.15146983759E+03  0.15768900989E+03  0.00000000000E+00 0.  1.
</event>
<event>
 8    1  0.5900800E-006  0.1647609E+03  0.7561462E-02  0.1183424E+00
          2   -1    0    0  501    0  0.00000000000E+00  0.00000000000E+00  0.12206301104E+03  0.12206301104E+03  0.00000000000E+00 0. -1.
         -2   -1    0    0    0  501 -0.00000000000E+00 -0.00000000000E+00 -0.36358699008E+03  0.36358699008E+03  0.00000000000E+00 0.  1.
         23    2    1    2    0    0  0.82476921837E+02  0.12525838271E+03 -0.23139846026E+03  0.29009086060E+03  0.90085264694E+02 0.  0.
         23    2    1    2    0    0 -0.82476921837E+02 -0.12525838271E+03 -0.10125518783E+02  0.19555914053E+03  0.12509494889E+03 0.  0.
          5    1    4    4  502    0 -0.27413981816E+01 -0.54313872052E+02  0.49134693204E+02  0.73411187414E+02  0.41800000000E+01 0. -1.
         -5    1    4    4    0  502 -0.79735523655E+02 -0.70944510655E+02 -0.59260211987E+02  0.12214795311E+03  0.41800000000E+01 0. -1.
        -11    1    3    3    0    0  0.29240703255E+02  0.10847867323E+03 -0.18948278523E+03  0.22028701090E+03  0.00000000000E+00 0.  1.
         11    1    3    3    0    0  0.53236218582E+02  0.16779709478E+02 -0.41915675034E+02  0.69803849698E+02  0.00000000000E+00 0. -1.
</event>
<event>
 8    1  0.5900800E-006  0.8523469E+02  0.7561462E-02  0.1314820E+00
         -2   -1    0    0    0  501 -0.00000000000E+00  0.00000000000E+00  0.13189650438E+03  0.13189650438E+03  0.00000000000E+00 0.  1.
          2   -1    0    0  501    0  0.00000000000E+00 -0.00000000000E+00 -0.10916180986E+03  0.10916180986E+03  0.00000000000E+00 0. -1.
         23    2    1    2    0    0 -0.11293683288E+02 -0.45327567251E+02  0.31972366934E+02  0.10721084332E+03  0.91048322565E+02 0.  0.
         23    2    1    2    0    0  0.11293683288E+02  0.45327567251E+02 -0.92376724111E+01  0.13384747093E+03  0.12509066810E+03 0.  0.
          5    1    4    4  502    0 -0.39057185495E+02  0.86848281736E+01 -0.46239995371E+02  0.61290289208E+02  0.41800000000E+01 0.  1.
         -5    1    4    4    0  502  0.50350868784E+02  0.36642739077E+02  0.37002322960E+02  0.72557181718E+02  0.41800000000E+01 0.  1.
        -11    1    3    3    0    0 -0.13002313391E+02 -0.55760129084E+02  0.56538596900E+02  0.80466546392E+02  0.00000000000E+00 0.  1.
         11    1    3    3    0    0  0.17086301027E+01  0.10432561833E+02 -0.24566229965E+02  0.26744296923E+02  0.00000000000E+00 0. -1.
</event>
<event>
 8    1  0.5900800E-006  0.1412579E+03  0.7561462E-02  0.1211646E+00
          3   -1    0    0  501    0  0.00000000000E+00  0.00000000000E+00  0.11750123478E+03  0.11750123478E+03  0.00000000000E+00 0. -1.
         -3   -1    0    0    0  501 -0.00000000000E+00 -0.00000000000E+00 -0.18924289831E+03  0.18924289831E+03  0.00000000000E+00 0.  1.
         23    2    1    2    0    0 -0.22599502710E+02 -0.90878280593E+02 -0.73753193344E+02  0.15046793433E+03  0.91823016320E+02 0.  0.
         23    2    1    2    0    0  0.22599502710E+02  0.90878280593E+02  0.20115298180E+01  0.15627619877E+03  0.12509438294E+03 0.  0.
          5    1    4    4  502    0  0.66905414872E+02  0.15638359509E+02  0.18319671794E+01  0.68860157791E+02  0.41800000000E+01 0. -1.
         -5    1    4    4    0  502 -0.44305912162E+02  0.75239921084E+02  0.17956263866E+00  0.87416040976E+02  0.41800000000E+01 0. -1.
        -11    1    3    3    0    0 -0.50711544681E+02 -0.29288188135E+02 -0.14102175775E+02  0.60235621436E+02  0.00000000000E+00 0.  1.
         11    1    3    3    0    0  0.28112041971E+02 -0.61590092458E+02 -0.59651017569E+02  0.90232312892E+02  0.00000000000E+00 0. -1.
</event>
<event>
 8    1  0.5900800E-006  0.1482281E+03  0.7561462E-02  0.1202667E+00
          3   -1    0    0  501    0  0.00000000000E+00  0.00000000000E+00  0.20747319569E+03  0.20747319569E+03  0.00000000000E+00 0. -1.
         -3   -1    0    0    0  501 -0.00000000000E+00 -0.00000000000E+00 -0.11680831730E+03  0.11680831730E+03  0.00000000000E+00 0.  1.
         23    2    1    2    0    0 -0.72698479196E+02  0.84003119552E+02  0.35818428209E+02  0.14822136095E+03  0.91351075916E+02 0.  0.
         23    2    1    2    0    0  0.72698479196E+02 -0.84003119552E+02  0.54846450179E+02  0.17606015204E+03  0.12508977204E+03 0.  0.
          5    1    4    4  502    0 -0.20809663153E+02 -0.65162755403E+02  0.59530332133E+01  0.68790535517E+02  0.41800000000E+01 0. -1.
         -5    1    4    4    0  502  0.93508142349E+02 -0.18840364148E+02  0.48893416965E+02  0.10726961652E+03  0.41800000000E+01 0. -1.
        -11    1    3    3    0    0 -0.62662878057E+02  0.17322219631E+02 -0.11260444308E+02  0.65981006247E+02  0.00000000000E+00 0.  1.
         11    1    3    3    0    0 -0.10035601139E+02  0.66680899920E+02  0.47078872517E+02  0.82240354704E+02  0.00000000000E+00 0. -1.
</event>
<event>
 8    1  0.5900800E-006  0.1230178E+03  0.7561462E-02  0.1238200E+00
         -1   -1    0    0    0  501 -0.00000000000E+00  0.00000000000E+00  0.31700181292E+02  0.31700181292E+02  0.00000000000E+00 0.  1.
          1   -1    0    0  501    0  0.00000000000E+00 -0.00000000000E+00 -0.55276398002E+03  0.55276398002E+03  0.00000000000E+00 0. -1.
         23    2    1    2    0    0  0.68085571664E+02  0.95037757928E+00 -0.16174431830E+03  0.19794549164E+03  0.91567706483E+02 0.  0.
         23    2    1    2    0    0 -0.68085571664E+02 -0.95037757928E+00 -0.35931948042E+03  0.38651866967E+03  0.12509853998E+03 0.  0.
          5    1    4    4  502    0  0.32064752264E+02 -0.18894692840E+01 -0.16188963017E+03  0.16509828342E+03  0.41800000000E+01 0. -1.
         -5    1    4    4    0  502 -0.10015032393E+03  0.93909170470E+00 -0.19742985026E+03  0.22142038625E+03  0.41800000000E+01 0. -1.
        -11    1    3    3    0    0 -0.22526008283E+02  0.32640827257E+01 -0.41911934383E+02  0.47693663404E+02  0.00000000000E+00 0. -1.
         11    1    3    3    0    0  0.90611579947E+02 -0.23137051464E+01 -0.11983238392E+03  0.15025182823E+03  0.00000000000E+00 0.  1.
</event>
<event>
 8    1  0.5900800E-006  0.1004943E+03  0.7561462E-02  0.1279260E+00
          2   -1    0    0  501    0  0.00000000000E+00  0.00000000000E+00  0.93102235518E+03  0.93102235518E+03  0.00000000000E+00 0. -1.
         -2   -1    0    0    0  501 -0.00000000000E+00 -0.00000000000E+00 -0.22193785748E+02  0.22193785748E+02  0.00000000000E+00 0.  1.
         23    2    1    2    0    0 -0.55616220369E+01 -0.31071735686E+02  0.11845395704E+03  0.15379696057E+03  0.92875081397E+02 0.  0.
         23    2    1    2    0    0  0.55616220369E+01  0.31071735686E+02  0.79037461239E+03  0.79941918035E+03  0.11568324688E+03 0.  0.
          5    1    4    4  502    0 -0.26225812348E+02  0.61560631199E+02  0.61105769873E+03  0.61472472549E+03  0.41800000000E+01 0. -1.
         -5    1    4    4    0  502  0.31787434385E+02 -0.30488895514E+02  0.17931691366E+03  0.18469445487E+03  0.41800000000E+01 0.  1.
        -11    1    3    3    0    0 -0.44708444783E+02 -0.20282596819E+02  0.32908683180E+02  0.59103385667E+02  0.00000000000E+00 0.  1.
         11    1    3    3    0    0  0.39146822746E+02 -0.10789138866E+02  0.85545273860E+02  0.94693574905E+02  0.00000000000E+00 0. -1.
</event>
<event>
 8    1  0.5900800E-006  0.2847567E+03  0.7561462E-02  0.1093119E+00
          2   -1    0    0  501    0  0.00000000000E+00  0.00000000000E+00  0.69724175832E+03  0.69724175832E+03  0.00000000000E+00 0. -1.
         -2   -1    0    0    0  501 -0.00000000000E+00 -0.00000000000E+00 -0.12113534240E+03  0.12113534240E+03  0.00000000000E+00 0.  1.
         23    2    1    2    0    0  0.19161853152E+03 -0.18634391043E+03  0.32516475076E+03  0.43100071805E+03  0.92670325623E+02 0.  0.
         23    2    1    2    0    0 -0.19161853152E+03  0.18634391043E+03  0.25094166516E+03  0.38737638267E+03  0.12508808082E+03 0.  0.
          5    1    4    4  502    0 -0.91589197687E+02  0.16383359921E+03  0.19421782429E+03  0.27012601695E+03  0.41800000000E+01 0.  1.
         -5    1    4    4    0  502 -0.10002933383E+03  0.22510311224E+02  0.56723840866E+02  0.11725036572E+03  0.41800000000E+01 0.  1.
        -11    1    3    3    0    0  0.13821736502E+03 -0.17759313676E+03  0.23168484335E+03  0.32298797014E+03  0.00000000000E+00 0.  1.
         11    1    3    3    0    0  0.53401166502E+02 -0.87507736751E+01  0.93479907403E+02  0.10801274791E+03  0.00000000000E+00 0. -1.
</event>
<event>
 8    1  0.5900800E-006  0.8855164E+02  0.7561462E-02  0.1306398E+00
          2   -1    0    0  501    0  0.00000000000E+00  0.00000000000E+00  0.24055293984E+04  0.24055293984E+04  0.00000000000E+00 0. -1.
         -2   -1    0    0    0  501 -0.00000000000E+00 -0.00000000000E+00 -0.87252701347E+01  0.87252701347E+01  0.00000000000E+00 0.  1.
         23    2    1    2    0    0  0.19369482182E+02 -0.66893399170E+01  0.31240997977E+03  0.32629315526E+03  0.91909213894E+02 0.  0.
         23    2    1    2    0    0 -0.19369482182E+02  0.66893399170E+01  0.20843941485E+04  0.20879615132E+04  0.12026799467E+03 0.  0.
          5    1    4    4  502    0 -0.52447110510E+02  0.32661316144E+01  0.18874392614E+04  0.18881752580E+04  0.41800000000E+01 0. -1.
         -5    1    4    4    0  502  0.33077628328E+02  0.34232083025E+01  0.19695488708E+03  0.19978625527E+03  0.41800000000E+01 0.  1.
        -11    1    3    3    0    0  0.54318985018E+02 -0.11702797774E+02  0.14686628011E+03  0.15702615019E+03  0.00000000000E+00 0.  1.
         11    1    3    3    0    0 -0.34949502836E+02  0.50134578571E+01  0.16554369966E+03  0.16926700507E+03  0.00000000000E+00 0. -1.
</event>
<event>
 8    1  0.5900800E-006  0.1020516E+03  0.7561462E-02  0.1276040E+00
         -1   -1    0    0    0  501 -0.00000000000E+00  0.00000000000E+00  0.54254512340E+02  0.54254512340E+02  0.00000000000E+00 0.  1.
          1   -1    0    0  501    0  0.00000000000E+00 -0.00000000000E+00 -0.37901698023E+03  0.37901698023E+03  0.00000000000E+00 0. -1.
         23    2    1    2    0    0 -0.38466416804E+02  0.76080383082E+02 -0.12386698309E+03  0.18172744351E+03  0.10204873499E+03 0.  0.
         23    2    1    2    0    0  0.38466416804E+02 -0.76080383082E+02 -0.20089548480E+03  0.25154404906E+03  0.12509005913E+03 0.  0.
          5    1    4    4  502    0  0.24280236044E+02 -0.27991218441E+02 -0.19763989475E+03  0.20112692154E+03  0.41800000000E+01 0.  1.
         -5    1    4    4    0  502  0.14186180760E+02 -0.48089164641E+02 -0.32555900456E+01  0.50417127516E+02  0.41800000000E+01 0.  1.
        -11    1    3    3    0    0  0.23252301131E+02  0.79526630811E+01  0.33191929535E+01  0.24797810384E+02  0.00000000000E+00 0.  1.
         11    1    3    3    0    0 -0.61718717935E+02  0.68127720001E+02 -0.12718617605E+03  0.15692963313E+03  0.00000000000E+00 0. -1.
</event>
<event>
 8    1  0.5900800E-006  0.1052485E+03  0.7561462E-02  0.1269631E+00
         -2   -1    0    0    0  501 -0.00000000000E+00  0.00000000000E+00  0.52953889326E+03  0.52953889326E+03  0.00000000000E+00 0.  1.
          2   -1    0    0  501    0  0.00000000000E+00 -0.00000000000E+00 -0.29801915640E+02  0.29801915640E+02  0.00000000000E+00 0. -1.
         23    2    1    2    0    0 -0.39253956121E+02 -0.20185781259E+02  0.32086651345E+03  0.33665317188E+03  0.91824287882E+02 0.  0.
         23    2    1    2    0    0  0.39253956121E+02  0.20185781259E+02  0.17887046417E+03  0.22268763703E+03  0.12508717718E+03 0.  0.
          5    1    4    4  502    0  0.27513541592E+02  0.60722785691E+02  0.16509713679E+03  0.17809769411E+03  0.41800000000E+01 0.  1.
         -5    1    4    4    0  502  0.11740414530E+02 -0.40537004432E+02  0.13773327384E+02  0.44589942912E+02  0.41800000000E+01 0.  1.
        -11    1    3    3    0    0  0.20419285859E+02 -0.34349377964E+02  0.10927372726E+03  0.11635108281E+03  0.00000000000E+00 0. -1.
         11    1    3    3    0    0 -0.59673241981E+02  0.14163596705E+02  0.21159278619E+03  0.22030208907E+03  0.00000000000E+00 0.  1.
</event>
<event>
 8    1  0.5900800E-006  0.7431918E+02  0.7561462E-02  0.1345992E+00
         -2   -1    0    0    0  501 -0.00000000000E+00  0.00000000000E+00  0.61786801416E+02  0.61786801416E+02  0.00000000000E+00 0.  1.
          2   -1    0    0  501    0  0.00000000000E+00 -0.00000000000E+00 -0.22909361859E+03  0.22909361859E+03  0.00000000000E+00 0. -1.
         23    2    1    2    0    0 -0.26704083065E+01 -0.49508105089E+02 -0.78396159133E+02  0.12960210068E+03  0.90512779121E+02 0.  0.
         23    2    1    2    0    0  0.26704083065E+01  0.49508105089E+02 -0.88910658037E+02  0.16127831932E+03  0.12508959837E+03 0.  0.
          5    1    4    4  502    0  0.16220625730E+02 -0.85901061844E+00 -0.10515916124E+03  0.10648834767E+03  0.41800000000E+01 0.  1.
         -5    1    4    4    0  502 -0.13550217424E+02  0.50367115707E+02  0.16248503199E+02  0.54789971647E+02  0.41800000000E+01 0.  1.
        -11    1    3    3    0    0  0.27713391961E+02 -0.94863170410E+01  0.73656368333E+01  0.30203889004E+02  0.00000000000E+00 0.  1.
         11    1    3    3    0    0 -0.30383800268E+02 -0.40021788048E+02 -0.85761795966E+02  0.99398211677E+02  0.00000000000E+00 0. -1.
</event>
<event>
 8    1  0.5900800E-006  0.1240037E+03  0.7561462E-02  0.1236635E+00
         -2   -1    0    0    0  501 -0.00000000000E+00  0.00000000000E+00  0.47647693866E+02  0.47647693866E+02  0.00000000000E+00 0.  1.
          2   -1    0    0  501    0  0.00000000000E+00 -0.00000000000E+00 -0.59149854207E+03  0.59149854207E+03  0.00000000000E+00 0. -1.
         23    2    1    2    0    0 -0.80808223845E+02 -0.36164054596E+02 -0.78734940721E+02  0.14943339933E+03  0.91067788271E+02 0.  0.
         23    2    1    2    0    0  0.80808223845E+02  0.36164054596E+02 -0.46511590749E+03  0.48971283660E+03  0.12509215424E+03 0.  0.
          5    1    4    4  502    0 -0.11714152086E+01 -0.40581462628E+02 -0.13024403501E+03  0.13648885807E+03  0.41800000000E+01 0. -1.
         -5    1    4    4    0  502  0.81979639054E+02  0.76745517224E+02 -0.33487187248E+03  0.35322397853E+03  0.41800000000E+01 0. -1.
        -11    1    3    3    0    0 -0.22153727772E+02  0.55579873126E+01  0.17842316528E+02  0.28983221633E+02  0.00000000000E+00 0.  1.
         11    1    3    3    0    0 -0.58654496073E+02 -0.41722041908E+02 -0.96577257249E+02  0.12045017770E+03  0.00000000000E+00 0. -1.
</event>
<event>
 8    1  0.5900800E-006  0.1230971E+03  0.7561462E-02  0.1238073E+00
         -2   -1    0    0    0  501 -0.00000000000E+00  0.00000000000E+00  0.32394924060E+02  0.32394924060E+02  0.00000000000E+00 0.  1.
          2   -1    0    0  501    0  0.00000000000E+00 -0.00000000000E+00 -0.67190906174E+03  0.67190906174E+03  0.00000000000E+00 0. -1.
         23    2    1    2    0    0  0.88117770420E+02 -0.74523972756E+01 -0.31798655159E+03  0.34814485775E+03  0.11076603856E+03 0.  0.
         23    2    1    2    0    0 -0.88117770420E+02  0.74523972756E+01 -0.32152758610E+03  0.35615912805E+03  0.12509618774E+03 0.  0.
          5    1    4    4  502    0 -0.28853171986E+02 -0.23539924557E+02 -0.26741795635E+03  0.27003049709E+03  0.41800000000E+01 0.  1.
         -5    1    4    4    0  502 -0.59264598434E+02  0.30992321833E+02 -0.54109629751E+02  0.86128630965E+02  0.41800000000E+01 0.  1.
        -11    1    3    3    0    0  0.98947940608E+02 -0.40515580797E+02 -0.24263705149E+03  0.26515079859E+03  0.00000000000E+00 0.  1.
         11    1    3    3    0    0 -0.10830170188E+02  0.33063183521E+02 -0.75349500094E+02  0.82994059156E+02  0.00000000000E+00 0. -1.
</event>
<event>
 8    1  0.5900800E-006  0.2005477E+03  0.7561462E-02  0.1149278E+00
          1   -1    0    0  501    0  0.00000000000E+00  0.00000000000E+00  0.16994313945E+03  0.16994313945E+03  0.00000000000E+00 0. -1.
         -1   -1    0    0    0  501 -0.00000000000E+00 -0.00000000000E+00 -0.28857051422E+03  0.28857051422E+03  0.00000000000E+00 0.  1.
         23    2    1    2    0    0  0.23299386265E+02  0.18044308392E+03 -0.12365886118E+03  0.23766237116E+03  0.89940651450E+02 0.  0.
         23    2    1    2    0    0 -0.23299386265E+02 -0.18044308392E+03  0.50314864105E+01  0.22085128252E+03  0.12508958870E+03 0.  0.
          5    1    4    4  502    0 -0.55457902603E+02 -0.26089774945E+02 -0.10662943209E+02  0.62349226745E+02  0.41800000000E+01 0. -1.
         -5    1    4    4    0  502  0.32158516338E+02 -0.15435330897E+03  0.15694429619E+02  0.15850205577E+03  0.41800000000E+01 0. -1.
        -11    1    3    3    0    0  0.13627547468E+02  0.10707764226E+03 -0.12301648565E+03  0.16365936351E+03  0.00000000000E+00 0. -1.
         11    1    3    3    0    0  0.96718387970E+01  0.73365441653E+02 -0.64237552823E+00  0.74003007648E+02  0.00000000000E+00 0.  1.
</event>
<event>
 8    1  0.5900800E-006  0.1091820E+03  0.7561462E-02  0.1262092E+00
         -2   -1    0    0    0  501 -0.00000000000E+00  0.00000000000E+00  0.16625626862E+03  0.16625626862E+03  0.00000000000E+00 0. -1.
          2   -1    0    0  501    0  0.00000000000E+00 -0.00000000000E+00 -0.12307499190E+03  0.12307499190E+03  0.00000000000E+00 0.  1.
         23    2    1    2    0    0 -0.73145773380E+02  0.46253895341E+02  0.53463359397E+02  0.13688064308E+03  0.91587404451E+02 0.  0.
         23    2    1    2    0    0  0.73145773380E+02 -0.46253895341E+02 -0.10282082678E+02  0.15245061744E+03  0.12508294263E+03 0.  0.
          5    1    4    4  502    0  0.51011151175E+02  0.54675268041E+01  0.48680707478E+02  0.70847124671E+02  0.41800000000E+01 0. -1.
         -5    1    4    4    0  502  0.22134622205E+02 -0.51721422145E+02 -0.58962790157E+02  0.81603492768E+02  0.41800000000E+01 0. -1.
        -11    1    3    3    0    0 -0.15447469737E+02 -0.18265168968E+02  0.43644480315E+02  0.49770286122E+02  0.00000000000E+00 0. -1.
         11    1    3    3    0    0 -0.57698303643E+02  0.64519064309E+02  0.98188790815E+01  0.87110356956E+02  0.00000000000E+00 0.  1.
</event>
<event>
 8    1  0.5900800E-006  0.9588638E+02  0.7561462E-02  0.1289192E+00
          2   -1    0    0  501    0  0.00000000000E+00  0.00000000000E+00  0.49412665387E+03  0.49412665387E+03  0.00000000000E+00 0. -1.
         -2   -1    0    0    0  501 -0.00000000000E+00 -0.00000000000E+00 -0.25107176696E+02  0.25107176696E+02  0.00000000000E+00 0.  1.
         23    2    1    2    0    0 -0.33297391470E+02 -0.15397966025E+02  0.23120477685E+03  0.25116509980E+03  0.91007938572E+02 0.  0.
         23    2    1    2    0    0  0.33297391470E+02  0.15397966025E+02  0.23781470032E+03  0.26806873077E+03  0.11814905454E+03 0.  0.
          5    1    4    4  502    0  0.29461512007E+02  0.54969265378E+02  0.21067108541E+03  0.21974844585E+03  0.41800000000E+01 0. -1.
         -5    1    4    4    0  502  0.38358794631E+01 -0.39571299353E+02  0.27143614914E+02  0.48320284915E+02  0.41800000000E+01 0.  1.
        -11    1    3    3    0    0 -0.23171571588E+02 -0.48996282519E+02  0.85010622259E+02  0.10081846719E+03  0.00000000000E+00 0.  1.
         11    1    3    3    0    0 -0.10125819881E+02  0.33598316493E+02  0.14619415459E+03  0.15034663261E+03  0.00000000000E+00 0. -1.
</event>
<event>
 8    1  0.5900800E-006  0.1069617E+03  0.7561462E-02  0.1266302E+00
         -2   -1    0    0    0  501 -0.00000000000E+00  0.00000000000E+00  0.83845338740E+02  0.83845338740E+02  0.00000000000E+00 0. -1.
          2   -1    0    0  501    0  0.00000000000E+00 -0.00000000000E+00 -0.18790360041E+03  0.18790360041E+03  0.00000000000E+00 0.  1.
         23    2    1    2    0    0  0.27610381777E+02 -0.56223000576E+02 -0.41779657645E+02  0.11861575960E+03  0.91655876281E+02 0.  0.
         23    2    1    2    0    0 -0.27610381777E+02  0.56223000576E+02 -0.62278604026E+02  0.15313317955E+03  0.12509111553E+03 0.  0.
          5    1    4    4  502    0  0.11048388272E+02 -0.36588779655E+02 -0.24797639747E+02  0.45751513822E+02  0.41800000000E+01 0. -1.
         -5    1    4    4    0  502 -0.38658770049E+02  0.92811780230E+02 -0.37480964279E+02  0.10738166573E+03  0.41800000000E+01 0. -1.
        -11    1    3    3    0    0 -0.10197826805E+02 -0.20185528245E+02 -0.59346097302E+02  0.63509137036E+02  0.00000000000E+00 0.  1.
         11    1    3    3    0    0  0.37808208582E+02 -0.36037472331E+02  0.17566439657E+02  0.55106622564E+02  0.00000000000E+00 0. -1.
</event>
<event>
 8    1  0.5900800E-006  0.1426583E+03  0.7561462E-02  0.1209796E+00
          2   -1    0    0  501    0  0.00000000000E+00  0.00000000000E+00  0.17830916791E+04  0.17830916791E+04  0.00000000000E+00 0. -1.
         -2   -1    0    0    0  501 -0.00000000000E+00 -0.00000000000E+00 -0.12789071084E+02  0.12789071084E+02  0.00000000000E+00 0.  1.
         23    2    1    2    0    0  0.55394437798E+02 -0.83706580728E+02  0.64075388534E+03  0.65500135705E+03  0.91574563968E+02 0.  0.
         23    2    1    2    0    0 -0.55394437798E+02  0.83706580728E+02  0.11295487226E+04  0.11408793931E+04  0.12510050911E+03 0.  0.
          5    1    4    4  502    0  0.28988379052E+02 -0.89375507278E+01  0.13331821743E+03  0.13678971244E+03  0.41800000000E+01 0.  1.
         -5    1    4    4    0  502 -0.84382816850E+02  0.92644131455E+02  0.99623050521E+03  0.10040896806E+04  0.41800000000E+01 0.  1.
        -11    1    3    3    0    0  0.62340717758E+01  0.16531584238E+02  0.36878357601E+02  0.40892177585E+02  0.00000000000E+00 0.  1.
         11    1    3    3    0    0  0.49160366022E+02 -0.10023816497E+03  0.60387552774E+03  0.61410917947E+03  0.00000000000E+00 0. -1.
</event>
<event>
 8    1  0.5900800E-006  0.9346746E+02  0.7561462E-02  0.1294666E+00
         -1   -1    0    0    0  501 -0.00000000000E+00  0.00000000000E+00  0.29473023314E+02  0.29473023314E+02  0.00000000000E+00 0.  1.
          1   -1    0    0  501    0  0.00000000000E+00 -0.00000000000E+00 -0.58441938038E+03  0.58441938038E+03  0.00000000000E+00 0. -1.
         23    2    1    2    0    0  0.49010865064E+02  0.17177387793E+02 -0.14601238001E+03  0.18311128797E+03  0.97534614985E+02 0.  0.
         23    2    1    2    0    0 -0.49010865064E+02 -0.17177387793E+02 -0.40893397705E+03  0.43078111572E+03  0.12509294355E+03 0.  0.
          5    1    4    4  502    0 -0.47984750440E+02 -0.57147051202E+02 -0.35889276424E+03  0.36659215807E+03  0.41800000000E+01 0. -1.
         -5    1    4    4    0  502 -0.10261146233E+01  0.39969663408E+02 -0.50041212816E+02  0.64188957651E+02  0.41800000000E+01 0. -1.
        -11    1    3    3    0    0  0.55377130670E+02  0.18600568779E+01 -0.15474474201E+03  0.16436551217E+03  0.00000000000E+00 0. -1.
         11    1    3    3    0    0 -0.63662656061E+01  0.15317330915E+02  0.87323619988E+01  0.18745775796E+02  0.00000000000E+00 0.  1.
</event>
<event>
 8    1  0.5900800E-006  0.7169817E+02  0.7561462E-02  0.1354412E+00
         -3   -1    0    0    0  501 -0.00000000000E+00  0.00000000000E+00  0.16013855390E+03  0.16013855390E+03  0.00000000000E+00 0.  1.
          3   -1    0    0  501    0  0.00000000000E+00 -0.00000000000E+00 -0.77958449875E+02  0.77958449875E+02  0.00000000000E+00 0. -1.
         23    2    1    2    0    0 -0.22354158277E+01 -0.26960743267E+02  0.38525525253E+02  0.10287166929E+03  0.91468494498E+02 0.  0.
         23    2    1    2    0    0  0.22354158277E+01  0.26960743267E+02  0.43654578768E+02  0.13522533448E+03  0.12509312561E+03 0.  0.
          5    1    4    4  502    0  0.46021553446E+02  0.33572602713E+01  0.65913983436E+02  0.80569101959E+02  0.41800000000E+01 0.  1.
         -5    1    4    4    0  502 -0.43786137618E+02  0.23603482996E+02 -0.22259404667E+02  0.54656232519E+02  0.41800000000E+01 0.  1.
        -11    1    3    3    0    0 -0.19953440760E+02 -0.19567125469E+02  0.64661311414E+02  0.70442156348E+02  0.00000000000E+00 0.  1.
         11    1    3    3    0    0  0.17718024932E+02 -0.73936177986E+01 -0.26135786161E+02  0.32429512945E+02  0.00000000000E+00 0. -1.
</event>
<event>
 8    1  0.5900800E-006  0.1884389E+03  0.7561462E-02  0.1159877E+00
          1   -1    0    0  501    0  0.00000000000E+00  0.00000000000E+00  0.16614471131E+04  0.16614471131E+04  0.00000000000E+00 0. -1.
         -1   -1    0    0    0  501 -0.00000000000E+00 -0.00000000000E+00 -0.22978339732E+02  0.22978339732E+02  0.00000000000E+00 0.  1.
         23    2    1    2    0    0 -0.15652908399E+03 -0.29940401640E+02  0.64851631423E+03  0.67395458074E+03  0.90794191917E+02 0.  0.
         23    2    1    2    0    0  0.15652908399E+03  0.29940401640E+02  0.98995245909E+03  0.10104708721E+04  0.12509088782E+03 0.  0.
          5    1    4    4  502    0  0.17453281953E+03  0.22216385415E+02  0.94513061545E+03  0.96137642240E+03  0.41800000000E+01 0. -1.
         -5    1    4    4    0  502 -0.18003735532E+02  0.77240162248E+01  0.44821843641E+02  0.49094449657E+02  0.41800000000E+01 0. -1.
        -11    1    3    3    0    0 -0.13528339420E+03  0.99616722972E+01  0.43310718754E+03  0.45385313435E+03  0.00000000000E+00 0.  1.
         11    1    3    3    0    0 -0.21245689793E+02 -0.39902073937E+02  0.21540912669E+03  0.22010144638E+03  0.00000000000E+00 0. -1.
</event>
<event>
 8    1  0.5900800E-006  0.1474100E+03  0.7561462E-02  0.1203692E+00
         -2   -1    0    0    0  501 -0.00000000000E+00  0.00000000000E+00  0.12864428179E+02  0.12864428179E+02  0.00000000000E+00 0.  1.
          2   -1    0    0  501    0  0.00000000000E+00 -0.00000000000E+00 -0.17056594460E+04  0.17056594460E+04  0.00000000000E+00 0. -1.
         23    2    1    2    0    0 -0.94262484908E+02  0.36921602957E+02 -0.74209351716E+03  0.75429890506E+03  0.89528929060E+02 0.  0.
         23    2    1    2    0    0  0.94262484908E+02 -0.36921602957E+02 -0.95070150065E+03  0.96422496911E+03  0.12509127422E+03 0.  0.
          5    1    4    4  502    0  0.12872601433E+02 -0.70414732835E+02 -0.37101178388E+03  0.37787716873E+03  0.41800000000E+01 0. -1.
         -5    1    4    4    0  502  0.81389883475E+02  0.33493129879E+02 -0.57968971677E+03  0.58634780038E+03  0.41800000000E+01 0. -1.
        -11    1    3    3    0    0 -0.88564641766E+02  0.62759216407E+02 -0.60979247206E+03  0.61937813491E+03  0.00000000000E+00 0. -1.
         11    1    3    3    0    0 -0.56978431419E+01 -0.25837613450E+02 -0.13230104509E+03  0.13492077015E+03  0.00000000000E+00 0.  1.
</event>
<event>
 8    1  0.5900800E-006  0.1500802E+03  0.7561462E-02  0.1200374E+00
          2   -1    0    0  501    0  0.00000000000E+00  0.00000000000E+00  0.69134197826E+03  0.69134197826E+03  0.00000000000E+00 0. -1.
         -2   -1    0    0    0  501 -0.00000000000E+00 -0.00000000000E+00 -0.39288213224E+02  0.39288213224E+02  0.00000000000E+00 0.  1.
         23    2    1    2    0    0 -0.42823979682E+01 -0.12331043755E+03  0.29671593944E+03  0.33422581989E+03  0.91884422070E+02 0.  0.
         23    2    1    2    0    0  0.42823979682E+01  0.12331043755E+03  0.35533782559E+03  0.39640437160E+03  0.12509057751E+03 0.  0.
          5    1    4    4  502    0 -0.25966821541E+02  0.13109758123E+03  0.32969164432E+03  0.35577367013E+03  0.41800000000E+01 0.  1.
         -5    1    4    4    0  502  0.30249219510E+02 -0.77871436772E+01  0.25646181279E+02  0.40630701468E+02  0.41800000000E+01 0.  1.
        -11    1    3    3    0    0  0.23981708939E+02 -0.77336108419E+02  0.92186409749E+02  0.12269608866E+03  0.00000000000E+00 0.  1.
         11    1    3    3    0    0 -0.28264106907E+02 -0.45974329133E+02  0.20452952969E+03  0.21152973123E+03  0.00000000000E+00 0. -1.
</event>
<event>
 8    1  0.5900800E-006  0.1119632E+03  0.7561462E-02  0.1256977E+00
          2   -1    0    0  501    0  0.00000000000E+00  0.00000000000E+00  0.15135718027E+03  0.15135718027E+03  0.00000000000E+00 0. -1.
         -2   -1    0    0    0  501 -0.00000000000E+00 -0.00000000000E+00 -0.16845973625E+03  0.16845973625E+03  0.00000000000E+00 0.  1.
         23    2    1    2    0    0  0.31292371952E+02 -0.42217117352E+02 -0.11199508692E+03  0.15424508074E+03  0.92125717894E+02 0.  0.
         23    2    1    2    0    0 -0.31292371952E+02  0.42217117352E+02  0.94892530947E+02  0.16557183577E+03  0.12509173767E+03 0.  0.
          5    1    4    4  502    0  0.47568863115E+02  0.11310117533E+02  0.48095964104E+02  0.68712514579E+02  0.41800000000E+01 0.  1.
         -5    1    4    4    0  502 -0.78861235067E+02  0.30906999819E+02  0.46796566843E+02  0.96859321195E+02  0.41800000000E+01 0.  1.
        -11    1    3    3    0    0  0.37178077214E+01  0.20869899128E+02  0.17658190833E+01  0.21271880521E+02  0.00000000000E+00 0. -1.
         11    1    3    3    0    0  0.27574564230E+02 -0.63087016480E+02 -0.11376090601E+03  0.13297320022E+03  0.00000000000E+00 0.  1.
</event>
<event>
 8    1  0.5900800E-006  0.1468101E+03  0.7561462E-02  0.1204448E+00
          4   -1    0    0  501    0  0.00000000000E+00  0.00000000000E+00  0.12163221307E+03  0.12163221307E+03  0.00000000000E+00 0. -1.
         -4   -1    0    0    0  501 -0.00000000000E+00 -0.00000000000E+00 -0.21082656202E+03  0.21082656202E+03  0.00000000000E+00 0.  1.
         23    2    1    2    0    0 -0.10471740519E+03 -0.37426975935E+02 -0.80213291412E+02  0.16484600023E+03  0.91506929764E+02 0.  0.
         23    2    1    2    0    0  0.10471740519E+03  0.37426975935E+02 -0.89810575412E+01  0.16761277486E+03  0.12508744711E+03 0.  0.
          5    1    4    4  502    0 -0.20652601585E+02  0.20189442429E+02  0.22838996683E+02  0.37057195081E+02  0.41800000000E+01 0. -1.
         -5    1    4    4    0  502  0.12537000678E+03  0.17237533506E+02 -0.31820054224E+02  0.13055557978E+03  0.41800000000E+01 0. -1.
        -11    1    3    3    0    0 -0.10388302143E+03 -0.56820880554E+02 -0.83858399191E+02  0.14509488524E+03  0.00000000000E+00 0.  1.
         11    1    3    3    0    0 -0.83438376500E+00  0.19393904619E+02  0.36451077794E+01  0.19751114990E+02  0.00000000000E+00 0. -1.
</event>
<event>
 8    1  0.5900800E-006  0.8257144E+02  0.7561462E-02  0.1321908E+00
          1   -1    0    0  501    0  0.00000000000E+00  0.00000000000E+00  0.20649189956E+03  0.20649189956E+03  0.00000000000E+00 0. -1.
         -1   -1    0    0    0  501 -0.00000000000E+00 -0.00000000000E+00 -0.70627462359E+02  0.70627462359E+02  0.00000000000E+00 0.  1.
         23    2    1    2    0    0  0.42783738213E+02 -0.25139490069E+02  0.37503777940E+02  0.11043314045E+03  0.91249673613E+02 0.  0.
         23    2    1    2    0    0 -0.42783738213E+02  0.25139490069E+02  0.98360659266E+02  0.16668622147E+03  0.12508810863E+03 0.  0.
          5    1    4    4  502    0 -0.10416201327E+02  0.43299907406E+02  0.11677185593E+03  0.12504606339E+03  0.41800000000E+01 0. -1.
         -5    1    4    4    0  502 -0.32367536885E+02 -0.18160417337E+02 -0.18411196668E+02  0.41640158077E+02  0.41800000000E+01 0. -1.
        -11    1    3    3    0    0 -0.11724398390E+02 -0.26029158697E+02 -0.17097345689E+02  0.33276085251E+02  0.00000000000E+00 0.  1.
         11    1    3    3    0    0  0.54508136602E+02  0.88966862754E+00  0.54601123628E+02  0.77157055203E+02  0.00000000000E+00 0. -1.
</event>
<event>
 8    1  0.5900800E-006  0.2259994E+03  0.7561462E-02  0.1129488E+00
          1   -1    0    0  501    0  0.00000000000E+00  0.00000000000E+00  0.56099808057E+03  0.56099808057E+03  0.00000000000E+00 0. -1.
         -1   -1    0    0    0  501 -0.00000000000E+00 -0.00000000000E+00 -0.19369022573E+03  0.19369022573E+03  0.00000000000E+00 0.  1.
         23    2    1    2    0    0  0.21621845063E+03  0.62538500966E+01 -0.74167438344E+02  0.24740328276E+03  0.94435408499E+02 0.  0.
         23    2    1    2    0    0 -0.21621845063E+03 -0.62538500966E+01  0.44147529318E+03  0.50728502354E+03  0.12509249212E+03 0.  0.
          5    1    4    4  502    0 -0.18244706098E+03  0.44153628791E+01  0.23407869798E+03  0.29684463063E+03  0.41800000000E+01 0.  1.
         -5    1    4    4    0  502 -0.33771389651E+02 -0.10669212976E+02  0.20739659520E+03  0.21044039291E+03  0.41800000000E+01 0.  1.
        -11    1    3    3    0    0  0.13652544813E+03 -0.39202620437E+02 -0.28312821574E+02  0.14483666422E+03  0.00000000000E+00 0.  1.
         11    1    3    3    0    0  0.79693002493E+02  0.45456470534E+02 -0.45854616770E+02  0.10256661854E+03  0.00000000000E+00 0. -1.
</event>
<event>
 8    1  0.5900800E-006  0.2047975E+03  0.7561462E-02  0.1145753E+00
          1   -1    0    0  501    0  0.00000000000E+00  0.00000000000E+00  0.63104280940E+03  0.63104280940E+03  0.00000000000E+00 0. -1.
         -1   -1    0    0    0  501 -0.00000000000E+00 -0.00000000000E+00 -0.81409722948E+02  0.81409722948E+02  0.00000000000E+00 0.  1.
         23    2    1    2    0    0 -0.16948140960E+03 -0.56120799331E+02  0.12715721508E+03  0.23705080765E+03  0.90280871413E+02 0.  0.
         23    2    1    2    0    0  0.16948140960E+03  0.56120799331E+02  0.42247587137E+03  0.47540172470E+03  0.12508975035E+03 0.  0.
          5    1    4    4  502    0  0.14871198611E+03  0.91861202585E+02  0.31671975648E+03  0.36177701958E+03  0.41800000000E+01 0.  1.
         -5    1    4    4    0  502  0.20769423489E+02 -0.35740403255E+02  0.10575611489E+03  0.11362470512E+03  0.41800000000E+01 0.  1.
        -11    1    3    3    0    0 -0.80048221882E+02 -0.65291097786E+02  0.36988698623E+02  0.10972150702E+03  0.00000000000E+00 0.  1.
         11    1    3    3    0    0 -0.89433187714E+02  0.91702984548E+01  0.90168516461E+02  0.12732930063E+03  0.00000000000E+00 0. -1.
</event>
<event>
 8    1  0.5900800E-006  0.1200017E+03  0.7561462E-02  0.1243094E+00
         -1   -1    0    0    0  501 -0.00000000000E+00  0.00000000000E+00  0.17399059829E+03  0.17399059829E+03  0.00000000000E+00 0.  1.
          1   -1    0    0  501    0  0.00000000000E+00 -0.00000000000E+00 -0.14478940642E+03  0.14478940642E+03  0.00000000000E+00 0. -1.
         23    2    1    2    0    0  0.38430741800E+02  0.37382588870E+02  0.11666221000E+03  0.15700483257E+03  0.90366289858E+02 0.  0.
         23    2    1    2    0    0 -0.38430741800E+02 -0.37382588870E+02 -0.87461018133E+02  0.16177517214E+03  0.12508955496E+03 0.  0.
          5    1    4    4  502    0 -0.65214375089E+02  0.23411521003E+02 -0.47976513321E+02  0.84381468726E+02  0.41800000000E+01 0.  1.
         -5    1    4    4    0  502  0.26783633288E+02 -0.60794109873E+02 -0.39484504813E+02  0.77393703411E+02  0.41800000000E+01 0.  1.
        -11    1    3    3    0    0  0.40942214447E+02 -0.20706616520E+02  0.62583237529E+02  0.77599552261E+02  0.00000000000E+00 0.  1.
         11    1    3    3    0    0 -0.25114726464E+01  0.58089205390E+02  0.54078972471E+02  0.79405280311E+02  0.00000000000E+00 0. -1.
</event>
<event>
 8    1  0.5900800E-006  0.1379417E+03  0.7561462E-02  0.1216126E+00
         -1   -1    0    0    0  501 -0.00000000000E+00  0.00000000000E+00  0.39820658827E+02  0.39820658827E+02  0.00000000000E+00 0.  1.
          1   -1    0    0  501    0  0.00000000000E+00 -0.00000000000E+00 -0.70349544484E+03  0.70349544484E+03  0.00000000000E+00 0. -1.
         23    2    1    2    0    0  0.10533650625E+03 -0.65550878019E+02 -0.37452725254E+03  0.40472105572E+03  0.90198519361E+02 0.  0.
         23    2    1    2    0    0 -0.10533650625E+03  0.65550878019E+02 -0.28914753348E+03  0.33859504795E+03  0.12509042017E+03 0.  0.
          5    1    4    4  502    0 -0.10632476291E+03  0.27558433243E+02 -0.27773311985E+03  0.29869312130E+03  0.41800000000E+01 0.  1.
         -5    1    4    4    0  502  0.98825666099E+00  0.37992444776E+02 -0.11414413625E+02  0.39901926642E+02  0.41800000000E+01 0.  1.
        -11    1    3    3    0    0  0.64353437283E+02 -0.22200781511E+02 -0.83946607413E+02  0.10807993563E+03  0.00000000000E+00 0.  1.
         11    1    3    3    0    0  0.40983068969E+02 -0.43350096508E+02 -0.29058064512E+03  0.29664112009E+03  0.00000000000E+00 0. -1.
</event>
<event>
 8    1  0.5900800E-006  0.1146718E+03  0.7561462E-02  0.1252155E+00
          2   -1    0    0  501    0  0.00000000000E+00  0.00000000000E+00  0.77454475635E+03  0.77454475635E+03  0.00000000000E+00 0. -1.
         -2   -1    0    0    0  501 -0.00000000000E+00 -0.00000000000E+00 -0.20763139636E+02  0.20763139636E+02  0.00000000000E+00 0.  1.
         23    2    1    2    0    0 -0.56945816250E+02 -0.28168151412E+02  0.28928393330E+03  0.31008279396E+03  0.91814346935E+02 0.  0.
         23    2    1    2    0    0  0.56945816250E+02  0.28168151412E+02  0.46449768342E+03  0.48522510203E+03  0.12509608705E+03 0.  0.
          5    1    4    4  502    0  0.76875163351E+02 -0.26672149367E+02  0.28654143766E+03  0.29790042328E+03  0.41800000000E+01 0. -1.
         -5    1    4    4    0  502 -0.19929347100E+02  0.54840300779E+02  0.17795624576E+03  0.18732467875E+03  0.41800000000E+01 0. -1.
        -11    1    3    3    0    0 -0.39330507158E+02 -0.48514639253E+02  0.26960168670E+03  0.27674108565E+03  0.00000000000E+00 0. -1.
         11    1    3    3    0    0 -0.17615309092E+02  0.20346487840E+02  0.19682246597E+02  0.33341708309E+02  0.00000000000E+00 0.  1.
</event>
<event>
 8    1  0.5900800E-006  0.1371266E+03  0.7561462E-02  0.1217248E+00
         -2   -1    0    0    0  501 -0.00000000000E+00  0.00000000000E+00  0.66928711926E+03  0.66928711926E+03  0.00000000000E+00 0. -1.
          2   -1    0    0  501    0  0.00000000000E+00 -0.00000000000E+00 -0.54397163249E+02  0.54397163249E+02  0.00000000000E+00 0.  1.
         23    2    1    2    0    0  0.30855261815E+02 -0.11382206059E+03  0.48648392297E+03  0.50910769462E+03  0.92825259267E+02 0.  0.
         23    2    1    2    0    0 -0.30855261815E+02  0.11382206059E+03  0.12840603305E+03  0.21457658789E+03  0.12508994400E+03 0.  0.
          5    1    4    4  502    0  0.18245212901E+02 -0.20471970347E+01  0.75821509966E+02  0.78124596530E+02  0.41800000000E+01 0. -1.
         -5    1    4    4    0  502 -0.49100474716E+02  0.11586925762E+03  0.52584523082E+02  0.13645199136E+03  0.41800000000E+01 0. -1.
        -11    1    3    3    0    0  0.38531833698E+02 -0.40921795283E+02  0.91543505281E+02  0.10742210618E+03  0.00000000000E+00 0.  1.
         11    1    3    3    0    0 -0.76765718829E+01 -0.72900265304E+02  0.39494041769E+03  0.40168558844E+03  0.00000000000E+00 0. -1.
</event>
<event>
 8    1  0.5900800E-006  0.1091167E+03  0.7561462E-02  0.1262214E+00
          2   -1    0    0  501    0  0.00000000000E+00  0.00000000000E+00  0.24598951425E+04  0.24598951425E+04  0.00000000000E+00 0. -1.
         -2   -1    0    0    0  501 -0.00000000000E+00 -0.00000000000E+00 -0.81477825914E+01  0.81477825914E+01  0.00000000000E+00 0.  1.
         23    2    1    2    0    0 -0.80879868115E+01  0.19625473809E+02  0.35029015388E+03  0.36275891303E+03  0.91870900303E+02 0.  0.
         23    2    1    2    0    0  0.80879868115E+01 -0.19625473809E+02  0.21014572061E+04  0.21052840121E+04  0.12509119846E+03 0.  0.
          5    1    4    4  502    0  0.58134288155E+02  0.21107535878E+02  0.96557518401E+03  0.96756293434E+03  0.41800000000E+01 0.  1.
         -5    1    4    4    0  502 -0.50046301344E+02 -0.40733009687E+02  0.11358820220E+04  0.11377210777E+04  0.41800000000E+01 0.  1.
        -11    1    3    3    0    0  0.37066131285E+01  0.54572443288E+02  0.24967519753E+03  0.25559654694E+03  0.00000000000E+00 0. -1.
         11    1    3    3    0    0 -0.11794599940E+02 -0.34946969479E+02  0.10061495635E+03  0.10716236608E+03  0.00000000000E+00 0.  1.
</event>
<event>
 8    1  0.5900800E-006  0.1834074E+03  0.7561462E-02  0.1164546E+00
         -2   -1    0    0    0  501 -0.00000000000E+00  0.00000000000E+00  0.84398520286E+02  0.84398520286E+02  0.00000000000E+00 0.  1.
          2   -1    0    0  501    0  0.00000000000E+00 -0.00000000000E+00 -0.52263646500E+03  0.52263646500E+03  0.00000000000E+00 0. -1.
         23    2    1    2    0    0 -0.66887807128E+02 -0.13581422263E+03 -0.81187446092E+02  0.19959147329E+03  0.10161630279E+03 0.  0.
         23    2    1    2    0    0  0.66887807128E+02  0.13581422263E+03 -0.35705049862E+03  0.40744351200E+03  0.12492267646E+03 0.  0.
          5    1    4    4  502    0  0.74930255736E+02  0.15247376848E+03 -0.27534943327E+03  0.32357004821E+03  0.41800000000E+01 0. -1.
         -5    1    4    4    0  502 -0.80424486084E+01 -0.16659545850E+02 -0.81701065353E+02  0.83873463785E+02  0.41800000000E+01 0. -1.
        -11    1    3    3    0    0 -0.66333947943E+02 -0.14984211252E+03 -0.60687090786E+02  0.17474488353E+03  0.00000000000E+00 0.  1.
         11    1    3    3    0    0 -0.55385918478E+00  0.14027889883E+02 -0.20500355306E+02  0.24846589751E+02  0.00000000000E+00 0. -1.
</event>
<event>
 8    1  0.5900800E-006  0.9577683E+02  0.7561462E-02  0.1289436E+00
          2   -1    0    0  501    0  0.00000000000E+00  0.00000000000E+00  0.22000161313E+03  0.22000161313E+03  0.00000000000E+00 0. -1.
         -2   -1    0    0    0  501 -0.00000000000E+00 -0.00000000000E+00 -0.67112622441E+02  0.67112622441E+02  0.00000000000E+00 0.  1.
         23    2    1    2    0    0 -0.51211135770E+02  0.19997048417E+02  0.67185833787E+02  0.12582543991E+03  0.91080418826E+02 0.  0.
         23    2    1    2    0    0  0.51211135770E+02 -0.19997048417E+02  0.85703156900E+02  0.16128879566E+03  0.12508629874E+03 0.  0.
          5    1    4    4  502    0 -0.15988339746E+02 -0.23472452048E+02 -0.20653388331E+02  0.35364075876E+02  0.41800000000E+01 0.  1.
         -5    1    4    4    0  502  0.67199475516E+02  0.34754036312E+01  0.10635654523E+03  0.12592471979E+03  0.41800000000E+01 0.  1.
        -11    1    3    3    0    0  0.21049215455E+02  0.45363433249E+01  0.42969685370E+02  0.48062893617E+02  0.00000000000E+00 0. -1.
         11    1    3    3    0    0 -0.72260351225E+02  0.15460705092E+02  0.24216148417E+02  0.77762546289E+02  0.00000000000E+00 0.  1.
</event>
<event>
 8    1  0.5900800E-006  0.1806068E+03  0.7561462E-02  0.1167217E+00
         -2   -1    0    0    0  501 -0.00000000000E+00  0.00000000000E+00  0.14163817048E+02  0.14163817048E+02  0.00000000000E+00 0. -1.
          2   -1    0    0  501    0  0.00000000000E+00 -0.00000000000E+00 -0.28986786215E+04  0.28986786215E+04  0.00000000000E+00 0.  1.
         23    2    1    2    0    0 -0.13809431340E+03  0.73304012085E+02 -0.89534385654E+03  0.91361938082E+03  0.92823671430E+02 0.  0.
         23    2    1    2    0    0  0.13809431340E+03 -0.73304012085E+02 -0.19891709479E+04  0.19992230577E+04  0.12509299330E+03 0.  0.
          5    1    4    4  502    0  0.14961168347E+03 -0.74303793215E+02 -0.19651280714E+04  0.19722196933E+04  0.41800000000E+01 0.  1.
         -5    1    4    4    0  502 -0.11517370077E+02  0.99978113026E+00 -0.24042876503E+02  0.27003364352E+02  0.41800000000E+01 0.  1.
        -11    1    3    3    0    0 -0.96457785974E+02  0.94556612714E+02 -0.66316353086E+03  0.67677982102E+03  0.00000000000E+00 0. -1.
         11    1    3    3    0    0 -0.41636527423E+02 -0.21252600629E+02 -0.23218032569E+03  0.23683955980E+03  0.00000000000E+00 0.  1.
</event>
<event>
 8    1  0.5900800E-006  0.1583269E+03  0.7561462E-02  0.1190599E+00
          1   -1    0    0  501    0  0.00000000000E+00  0.00000000000E+00  0.28941990049E+03  0.28941990049E+03  0.00000000000E+00 0. -1.
         -1   -1    0    0    0  501 -0.00000000000E+00 -0.00000000000E+00 -0.96317439556E+02  0.96317439556E+02  0.00000000000E+00 0.  1.
         23    2    1    2    0    0  0.71545105895E+01 -0.12583583149E+03  0.11101298013E+03  0.19010394670E+03  0.89049341855E+02 0.  0.
         23    2    1    2    0    0 -0.71545105895E+01  0.12583583149E+03  0.82089480802E+02  0.19563339335E+03  0.12509155937E+03 0.  0.
          5    1    4    4  502    0  0.50828343451E+02  0.54608688461E+02  0.36987632392E+01  0.74811647508E+02  0.41800000000E+01 0. -1.
         -5    1    4    4    0  502 -0.57982854041E+02  0.71227143031E+02  0.78390717563E+02  0.12082174584E+03  0.41800000000E+01 0. -1.
        -11    1    3    3    0    0  0.40306768678E+02 -0.35297928038E+02  0.19054373919E+02  0.56865178189E+02  0.00000000000E+00 0.  1.
         11    1    3    3    0    0 -0.33152258088E+02 -0.90537903454E+02  0.91958606216E+02  0.13323876851E+03  0.00000000000E+00 0. -1.
</event>
<event>
 8    1  0.5900800E-006  0.1034131E+03  0.7561462E-02  0.1273278E+00
         -1   -1    0    0    0  501 -0.00000000000E+00  0.00000000000E+00  0.16496732676E+02  0.16496732676E+02  0.00000000000E+00 0.  1.
          1   -1    0    0  501    0  0.00000000000E+00 -0.00000000000E+00 -0.81417306572E+03  0.81417306572E+03  0.00000000000E+00 0. -1.
         23    2    1    2    0    0  0.22602570503E+02 -0.35081568124E+02 -0.24839909681E+03  0.26578283529E+03  0.84834023987E+02 0.  0.
         23    2    1    2    0    0 -0.22602570503E+02  0.35081568124E+02 -0.54927723623E+03  0.56488696310E+03  0.12510078425E+03 0.  0.
          5    1    4    4  502    0  0.42832975467E+02 -0.19997117157E+01 -0.93777147236E+02  0.10320023439E+03  0.41800000000E+01 0. -1.
         -5    1    4    4    0  502 -0.65435545970E+02  0.37081279839E+02 -0.45550008899E+03  0.46168672871E+03  0.41800000000E+01 0. -1.
        -11    1    3    3    0    0  0.29405705351E+02  0.18278218888E+02 -0.54563216869E+02  0.64621462595E+02  0.00000000000E+00 0.  1.
         11    1    3    3    0    0 -0.68031348481E+01 -0.53359787011E+02 -0.19383587994E+03  0.20116137270E+03  0.00000000000E+00 0. -1.
</event>
<event>
 8    1  0.5900800E-006  0.1624921E+03  0.7561462E-02  0.1185912E+00
          1   -1    0    0  501    0  0.00000000000E+00  0.00000000000E+00  0.44579720452E+02  0.44579720452E+02  0.00000000000E+00 0. -1.
         -1   -1    0    0    0  501 -0.00000000000E+00 -0.00000000000E+00 -0.60153053211E+03  0.60153053211E+03  0.00000000000E+00 0.  1.
         23    2    1    2    0    0  0.11924971696E+03 -0.23418999198E+02 -0.29224933022E+03  0.32911969905E+03  0.90228381198E+02 0.  0.
         23    2    1    2    0    0 -0.11924971696E+03  0.23418999198E+02 -0.26470148144E+03  0.31699055351E+03  0.12508873738E+03 0.  0.
          5    1    4    4  502    0  0.20417794685E+02  0.27171792998E+02 -0.44135776594E+02  0.55862615855E+02  0.41800000000E+01 0.  1.
         -5    1    4    4    0  502 -0.13966751164E+03 -0.37527937999E+01 -0.22056570485E+03  0.26112793766E+03  0.41800000000E+01 0.  1.
        -11    1    3    3    0    0  0.12374178101E+03  0.33788765988E+01 -0.24836793391E+03  0.27750689319E+03  0.00000000000E+00 0.  1.
         11    1    3    3    0    0 -0.44920640541E+01 -0.26797875797E+02 -0.43881396308E+02  0.51612805859E+02  0.00000000000E+00 0. -1.
</event>
<event>
 8    1  0.5900800E-006  0.1486783E+03  0.7561462E-02  0.1202107E+00
         -2   -1    0    0    0  501 -0.00000000000E+00  0.00000000000E+00  0.13214778262E+03  0.13214778262E+03  0.00000000000E+00 0.  1.
          2   -1    0    0  501    0  0.00000000000E+00 -0.00000000000E+00 -0.20216723307E+03  0.20216723307E+03  0.00000000000E+00 0. -1.
         23    2    1    2    0    0 -0.52200715177E+02  0.10859193257E+03 -0.24444992594E+02  0.15475298876E+03  0.93988336422E+02 0.  0.
         23    2    1    2    0    0  0.52200715177E+02 -0.10859193257E+03 -0.45574457856E+02  0.17956202693E+03  0.12509343637E+03 0.  0.
          5    1    4    4  502    0 -0.19692078456E+02 -0.41509349139E+02  0.30384504918E+02  0.55240334530E+02  0.41800000000E+01 0. -1.
         -5    1    4    4    0  502  0.71892793634E+02 -0.67082583427E+02 -0.75958962774E+02  0.12432169240E+03  0.41800000000E+01 0. -1.
        -11    1    3    3    0    0 -0.77552591521E+02  0.98861406232E+02 -0.19633973371E+02  0.12717497790E+03  0.00000000000E+00 0. -1.
         11    1    3    3    0    0  0.25351876344E+02  0.97305263334E+01 -0.48110192234E+01  0.27578010857E+02  0.00000000000E+00 0.  1.
</event>
<event>
 8    1  0.5900800E-006  0.1091258E+03  0.7561462E-02  0.1262197E+00
          2   -1    0    0  501    0  0.00000000000E+00  0.00000000000E+00  0.53071961030E+03  0.53071961030E+03  0.00000000000E+00 0. -1.
         -2   -1    0    0    0  501 -0.00000000000E+00 -0.00000000000E+00 -0.34119640719E+02  0.34119640719E+02  0.00000000000E+00 0.  1.
         23    2    1    2    0    0  0.38226908503E+01  0.73347422619E+02  0.15713685641E+03  0.19568099843E+03  0.90579269887E+02 0.  0.
         23    2    1    2    0    0 -0.38226908503E+01 -0.73347422619E+02  0.33946311317E+03  0.36915825259E+03  0.12509257725E+03 0.  0.
          5    1    4    4  502    0 -0.46706785581E+02  0.52041430865E+01  0.18174692154E+03  0.18777119804E+03  0.41800000000E+01 0.  1.
         -5    1    4    4    0  502  0.42884094731E+02 -0.78551565706E+02  0.15771619163E+03  0.18138705455E+03  0.41800000000E+01 0.  1.
        -11    1    3    3    0    0 -0.15625360403E+02  0.38870210078E+02  0.14963945285E+03  0.15539308533E+03  0.00000000000E+00 0. -1.
         11    1    3    3    0    0  0.19448051254E+02  0.34477212541E+02  0.74974035691E+01  0.40287913106E+02  0.00000000000E+00 0.  1.
</event>
<event>
 8    1  0.5900800E-006  0.1207453E+03  0.7561462E-02  0.1241873E+00
         -3   -1    0    0    0  501 -0.00000000000E+00  0.00000000000E+00  0.26519234492E+03  0.26519234492E+03  0.00000000000E+00 0. -1.
          3   -1    0    0  501    0  0.00000000000E+00 -0.00000000000E+00 -0.83140207314E+02  0.83140207314E+02  0.00000000000E+00 0.  1.
         23    2    1    2    0    0  0.75837488391E+02 -0.58877466580E+02  0.11751553596E+03  0.17794904202E+03  0.92941269885E+02 0.  0.
         23    2    1    2    0    0 -0.75837488391E+02  0.58877466580E+02  0.64536601642E+02  0.17038351021E+03  0.12509071462E+03 0.  0.
          5    1    4    4  502    0 -0.20747346297E+02 -0.85410163096E+01 -0.32649519601E+02  0.39835472486E+02  0.41800000000E+01 0.  1.
         -5    1    4    4    0  502 -0.55090142094E+02  0.67418482890E+02  0.97186121244E+02  0.13054803772E+03  0.41800000000E+01 0.  1.
        -11    1    3    3    0    0  0.96503766519E+02 -0.52583508459E+02  0.85110001388E+02  0.13900257066E+03  0.00000000000E+00 0.  1.
         11    1    3    3    0    0 -0.20666278128E+02 -0.62939581217E+01  0.32405534570E+02  0.38946471359E+02  0.00000000000E+00 0. -1.
</event>
<event>
 8    1  0.5900800E-006  0.1387752E+03  0.7561462E-02  0.1214987E+00
         -2   -1    0    0    0  501 -0.00000000000E+00  0.00000000000E+00  0.10410911851E+03  0.10410911851E+03  0.00000000000E+00 0.  1.
          2   -1    0    0  501    0  0.00000000000E+00 -0.00000000000E+00 -0.32175403962E+03  0.32175403962E+03  0.00000000000E+00 0. -1.
         23    2    1    2    0    0 -0.12460704992E+03  0.34817372160E+02 -0.20972986111E+02  0.15928115766E+03  0.90506655798E+02 0.  0.
         23    2    1    2    0    0  0.12460704992E+03 -0.34817372160E+02 -0.19667193500E+03  0.26658200047E+03  0.12508775584E+03 0.  0.
          5    1    4    4  502    0  0.10191931140E+03 -0.10534115134E+02 -0.20743680567E+03  0.23140011747E+03  0.41800000000E+01 0. -1.
         -5    1    4    4    0  502  0.22687738525E+02 -0.24283257026E+02  0.10764870666E+02  0.35181883003E+02  0.41800000000E+01 0. -1.
        -11    1    3    3    0    0 -0.91506447366E+02 -0.26101628601E+01 -0.47043461717E+02  0.10292390466E+03  0.00000000000E+00 0. -1.
         11    1    3    3    0    0 -0.33100602557E+02  0.37427535020E+02  0.26070475606E+02  0.56357252999E+02  0.00000000000E+00 0.  1.
</event>
<event>
 8    1  0.5900800E-006  0.1074539E+03  0.7561462E-02  0.1265359E+00
          2   -1    0    0  501    0  0.00000000000E+00  0.00000000000E+00  0.64526539688E+03  0.64526539688E+03  0.00000000000E+00 0. -1.
         -2   -1    0    0    0  501 -0.00000000000E+00 -0.00000000000E+00 -0.24481601423E+02  0.24481601423E+02  0.00000000000E+00 0.  1.
         23    2    1    2    0    0  0.52651209543E+02  0.21227096768E+02  0.19908934614E+03  0.22624154302E+03  0.91246526186E+02 0.  0.
         23    2    1    2    0    0 -0.52651209543E+02 -0.21227096768E+02  0.42169444932E+03  0.44350545528E+03  0.12509252884E+03 0.  0.
          5    1    4    4  502    0 -0.86597672893E+02 -0.28958580768E+02  0.36941020002E+03  0.38055108019E+03  0.41800000000E+01 0.  1.
         -5    1    4    4    0  502  0.33946463350E+02  0.77314839999E+01  0.52284249298E+02  0.62954375094E+02  0.41800000000E+01 0.  1.
        -11    1    3    3    0    0  0.11692046552E+02  0.41227630659E+02  0.33215692068E+02  0.54219034313E+02  0.00000000000E+00 0.  1.
         11    1    3    3    0    0  0.40959162992E+02 -0.20000533891E+02  0.16587365407E+03  0.17202250871E+03  0.00000000000E+00 0. -1.
</event>
<event>
 8    1  0.5900800E-006  0.1002716E+03  0.7561462E-02  0.1279726E+00
          1   -1    0    0  501    0  0.00000000000E+00  0.00000000000E+00  0.48712528327E+03  0.48712528327E+03  0.00000000000E+00 0. -1.
         -1   -1    0    0    0  501 -0.00000000000E+00 -0.00000000000E+00 -0.33318481603E+02  0.33318481603E+02  0.00000000000E+00 0.  1.
         23    2    1    2    0    0  0.42885379578E+02  0.38608046782E+02  0.14787017429E+03  0.18492224288E+03  0.94873127955E+02 0.  0.
         23    2    1    2    0    0 -0.42885379578E+02 -0.38608046782E+02  0.30593662738E+03  0.33552152200E+03  0.12509090572E+03 0.  0.
          5    1    4    4  502    0  0.22945843968E+02  0.32494684248E+02  0.10618053999E+03  0.11346451310E+03  0.41800000000E+01 0. -1.
         -5    1    4    4    0  502 -0.65831223546E+02 -0.71102731029E+02  0.19975608739E+03  0.22205700890E+03  0.41800000000E+01 0. -1.
        -11    1    3    3    0    0  0.29652978278E+02  0.87817359936E+01 -0.25242091775E+01  0.31028851732E+02  0.00000000000E+00 0.  1.
         11    1    3    3    0    0  0.13232401300E+02  0.29826310788E+02  0.15039438347E+03  0.15389339114E+03  0.00000000000E+00 0. -1.
</event>
<event>
 8    1  0.5900800E-006  0.1322702E+03  0.7561462E-02  0.1224125E+00
          1   -1    0    0  501    0  0.00000000000E+00  0.00000000000E+00  0.53909394583E+03  0.53909394583E+03  0.00000000000E+00 0. -1.
         -1   -1    0    0    0  501 -0.00000000000E+00 -0.00000000000E+00 -0.56285299594E+02  0.56285299594E+02  0.00000000000E+00 0.  1.
         23    2    1    2    0    0  0.93670621494E+02  0.26014982335E+01  0.60764524272E+02  0.14531803850E+03  0.92973392850E+02 0.  0.
         23    2    1    2    0    0 -0.93670621494E+02 -0.26014982335E+01  0.42204412196E+03  0.45006120693E+03  0.12511153413E+03 0.  0.
          5    1    4    4  502    0  0.48089488609E+01 -0.47458661589E+02  0.13811565810E+03  0.14618090833E+03  0.41800000000E+01 0. -1.
         -5    1    4    4    0  502 -0.98479570355E+02  0.44857163356E+02  0.28392846387E+03  0.30388029860E+03  0.41800000000E+01 0. -1.
        -11    1    3    3    0    0  0.38360452565E+01 -0.16142083927E+02  0.50286168981E+02  0.52952628901E+02  0.00000000000E+00 0. -1.
         11    1    3    3    0    0  0.89834576237E+02  0.18743582161E+02  0.10478355291E+02  0.92365409595E+02  0.00000000000E+00 0.  1.
</event>
<event>
 7    1  0.5900800E-006  0.6871212E+02  0.7561462E-02  0.1364528E+00
          2   -1    0    0  501    0  0.00000000000E+00  0.00000000000E+00  0.85577070332E+03  0.85577070332E+03  0.00000000000E+00 0. -1.
         -2   -1    0    0    0  501 -0.00000000000E+00 -0.00000000000E+00 -0.21850838002E+02  0.21850838002E+02  0.00000000000E+00 0.  1.
         23    2    1    2    0    0 -0.39364858159E+02  0.12939730573E+02  0.19048692120E+03  0.21444106624E+03  0.89345817215E+02 0.  0.
          5    1    1    2  502    0  0.20930144575E+02 -0.24207873507E+02  0.64011180335E+03  0.64092486711E+03  0.41800000000E+01 0. -1.
         -5    1    1    2    0  502  0.18434713584E+02  0.11268142934E+02  0.33211407557E+01  0.22255607968E+02  0.41800000000E+01 0.  1.
        -11    1    3    3    0    0 -0.10917461584E+02  0.41453413456E+02  0.15480780414E+03  0.16063322408E+03  0.00000000000E+00 0.  1.
         11    1    3    3    0    0 -0.28447396576E+02 -0.28513682883E+02  0.35679117064E+02  0.53807842161E+02  0.00000000000E+00 0. -1.
</event>
<event>
 8    1  0.5900800E-006  0.1163762E+03  0.7561462E-02  0.1249198E+00
         -2   -1    0    0    0  501 -0.00000000000E+00  0.00000000000E+00  0.11104935340E+03  0.11104935340E+03  0.00000000000E+00 0. -1.
          2   -1    0    0  501    0  0.00000000000E+00 -0.00000000000E+00 -0.21789612775E+03  0.21789612775E+03  0.00000000000E+00 0.  1.
         23    2    1    2    0    0 -0.39382255030E+02  0.10164258004E+03 -0.44445814170E+02  0.15167158392E+03  0.95638187375E+02 0.  0.
         23    2    1    2    0    0  0.39382255030E+02 -0.10164258004E+03 -0.62400960188E+02  0.17727389723E+03  0.12509987497E+03 0.  0.
          5    1    4    4  502    0  0.31892731535E+02 -0.10768510240E+03  0.16208711856E+01  0.11239807484E+03  0.41800000000E+01 0.  1.
         -5    1    4    4    0  502  0.74895234941E+01  0.60425223629E+01 -0.64021831373E+02  0.64875822392E+02  0.41800000000E+01 0.  1.
        -11    1    3    3    0    0 -0.52277594393E+01  0.30653972436E+02  0.30053726610E+02  0.43246063150E+02  0.00000000000E+00 0. -1.
         11    1    3    3    0    0 -0.34154495590E+02  0.70988607600E+02 -0.74499540780E+02  0.10842552077E+03  0.00000000000E+00 0.  1.
</event>
<event>
 8    1  0.5900800E-006  0.1269638E+03  0.7561462E-02  0.1232032E+00
          2   -1    0    0  501    0  0.00000000000E+00  0.00000000000E+00  0.10951641614E+04  0.10951641614E+04  0.00000000000E+00 0.  1.
         -2   -1    0    0    0  501 -0.00000000000E+00 -0.00000000000E+00 -0.27869088267E+02  0.27869088267E+02  0.00000000000E+00 0. -1.
         23    2    1    2    0    0  0.25061341348E+02  0.78525611211E+02  0.15260562751E+03  0.19615667882E+03  0.91622173361E+02 0.  0.
         23    2    1    2    0    0 -0.25061341348E+02 -0.78525611211E+02  0.91468944565E+03  0.92687657088E+03  0.12509617584E+03 0.  0.
          5    1    4    4  502    0 -0.32882107548E+02  0.15641530350E+02  0.96291407625E+02  0.10303105382E+03  0.41800000000E+01 0.  1.
         -5    1    4    4    0  502  0.78207662000E+01 -0.94167141561E+02  0.81839803802E+03  0.82384551706E+03  0.41800000000E+01 0.  1.
        -11    1    3    3    0    0 -0.34535605186E+02  0.25635587948E+02  0.62549606757E+02  0.75910109343E+02  0.00000000000E+00 0.  1.
         11    1    3    3    0    0  0.59596946534E+02  0.52890023263E+02  0.90056020758E+02  0.12024656948E+03  0.00000000000E+00 0. -1.
</event>
<event>
 8    1  0.5900800E-006  0.1419342E+03  0.7561462E-02  0.1210750E+00
          2   -1    0    0  501    0  0.00000000000E+00  0.00000000000E+00  0.14254813837E+04  0.14254813837E+04  0.00000000000E+00 0. -1.
         -2   -1    0    0    0  501 -0.00000000000E+00 -0.00000000000E+00 -0.21708837467E+02  0.21708837467E+02  0.00000000000E+00 0.  1.
         23    2    1    2    0    0  0.29965421567E+02 -0.12471327729E+03  0.47015127498E+03  0.49653593364E+03  0.95154527025E+02 0.  0.
         23    2    1    2    0    0 -0.29965421567E+02  0.12471327729E+03  0.93362127130E+03  0.95065428756E+03  0.12507425085E+03 0.  0.
          5    1    4    4  502    0  0.27117689401E+01  0.88423603112E+02  0.84290023544E+03  0.84754018582E+03  0.41800000000E+01 0. -1.
         -5    1    4    4    0  502 -0.32677190507E+02  0.36289674178E+02  0.90721035859E+02  0.10311410174E+03  0.41800000000E+01 0. -1.
        -11    1    3    3    0    0 -0.22614388464E+02 -0.50582138888E+02  0.28434382328E+03  0.28969185902E+03  0.00000000000E+00 0.  1.
         11    1    3    3    0    0  0.52579810030E+02 -0.74131138402E+02  0.18580745169E+03  0.20684407463E+03  0.00000000000E+00 0. -1.
</event>
<event>
 8    1  0.5900800E-006  0.6807693E+02  0.7561462E-02  0.1366757E+00
         -2   -1    0    0    0  501 -0.00000000000E+00  0.00000000000E+00  0.93946930631E+02  0.93946930631E+02  0.00000000000E+00 0.  1.
          2   -1    0    0  501    0  0.00000000000E+00 -0.00000000000E+00 -0.13405726068E+03  0.13405726068E+03  0.00000000000E+00 0. -1.
         23    2    1    2    0    0 -0.70316898198E+01 -0.24611848137E+02  0.72120851560E+00  0.93955853272E+02  0.90399084575E+02 0.  0.
         23    2    1    2    0    0  0.70316898198E+01  0.24611848137E+02 -0.40831538566E+02  0.13404833804E+03  0.12508618892E+03 0.  0.
          5    1    4    4  502    0 -0.37767781339E+02  0.13032422894E+02  0.29441983959E+02  0.49805142035E+02  0.41800000000E+01 0.  1.
         -5    1    4    4    0  502  0.44799471158E+02  0.11579425243E+02 -0.70273522524E+02  0.84243196004E+02  0.41800000000E+01 0.  1.
        -11    1    3    3    0    0 -0.22250324878E+02 -0.21000110816E+01  0.40220222986E+02  0.46012534605E+02  0.00000000000E+00 0.  1.
         11    1    3    3    0    0  0.15218635058E+02 -0.22511837055E+02 -0.39499014471E+02  0.47943318667E+02  0.00000000000E+00 0. -1.
</event>
<event>
 8    1  0.5900800E-006  0.1512399E+03  0.7561462E-02  0.1198958E+00
         -1   -1    0    0    0  501 -0.00000000000E+00  0.00000000000E+00  0.51645190851E+02  0.51645190851E+02  0.00000000000E+00 0.  1.
          1   -1    0    0  501    0  0.00000000000E+00 -0.00000000000E+00 -0.66281433594E+03  0.66281433594E+03  0.00000000000E+00 0. -1.
         23    2    1    2    0    0  0.15241503172E+02 -0.13429271151E+03 -0.17206857220E+03  0.23830114169E+03  0.94408711498E+02 0.  0.
         23    2    1    2    0    0 -0.15241503172E+02  0.13429271151E+03 -0.43910057289E+03  0.47615838511E+03  0.12510259312E+03 0.  0.
          5    1    4    4  502    0 -0.15552937096E+02  0.23948610721E+02 -0.63614857256E+01  0.29552846029E+02  0.41800000000E+01 0. -1.
         -5    1    4    4    0  502  0.31143392417E+00  0.11034410079E+03 -0.43273908717E+03  0.44660553908E+03  0.41800000000E+01 0. -1.
        -11    1    3    3    0    0  0.23507870466E+02  0.46871444005E+01 -0.14411434955E+02  0.27969246574E+02  0.00000000000E+00 0. -1.
         11    1    3    3    0    0 -0.82663672946E+01 -0.13897985591E+03 -0.15765713724E+03  0.21033189511E+03  0.00000000000E+00 0.  1.
</event>
<event>
 8    1  0.5900800E-006  0.1209265E+03  0.7561462E-02  0.1241576E+00
          1   -1    0    0  501    0  0.00000000000E+00  0.00000000000E+00  0.66408447550E+03  0.66408447550E+03  0.00000000000E+00 0. -1.
         -1   -1    0    0    0  501 -0.00000000000E+00 -0.00000000000E+00 -0.25753766537E+02  0.25753766537E+02  0.00000000000E+00 0.  1.
         23    2    1    2    0    0 -0.51318662481E+02 -0.37393160942E+02  0.17532026919E+03  0.20821618356E+03  0.92654890328E+02 0.  0.
         23    2    1    2    0    0  0.51318662481E+02  0.37393160942E+02  0.46301043977E+03  0.48162205847E+03  0.11640140150E+03 0.  0.
          5    1    4    4  502    0  0.45116721895E+02  0.78362068216E+02  0.29855830066E+03  0.31197862686E+03  0.41800000000E+01 0. -1.
         -5    1    4    4    0  502  0.62019405864E+01 -0.40968907274E+02  0.16445213911E+03  0.16964343161E+03  0.41800000000E+01 0.  1.
        -11    1    3    3    0    0  0.25880031782E+02 -0.80818213451E+01  0.64888577348E+02  0.70325097593E+02  0.00000000000E+00 0.  1.
         11    1    3    3    0    0 -0.77198694263E+02 -0.29311339597E+02  0.11043169184E+03  0.13789108596E+03  0.00000000000E+00 0. -1.
</event>
<event>
 8    1  0.5900800E-006  0.9227675E+02  0.7561462E-02  0.1297430E+00
         -1   -1    0    0    0  501 -0.00000000000E+00  0.00000000000E+00  0.27692634463E+02  0.27692634463E+02  0.00000000000E+00 0.  1.
          1   -1    0    0  501    0  0.00000000000E+00 -0.00000000000E+00 -0.46022944051E+03  0.46022944051E+03  0.00000000000E+00 0. -1.
         23    2    1    2    0    0  0.20907609633E+02 -0.63919459820E+01 -0.16129218613E+03  0.18842501012E+03  0.94925391848E+02 0.  0.
         23    2    1    2    0    0 -0.20907609633E+02  0.63919459820E+01 -0.27124461991E+03  0.29949706485E+03  0.12508742107E+03 0.  0.
          5    1    4    4  502    0  0.32385382979E+02 -0.20804093706E+02 -0.25080361913E+02  0.46131554270E+02  0.41800000000E+01 0.  1.
         -5    1    4    4    0  502 -0.53292992612E+02  0.27196039688E+02 -0.24616425800E+03  0.25336551058E+03  0.41800000000E+01 0.  1.
        -11    1    3    3    0    0 -0.62138531468E+01  0.35452652809E+02 -0.26474945705E+02  0.44681375451E+02  0.00000000000E+00 0.  1.
         11    1    3    3    0    0  0.27121462779E+02 -0.41844598791E+02 -0.13481724043E+03  0.14374363467E+03  0.00000000000E+00 0. -1.
</event>
<event>
 8    1  0.5900800E-006  0.1969056E+03  0.7561462E-02  0.1152376E+00
          2   -1    0    0  501    0  0.00000000000E+00  0.00000000000E+00  0.15634411372E+04  0.15634411372E+04  0.00000000000E+00 0. -1.
         -2   -1    0    0    0  501 -0.00000000000E+00 -0.00000000000E+00 -0.27752205919E+02  0.27752205919E+02  0.00000000000E+00 0.  1.
         23    2    1    2    0    0 -0.11099212235E+03 -0.13512901584E+03  0.60527097304E+03  0.63625655496E+03  0.88827646475E+02 0.  0.
         23    2    1    2    0    0  0.11099212235E+03  0.13512901584E+03  0.93041795827E+03  0.95493678819E+03  0.12509032823E+03 0.  0.
          5    1    4    4  502    0 -0.85659799360E+01  0.49953830831E+02  0.44207374799E+03  0.44498924963E+03  0.41800000000E+01 0. -1.
         -5    1    4    4    0  502  0.11955810228E+03  0.85175185013E+02  0.48834421028E+03  0.50994753856E+03  0.41800000000E+01 0. -1.
        -11    1    3    3    0    0 -0.46034104470E+02  0.15014399953E+00  0.13702566753E+03  0.14455170313E+03  0.00000000000E+00 0.  1.
         11    1    3    3    0    0 -0.64958017879E+02 -0.13527915984E+03  0.46824530551E+03  0.49170485182E+03  0.00000000000E+00 0. -1.
</event>
<event>
 8    1  0.5900800E-006  0.1105329E+03  0.7561462E-02  0.1259586E+00
         -3   -1    0    0    0  501 -0.00000000000E+00  0.00000000000E+00  0.26493875526E+03  0.26493875526E+03  0.00000000000E+00 0.  1.
          3   -1    0    0  501    0  0.00000000000E+00 -0.00000000000E+00 -0.60511716011E+02  0.60511716011E+02  0.00000000000E+00 0. -1.
         23    2    1    2    0    0 -0.55766784932E+02 -0.24329249448E+02  0.13647257634E+03  0.17066683494E+03  0.82465494448E+02 0.  0.
         23    2    1    2    0    0  0.55766784932E+02  0.24329249448E+02  0.67954462910E+02  0.15478363633E+03  0.12505326212E+03 0.  0.
          5    1    4    4  502    0 -0.19976048526E+02  0.37087454024E+02 -0.11832073762E+02  0.43954432429E+02  0.41800000000E+01 0. -1.
         -5    1    4    4    0  502  0.75742833457E+02 -0.12758204575E+02  0.79786536672E+02  0.11082920391E+03  0.41800000000E+01 0. -1.
        -11    1    3    3    0    0 -0.22518697281E+02 -0.53204521459E+02  0.86983536313E+02  0.10442197288E+03  0.00000000000E+00 0. -1.
         11    1    3    3    0    0 -0.33248087650E+02  0.28875272011E+02  0.49489040026E+02  0.66244862056E+02  0.00000000000E+00 0.  1.
</event>
<event>
 8    1  0.5900800E-006  0.1750592E+03  0.7561462E-02  0.1172672E+00
          1   -1    0    0  501    0  0.00000000000E+00  0.00000000000E+00  0.35693104820E+03  0.35693104820E+03  0.00000000000E+00 0. -1.
         -1   -1    0    0    0  501 -0.00000000000E+00 -0.00000000000E+00 -0.14023783676E+03  0.14023783676E+03  0.00000000000E+00 0.  1.
         23    2    1    2    0    0 -0.95895880614E+02 -0.14359387205E+03  0.27880782291E+01  0.19514179438E+03  0.90869832862E+02 0.  0.
         23    2    1    2    0    0  0.95895880614E+02  0.14359387205E+03  0.21390513321E+03  0.30202709058E+03  0.12509891055E+03 0.  0.
          5    1    4    4  502    0 -0.25444423986E+01  0.12136796073E+02 -0.15232699506E+02  0.20081920732E+02  0.41800000000E+01 0. -1.
         -5    1    4    4    0  502  0.98440323012E+02  0.13145707598E+03  0.22913783272E+03  0.28194516985E+03  0.41800000000E+01 0. -1.
        -11    1    3    3    0    0 -0.72658756757E+02 -0.10467875585E+03 -0.39240574904E+02  0.13332951503E+03  0.00000000000E+00 0.  1.
         11    1    3    3    0    0 -0.23237123857E+02 -0.38915116204E+02  0.42028653133E+02  0.61812279351E+02  0.00000000000E+00 0. -1.
</event>
<event>
 8    1  0.6230759E-006  0.1041019E+03  0.7561462E-02  0.1271899E+00
         -2   -1    0    0    0  501 -0.00000000000E+00  0.00000000000E+00  0.13585395659E+02  0.13585395659E+02  0.00000000000E+00 0.  1.
          2   -1    0    0  501    0  0.00000000000E+00 -0.00000000000E+00 -0.89543753881E+03  0.89543753881E+03  0.00000000000E+00 0. -1.
         23    2    1    2    0    0 -0.59343712262E+01 -0.29080942920E+02 -0.31134907317E+03  0.32421347961E+03  0.85412042451E+02 0.  0.
         23    2    1    2    0    0  0.59343712262E+01  0.29080942920E+02 -0.57050306998E+03  0.58480945486E+03  0.12508967835E+03 0.  0.
          5    1    4    4  502    0  0.49004043259E+02 -0.25115838293E+02 -0.18306339594E+03  0.19121161294E+03  0.41800000000E+01 0.  1.
         -5    1    4    4    0  502 -0.43069672033E+02  0.54196781212E+02 -0.38743967404E+03  0.39359784192E+03  0.41800000000E+01 0.  1.
        -11    1    3    3    0    0 -0.18839000124E+02  0.23138141642E+02 -0.58087090963E+02  0.65302309767E+02  0.00000000000E+00 0.  1.
         11    1    3    3    0    0  0.12904628898E+02 -0.52219084562E+02 -0.25326198221E+03  0.25891116985E+03  0.00000000000E+00 0. -1.
</event>
<event>
 8    1  0.5900800E-006  0.7231724E+02  0.7561462E-02  0.1352386E+00
         -2   -1    0    0    0  501 -0.00000000000E+00  0.00000000000E+00  0.33984548045E+02  0.33984548045E+02  0.00000000000E+00 0.  1.
          2   -1    0    0  501    0  0.00000000000E+00 -0.00000000000E+00 -0.46692538757E+03  0.46692538757E+03  0.00000000000E+00 0. -1.
         23    2    1    2    0    0 -0.55331791026E+00 -0.31075858698E+02 -0.10931382177E+03  0.15256135314E+03  0.10178133271E+03 0.  0.
         23    2    1    2    0    0  0.55331791026E+00  0.31075858698E+02 -0.32362701776E+03  0.34834858248E+03  0.12508506360E+03 0.  0.
          5    1    4    4  502    0  0.24134310441E+02  0.28425471855E+02 -0.32202160999E+03  0.32420034252E+03  0.41800000000E+01 0.  1.
         -5    1    4    4    0  502 -0.23580992531E+02  0.26503868432E+01 -0.16054077750E+01  0.24148239963E+02  0.41800000000E+01 0.  1.
        -11    1    3    3    0    0  0.34678166128E+02 -0.32814498663E+02 -0.12253755077E+02  0.49290171860E+02  0.00000000000E+00 0.  1.
         11    1    3    3    0    0 -0.35231484038E+02  0.17386399644E+01 -0.97060066691E+02  0.10327118128E+03  0.00000000000E+00 0. -1.
</event>
<event>
 8    1  0.5900800E-006  0.2235223E+03  0.7561462E-02  0.1131284E+00
         -1   -1    0    0    0  501 -0.00000000000E+00  0.00000000000E+00  0.10480710303E+03  0.10480710303E+03  0.00000000000E+00 0.  1.
          1   -1    0    0  501    0  0.00000000000E+00 -0.00000000000E+00 -0.55577832248E+03  0.55577832248E+03  0.00000000000E+00 0. -1.
         23    2    1    2    0    0 -0.19920103381E+03 -0.16632607308E+02 -0.10775465093E+03  0.24417365575E+03  0.89733014362E+02 0.  0.
         23    2    1    2    0    0  0.19920103381E+03  0.16632607308E+02 -0.34321656851E+03  0.41641176976E+03  0.12507379261E+03 0.  0.
          5    1    4    4  502    0  0.94156719127E+02 -0.51573824216E+02 -0.12550250615E+03  0.16520804626E+03  0.41800000000E+01 0. -1.
         -5    1    4    4    0  502  0.10504431468E+03  0.68206431524E+02 -0.21771406237E+03  0.25120372350E+03  0.41800000000E+01 0. -1.
        -11    1    3    3    0    0 -0.16289781619E+03 -0.44107819198E+02 -0.10456876571E+03  0.19853419100E+03  0.00000000000E+00 0.  1.
         11    1    3    3    0    0 -0.36303217617E+02  0.27475211890E+02 -0.31858852276E+01  0.45639464747E+02  0.00000000000E+00 0. -1.
</event>
<event>
 8    1  0.5900800E-006  0.1234196E+03  0.7561462E-02  0.1237560E+00
          2   -1    0    0  501    0  0.00000000000E+00  0.00000000000E+00  0.38741358357E+03  0.38741358357E+03  0.00000000000E+00 0. -1.
         -2   -1    0    0    0  501 -0.00000000000E+00 -0.00000000000E+00 -0.78024308992E+02  0.78024308992E+02  0.00000000000E+00 0.  1.
         23    2    1    2    0    0  0.48085732549E+02  0.56326913802E+02 -0.59845723446E+01  0.11817152226E+03  0.91889796353E+02 0.  0.
         23    2    1    2    0    0 -0.48085732549E+02 -0.56326913802E+02  0.31537384692E+03  0.34726637030E+03  0.12509320416E+03 0.  0.
          5    1    4    4  502    0 -0.41610244085E+02 -0.94261221666E+02  0.26000396229E+03  0.27970720964E+03  0.41800000000E+01 0.  1.
         -5    1    4    4    0  502 -0.64754884640E+01  0.37934307864E+02  0.55369884635E+02  0.67559160656E+02  0.41800000000E+01 0.  1.
        -11    1    3    3    0    0  0.57986145409E+02  0.11518565841E+02  0.23508864433E+02  0.63621829001E+02  0.00000000000E+00 0. -1.
         11    1    3    3    0    0 -0.99004128601E+01  0.44808347961E+02 -0.29493436777E+02  0.54549693259E+02  0.00000000000E+00 0.  1.
</event>
<event>
 8    1  0.5900800E-006  0.1853154E+03  0.7561462E-02  0.1162756E+00
         -1   -1    0    0    0  501 -0.00000000000E+00  0.00000000000E+00  0.13339434747E+03  0.13339434747E+03  0.00000000000E+00 0.  1.
          1   -1    0    0  501    0  0.00000000000E+00 -0.00000000000E+00 -0.35566899116E+03  0.35566899116E+03  0.00000000000E+00 0. -1.
         23    2    1    2    0    0 -0.11410230359E+03 -0.12940983027E+03 -0.22933509493E+02  0.19725793131E+03  0.92835907659E+02 0.  0.
         23    2    1    2    0    0  0.11410230359E+03  0.12940983027E+03 -0.19934113419E+03  0.29180540733E+03  0.12508904073E+03 0.  0.
          5    1    4    4  502    0  0.60640706255E+02  0.10781372441E+03 -0.53334724598E+02  0.13477076714E+03  0.41800000000E+01 0. -1.
         -5    1    4    4    0  502  0.53461597334E+02  0.21596105855E+02 -0.14600640960E+03  0.15703464019E+03  0.41800000000E+01 0. -1.
        -11    1    3    3    0    0 -0.11312135993E+03 -0.77475615173E+02 -0.39587810664E+02  0.14270987272E+03  0.00000000000E+00 0. -1.
         11    1    3    3    0    0 -0.98094366058E+00 -0.51934215096E+02  0.16654301170E+02  0.54548058587E+02  0.00000000000E+00 0.  1.
</event>
<event>
 8    1  0.5900800E-006  0.1113041E+03  0.7561462E-02  0.1258174E+00
          1   -1    0    0  501    0  0.00000000000E+00  0.00000000000E+00  0.25170319502E+03  0.25170319502E+03  0.00000000000E+00 0. -1.
         -1   -1    0    0    0  501 -0.00000000000E+00 -0.00000000000E+00 -0.81888453835E+02  0.81888453835E+02  0.00000000000E+00 0.  1.
         23    2    1    2    0    0  0.62626719810E+02  0.46690861195E+02  0.15220666092E+02  0.11993477576E+03  0.89724797059E+02 0.  0.
         23    2    1    2    0    0 -0.62626719810E+02 -0.46690861195E+02  0.15459407510E+03  0.21365687310E+03  0.12509112204E+03 0.  0.
          5    1    4    4  502    0 -0.61056159018E+02 -0.84151182354E+02  0.13698986994E+03  0.17202608207E+03  0.41800000000E+01 0. -1.
         -5    1    4    4    0  502 -0.15705607915E+01  0.37460321159E+02  0.17604205156E+02  0.41630791029E+02  0.41800000000E+01 0. -1.
        -11    1    3    3    0    0  0.38784282915E+02  0.40756784381E+02 -0.33421473079E+02  0.65439521217E+02  0.00000000000E+00 0.  1.
         11    1    3    3    0    0  0.23842436895E+02  0.59340768138E+01  0.48642139171E+02  0.54495254544E+02  0.00000000000E+00 0. -1.
</event>
<event>
 8    1  0.5900800E-006  0.1418384E+03  0.7561462E-02  0.1210876E+00
          1   -1    0    0  501    0  0.00000000000E+00  0.00000000000E+00  0.90979106190E+03  0.90979106190E+03  0.00000000000E+00 0. -1.
         -1   -1    0    0    0  501 -0.00000000000E+00 -0.00000000000E+00 -0.33159854778E+02  0.33159854778E+02  0.00000000000E+00 0.  1.
         23    2    1    2    0    0 -0.11781175641E+03  0.44119625663E+02  0.27641442497E+03  0.31706346933E+03  0.91094225600E+02 0.  0.
         23    2    1    2    0    0  0.11781175641E+03 -0.44119625663E+02  0.60021678215E+03  0.62588744734E+03  0.12509500328E+03 0.  0.
          5    1    4    4  502    0  0.84584754768E+02 -0.11401771570E+02  0.14527842081E+03  0.16854635294E+03  0.41800000000E+01 0. -1.
         -5    1    4    4    0  502  0.33227001647E+02 -0.32717854093E+02  0.45493836134E+03  0.45734109440E+03  0.41800000000E+01 0. -1.
        -11    1    3    3    0    0 -0.91728656727E+02 -0.90596705286E+01  0.20134114486E+03  0.22143730650E+03  0.00000000000E+00 0.  1.
         11    1    3    3    0    0 -0.26083099687E+02  0.53179296191E+02  0.75073280105E+02  0.95626162834E+02  0.00000000000E+00 0. -1.
</event>
<event>
 8    1  0.5900800E-006  0.1312644E+03  0.7561462E-02  0.1225592E+00
         -1   -1    0    0    0  501 -0.00000000000E+00  0.00000000000E+00  0.74664436237E+02  0.74664436237E+02  0.00000000000E+00 0.  1.
          1   -1    0    0  501    0  0.00000000000E+00 -0.00000000000E+00 -0.25866090896E+03  0.25866090896E+03  0.00000000000E+00 0. -1.
         23    2    1    2    0    0 -0.86061815041E+02 -0.11221204151E+02 -0.77114970451E+02  0.14730498365E+03  0.90661392601E+02 0.  0.
         23    2    1    2    0    0  0.86061815041E+02  0.11221204151E+02 -0.10688150227E+03  0.18602036156E+03  0.12508943982E+03 0.  0.
          5    1    4    4  502    0  0.47323548582E+02  0.66976170850E+02 -0.42936917102E+02  0.92662705348E+02  0.41800000000E+01 0.  1.
         -5    1    4    4    0  502  0.38738266459E+02 -0.55754966699E+02 -0.63944585173E+02  0.93357656209E+02  0.41800000000E+01 0.  1.
        -11    1    3    3    0    0  0.63373588482E+01  0.15052407476E+02 -0.41936079320E+02  0.45004131330E+02  0.00000000000E+00 0. -1.
         11    1    3    3    0    0 -0.92399173889E+02 -0.26273611627E+02 -0.35178891131E+02  0.10230085232E+03  0.00000000000E+00 0.  1.
</event>
<event>
 8    1  0.5900800E-006  0.1075384E+03  0.7561462E-02  0.1265198E+00
         -1   -1    0    0    0  501 -0.00000000000E+00  0.00000000000E+00  0.59563168277E+03  0.59563168277E+03  0.00000000000E+00 0.  1.
          1   -1    0    0  501    0  0.00000000000E+00 -0.00000000000E+00 -0.31239271466E+02  0.31239271466E+02  0.00000000000E+00 0. -1.
         23    2    1    2    0    0  0.71092988943E+02 -0.40642761355E+02  0.27815294081E+03  0.30393487789E+03  0.91111494256E+02 0.  0.
         23    2    1    2    0    0 -0.71092988943E+02  0.40642761355E+02  0.28623947049E+03  0.32293607635E+03  0.12509447555E+03 0.  0.
          5    1    4    4  502    0 -0.74106510710E+02  0.76139857291E+01  0.64311932654E+02  0.98505049566E+02  0.41800000000E+01 0.  1.
         -5    1    4    4    0  502  0.30135217677E+01  0.33028775626E+02  0.22192753784E+03  0.22443102678E+03  0.41800000000E+01 0.  1.
        -11    1    3    3    0    0  0.46536556073E+02 -0.59882217109E+02  0.25219678282E+03  0.26335289678E+03  0.00000000000E+00 0.  1.
         11    1    3    3    0    0  0.24556432870E+02  0.19239455754E+02  0.25956157997E+02  0.40581981112E+02  0.00000000000E+00 0. -1.
</event>
<event>
 8    1  0.5900800E-006  0.7774435E+02  0.7561462E-02  0.1335577E+00
          2   -1    0    0  501    0  0.00000000000E+00  0.00000000000E+00  0.71707670231E+03  0.71707670231E+03  0.00000000000E+00 0. -1.
         -2   -1    0    0    0  501 -0.00000000000E+00 -0.00000000000E+00 -0.19382559813E+02  0.19382559813E+02  0.00000000000E+00 0.  1.
         23    2    1    2    0    0  0.56302501867E+01 -0.46492802643E+02  0.28225145368E+03  0.30007236435E+03  0.90466901818E+02 0.  0.
         23    2    1    2    0    0 -0.56302501867E+01  0.46492802643E+02  0.41544268881E+03  0.43638689777E+03  0.12509043307E+03 0.  0.
          5    1    4    4  502    0  0.17448196133E+02  0.11904118800E+02  0.38267813327E+03  0.38328341168E+03  0.41800000000E+01 0.  1.
         -5    1    4    4    0  502 -0.23078446319E+02  0.34588683843E+02  0.32764555545E+02  0.53103486087E+02  0.41800000000E+01 0.  1.
        -11    1    3    3    0    0 -0.19854239254E+02  0.15468459650E+02  0.30424705577E+02  0.39485779335E+02  0.00000000000E+00 0.  1.
         11    1    3    3    0    0  0.25484489440E+02 -0.61961262293E+02  0.25182674811E+03  0.26058658501E+03  0.00000000000E+00 0. -1.
</event>
<event>
 8    1  0.5900800E-006  0.1312852E+03  0.7561462E-02  0.1225561E+00
          1   -1    0    0  501    0  0.00000000000E+00  0.00000000000E+00  0.12161615886E+04  0.12161615886E+04  0.00000000000E+00 0. -1.
         -1   -1    0    0    0  501 -0.00000000000E+00 -0.00000000000E+00 -0.22721101644E+02  0.22721101644E+02  0.00000000000E+00 0.  1.
         23    2    1    2    0    0 -0.75919759455E+02  0.48020477568E+02  0.23391427399E+03  0.26707482266E+03  0.92429958220E+02 0.  0.
         23    2    1    2    0    0  0.75919759455E+02 -0.48020477568E+02  0.95952621298E+03  0.97180786761E+03  0.12510076741E+03 0.  0.
          5    1    4    4  502    0  0.94225389467E+02 -0.74606655537E+02  0.70095422369E+03  0.71119538327E+03  0.41800000000E+01 0.  1.
         -5    1    4    4    0  502 -0.18305630012E+02  0.26586177969E+02  0.25857198929E+03  0.26061248434E+03  0.41800000000E+01 0.  1.
        -11    1    3    3    0    0  0.11203605157E+02  0.25570607121E+01 -0.18589042008E+01  0.11641084693E+02  0.00000000000E+00 0.  1.
         11    1    3    3    0    0 -0.87123364611E+02  0.45463416856E+02  0.23577317819E+03  0.25543373796E+03  0.00000000000E+00 0. -1.
</event>
<event>
 8    1  0.5900800E-006  0.2655678E+03  0.7561462E-02  0.1103843E+00
          1   -1    0    0  501    0  0.00000000000E+00  0.00000000000E+00  0.94790814645E+03  0.94790814645E+03  0.00000000000E+00 0. -1.
         -1   -1    0    0    0  501 -0.00000000000E+00 -0.00000000000E+00 -0.11073568142E+03  0.11073568142E+03  0.00000000000E+00 0.  1.
         23    2    1    2    0    0 -0.76575801615E+01 -0.26323081451E+03  0.15196429052E+03  0.31400918497E+03  0.78482624898E+02 0.  0.
         23    2    1    2    0    0  0.76575801615E+01  0.26323081451E+03  0.68520817451E+03  0.74463464290E+03  0.12498563418E+03 0.  0.
          5    1    4    4  502    0  0.17321184601E+02  0.99800781798E+02  0.42700574137E+03  0.43887537530E+03  0.41800000000E+01 0.  1.
         -5    1    4    4    0  502 -0.96636044391E+01  0.16343003271E+03  0.25820243314E+03  0.30575926760E+03  0.41800000000E+01 0.  1.
        -11    1    3    3    0    0  0.10968522804E+02 -0.28797934969E+02  0.47636441374E+02  0.56734998879E+02  0.00000000000E+00 0. -1.
         11    1    3    3    0    0 -0.18626102965E+02 -0.23443287954E+03  0.10432784914E+03  0.25727418609E+03  0.00000000000E+00 0.  1.
</event>
<event>
 8    1  0.5900800E-006  0.1747812E+03  0.7561462E-02  0.1172952E+00
          1   -1    0    0  501    0  0.00000000000E+00  0.00000000000E+00  0.95579815291E+03  0.95579815291E+03  0.00000000000E+00 0. -1.
         -1   -1    0    0    0  501 -0.00000000000E+00 -0.00000000000E+00 -0.43309199704E+02  0.43309199704E+02  0.00000000000E+00 0.  1.
         23    2    1    2    0    0 -0.15109186660E+03  0.27325394088E+02  0.25034426902E+03  0.30797892052E+03  0.92754154282E+02 0.  0.
         23    2    1    2    0    0  0.15109186660E+03 -0.27325394088E+02  0.66214468418E+03  0.69112843209E+03  0.12508995783E+03 0.  0.
          5    1    4    4  502    0  0.26171332538E+02  0.30613993680E+02  0.31586711467E+03  0.31845197720E+03  0.41800000000E+01 0. -1.
         -5    1    4    4    0  502  0.12492053406E+03 -0.57939387769E+02  0.34627756951E+03  0.37267645489E+03  0.41800000000E+01 0. -1.
        -11    1    3    3    0    0 -0.52344335861E+02 -0.26681425945E+02  0.45728890798E+02  0.74451053994E+02  0.00000000000E+00 0. -1.
         11    1    3    3    0    0 -0.98747530734E+02  0.54006820033E+02  0.20461537823E+03  0.23352786652E+03  0.00000000000E+00 0.  1.
</event>
<event>
 8    1  0.5900800E-006  0.1126118E+03  0.7561462E-02  0.1255808E+00
         -2   -1    0    0    0  501 -0.00000000000E+00  0.00000000000E+00  0.31441512156E+02  0.31441512156E+02  0.00000000000E+00 0.  1.
          2   -1    0    0  501    0  0.00000000000E+00 -0.00000000000E+00 -0.54459791310E+03  0.54459791310E+03  0.00000000000E+00 0. -1.
         23    2    1    2    0    0  0.76503670447E+01 -0.69152452741E+02 -0.18499637473E+03  0.21802113448E+03  0.92026988326E+02 0.  0.
         23    2    1    2    0    0 -0.76503670447E+01  0.69152452741E+02 -0.32816002621E+03  0.35801829078E+03  0.12508998317E+03 0.  0.
          5    1    4    4  502    0 -0.54302548779E+01 -0.19747105749E+02 -0.20493794728E+03  0.20600114196E+03  0.41800000000E+01 0. -1.
         -5    1    4    4    0  502 -0.22201121668E+01  0.88899558490E+02 -0.12322207894E+03  0.15201714882E+03  0.41800000000E+01 0. -1.
        -11    1    3    3    0    0  0.43347023835E+01 -0.92053741000E+02 -0.14472950886E+03  0.17157887869E+03  0.00000000000E+00 0.  1.
         11    1    3    3    0    0  0.33156646612E+01  0.22901288258E+02 -0.40266865875E+02  0.46442255796E+02  0.00000000000E+00 0. -1.
</event>
<event>
 8    1  0.5900800E-006  0.1990918E+03  0.7561462E-02  0.1150508E+00
          2   -1    0    0  501    0  0.00000000000E+00  0.00000000000E+00  0.15866664344E+04  0.15866664344E+04  0.00000000000E+00 0. -1.
         -2   -1    0    0    0  501 -0.00000000000E+00 -0.00000000000E+00 -0.38908099448E+02  0.38908099448E+02  0.00000000000E+00 0.  1.
         23    2    1    2    0    0 -0.98202027527E+02 -0.14497877963E+03  0.29954221460E+03  0.35894393771E+03  0.91938715141E+02 0.  0.
         23    2    1    2    0    0  0.98202027527E+02  0.14497877963E+03  0.12482161204E+04  0.12666305961E+04  0.12508836553E+03 0.  0.
          5    1    4    4  502    0 -0.27179818757E+02  0.50278766672E+02  0.38084122753E+03  0.38512882249E+03  0.41800000000E+01 0.  1.
         -5    1    4    4    0  502  0.12538184628E+03  0.94700012961E+02  0.86737489283E+03  0.88150177365E+03  0.41800000000E+01 0.  1.
        -11    1    3    3    0    0 -0.39869229539E+02 -0.10674542786E+03  0.24568772801E+03  0.27082577708E+03  0.00000000000E+00 0. -1.
         11    1    3    3    0    0 -0.58332797988E+02 -0.38233351775E+02  0.53854486584E+02  0.88118160639E+02  0.00000000000E+00 0.  1.
</event>
<event>
 8    1  0.5900800E-006  0.7540679E+02  0.7561462E-02  0.1342616E+00
         -2   -1    0    0    0  501 -0.00000000000E+00  0.00000000000E+00  0.15201327936E+03  0.15201327936E+03  0.00000000000E+00 0.  1.
          2   -1    0    0  501    0  0.00000000000E+00 -0.00000000000E+00 -0.86325756946E+02  0.86325756946E+02  0.00000000000E+00 0. -1.
         23    2    1    2    0    0  0.60134140725E+01  0.25080250088E+02  0.58088847846E+02  0.11041419709E+03  0.90287322374E+02 0.  0.
         23    2    1    2    0    0 -0.60134140725E+01 -0.25080250088E+02  0.75986745729E+01  0.12792483922E+03  0.12506736002E+03 0.  0.
          5    1    4    4  502    0  0.21900061482E+02 -0.35892943882E+01 -0.53053526393E+02  0.57659732829E+02  0.41800000000E+01 0. -1.
         -5    1    4    4    0  502 -0.27913475555E+02 -0.21490955700E+02  0.60652200966E+02  0.70265106393E+02  0.41800000000E+01 0. -1.
        -11    1    3    3    0    0  0.41763849107E+02 -0.97031206348E+01  0.18340934270E+02  0.46634316894E+02  0.00000000000E+00 0.  1.
         11    1    3    3    0    0 -0.35750435034E+02  0.34783370723E+02  0.39747913576E+02  0.63779880195E+02  0.00000000000E+00 0. -1.
</event>
<event>
 8    1  0.5900800E-006  0.1007195E+03  0.7561462E-02  0.1278790E+00
         -2   -1    0    0    0  501 -0.00000000000E+00  0.00000000000E+00  0.40030716430E+02  0.40030716430E+02  0.00000000000E+00 0.  1.
          2   -1    0    0  501    0  0.00000000000E+00 -0.00000000000E+00 -0.52307211646E+03  0.52307211646E+03  0.00000000000E+00 0. -1.
         23    2    1    2    0    0  0.10254191747E+02 -0.66118751094E+02 -0.88352214455E+02  0.14369186377E+03  0.91457094963E+02 0.  0.
         23    2    1    2    0    0 -0.10254191747E+02  0.66118751094E+02 -0.39468918557E+03  0.41941096912E+03  0.12509664311E+03 0.  0.
          5    1    4    4  502    0  0.10357457839E+02 -0.31752545069E+02 -0.48477859898E+02  0.59017593576E+02  0.41800000000E+01 0.  1.
         -5    1    4    4    0  502 -0.20611649586E+02  0.97871296163E+02 -0.34621132568E+03  0.36039337555E+03  0.41800000000E+01 0.  1.
        -11    1    3    3    0    0  0.11208483190E+01 -0.39794542431E+02  0.10348634930E+02  0.41133394622E+02  0.00000000000E+00 0.  1.
         11    1    3    3    0    0  0.91333434282E+01 -0.26324208663E+02 -0.98700849386E+02  0.10255846914E+03  0.00000000000E+00 0. -1.
</event>
<event>
 8    1  0.5900800E-006  0.7585582E+02  0.7561462E-02  0.1341241E+00
          1   -1    0    0  501    0  0.00000000000E+00  0.00000000000E+00  0.88591859792E+03  0.88591859792E+03  0.00000000000E+00 0. -1.
         -1   -1    0    0    0  501 -0.00000000000E+00 -0.00000000000E+00 -0.17096358083E+02  0.17096358083E+02  0.00000000000E+00 0.  1.
         23    2    1    2    0    0 -0.22204824903E+02  0.54711799037E+01  0.18509736729E+03  0.20756641157E+03  0.91103192985E+02 0.  0.
         23    2    1    2    0    0  0.22204824903E+02 -0.54711799037E+01  0.68372487254E+03  0.69544854444E+03  0.12508392610E+03 0.  0.
          5    1    4    4  502    0  0.38740648061E+02  0.23169309539E+02  0.63379221795E+03  0.63541144359E+03  0.41800000000E+01 0. -1.
         -5    1    4    4    0  502 -0.16535823158E+02 -0.28640489443E+02  0.49932654594E+02  0.60037100845E+02  0.41800000000E+01 0. -1.
        -11    1    3    3    0    0 -0.47512447019E+02  0.43522651488E+01  0.17306590313E+03  0.17952209240E+03  0.00000000000E+00 0. -1.
         11    1    3    3    0    0  0.25307622116E+02  0.11189147550E+01  0.12031464163E+02  0.28044319162E+02  0.00000000000E+00 0.  1.
</event>
<event>
 8    1  0.5900800E-006  0.1347826E+03  0.7561462E-02  0.1220527E+00
         -2   -1    0    0    0  501 -0.00000000000E+00  0.00000000000E+00  0.33852534672E+03  0.33852534672E+03  0.00000000000E+00 0.  1.
          2   -1    0    0  501    0  0.00000000000E+00 -0.00000000000E+00 -0.71431408480E+02  0.71431408480E+02  0.00000000000E+00 0. -1.
         23    2    1    2    0    0  0.99106986237E+02 -0.41707664750E+02  0.13750327611E+03  0.20019132059E+03  0.98018824108E+02 0.  0.
         23    2    1    2    0    0 -0.99106986237E+02  0.41707664750E+02  0.12959066213E+03  0.20976543461E+03  0.12508426690E+03 0.  0.
          5    1    4    4  502    0 -0.12578914979E+01 -0.19357077573E+02 -0.14916556511E+02  0.24824479880E+02  0.41800000000E+01 0. -1.
         -5    1    4    4    0  502 -0.97849094739E+02  0.61064742322E+02  0.14450721864E+03  0.18494095473E+03  0.41800000000E+01 0. -1.
        -11    1    3    3    0    0  0.46039832540E+02  0.22304112204E+02  0.17243639139E+02  0.53985949026E+02  0.00000000000E+00 0. -1.
         11    1    3    3    0    0  0.53067153697E+02 -0.64011776954E+02  0.12025963697E+03  0.14620537156E+03  0.00000000000E+00 0.  1.
</event>
<event>
 8    1  0.5900800E-006  0.1257587E+03  0.7561462E-02  0.1233888E+00
         -1   -1    0    0    0  501 -0.00000000000E+00  0.00000000000E+00  0.69631516021E+02  0.69631516021E+02  0.00000000000E+00 0.  1.
          1   -1    0    0  501    0  0.00000000000E+00 -0.00000000000E+00 -0.32390554687E+03  0.32390554687E+03  0.00000000000E+00 0. -1.
         23    2    1    2    0    0  0.88192644437E+02  0.32012754437E+02 -0.42378672017E+02  0.13482179542E+03  0.87052890242E+02 0.  0.
         23    2    1    2    0    0 -0.88192644437E+02 -0.32012754437E+02 -0.21189535883E+03  0.25871526747E+03  0.11502689923E+03 0.  0.
          5    1    4    4  502    0 -0.10229803985E+03 -0.92492031610E+01 -0.20707227782E+03  0.23118572049E+03  0.41800000000E+01 0. -1.
         -5    1    4    4    0  502  0.14105395410E+02 -0.22763551276E+02 -0.48230810081E+01  0.27529546978E+02  0.41800000000E+01 0.  1.
        -11    1    3    3    0    0  0.78519344319E+02  0.55538817366E+02 -0.14808286403E+02  0.97309470314E+02  0.00000000000E+00 0.  1.
         11    1    3    3    0    0  0.96733001185E+01 -0.23526062929E+02 -0.27570385613E+02  0.37512325108E+02  0.00000000000E+00 0. -1.
</event>
<event>
 7    1  0.5900800E-006  0.6908168E+02  0.7561462E-02  0.1363244E+00
         -2   -1    0    0    0  501 -0.00000000000E+00  0.00000000000E+00  0.39619673645E+02  0.39619673645E+02  0.00000000000E+00 0.  1.
          2   -1    0    0  501    0  0.00000000000E+00 -0.00000000000E+00 -0.18738476797E+03  0.18738476797E+03  0.00000000000E+00 0. -1.
         23    2    1    2    0    0 -0.25235949387E+01 -0.93331272186E+01 -0.15062065121E+03  0.19192566156E+03  0.11855548573E+03 0.  0.
          5    1    3    3  502    0 -0.26533561378E+02  0.43881197529E+02 -0.34672444841E+02  0.62042245343E+02  0.41800000000E+01 0. -1.
         -5    1    3    3    0  502  0.24009966439E+02 -0.53214324748E+02 -0.11594820637E+03  0.12988341622E+03  0.41800000000E+01 0.  1.
        -11    1    1    2    0    0 -0.54879090818E+01  0.16528521662E+02  0.11836064668E+02  0.21057103344E+02  0.00000000000E+00 0. -1.
         11    1    1    2    0    0  0.80115040205E+01 -0.71953944437E+01 -0.89805077846E+01  0.14021676716E+02  0.00000000000E+00 0.  1.
</event>
<event>
 8    1  0.5900800E-006  0.1337326E+03  0.7561462E-02  0.1222020E+00
         -2   -1    0    0    0  501 -0.00000000000E+00  0.00000000000E+00  0.20381003574E+02  0.20381003574E+02  0.00000000000E+00 0.  1.
          2   -1    0    0  501    0  0.00000000000E+00 -0.00000000000E+00 -0.12576868051E+04  0.12576868051E+04  0.00000000000E+00 0. -1.
         23    2    1    2    0    0  0.38198597441E+01 -0.11656993335E+03 -0.51773951429E+03  0.53845586509E+03  0.90980070942E+02 0.  0.
         23    2    1    2    0    0 -0.38198597441E+01  0.11656993335E+03 -0.71956628729E+03  0.73961194363E+03  0.12508814760E+03 0.  0.
          5    1    4    4  502    0  0.17145821819E+02  0.57339961684E+02 -0.61227130885E+03  0.61520360732E+03  0.41800000000E+01 0. -1.
         -5    1    4    4    0  502 -0.20965681563E+02  0.59229971665E+02 -0.10729497843E+03  0.12440833631E+03  0.41800000000E+01 0. -1.
        -11    1    3    3    0    0  0.41822689099E+02 -0.35087342125E+02 -0.14259858536E+03  0.15269124221E+03  0.00000000000E+00 0.  1.
         11    1    3    3    0    0 -0.38002829355E+02 -0.81482591224E+02 -0.37514092892E+03  0.38576462288E+03  0.00000000000E+00 0. -1.
</event>
<event>
 7    1  0.5900800E-006  0.1667797E+03  0.7561462E-02  0.1181248E+00
          1   -1    0    0  501    0  0.00000000000E+00  0.00000000000E+00  0.14391387480E+04  0.14391387480E+04  0.00000000000E+00 0. -1.
         -1   -1    0    0    0  501 -0.00000000000E+00 -0.00000000000E+00 -0.51610239133E+02  0.51610239133E+02  0.00000000000E+00 0.  1.
         23    2    1    2    0    0 -0.43640100348E+02 -0.39091095827E+02  0.31477965170E+02  0.11297957308E+03  0.91328798917E+02 0.  0.
          5    1    1    2  502    0 -0.66447775205E+02  0.92887840915E+02  0.81687760270E+03  0.82483328498E+03  0.41800000000E+01 0. -1.
         -5    1    1    2    0  502  0.11008787555E+03 -0.53796745088E+02  0.53917294100E+03  0.55293612907E+03  0.41800000000E+01 0.  1.
        -11    1    3    3    0    0 -0.36547872611E+02  0.16878559951E+02  0.39015511394E+02  0.56061064098E+02  0.00000000000E+00 0. -1.
         11    1    3    3    0    0 -0.70922277371E+01 -0.55969655778E+02 -0.75375462246E+01  0.56918508986E+02  0.00000000000E+00 0.  1.
</event>
<event>
 7    1  0.5900800E-006  0.1812194E+03  0.7561462E-02  0.1166628E+00
          2   -1    0    0  501    0  0.00000000000E+00  0.00000000000E+00  0.12263357980E+04  0.12263357980E+04  0.00000000000E+00 0. -1.
         -2   -1    0    0    0  501 -0.00000000000E+00 -0.00000000000E+00 -0.38945410687E+02  0.38945410687E+02  0.00000000000E+00 0.  1.
         23    2    1    2    0    0 -0.12049706105E+03  0.24365933981E+02  0.46741067213E+03  0.49184549172E+03  0.91246977187E+02 0.  0.
          5    1    1    2  502    0 -0.21604105054E+02 -0.59096535545E+02  0.52943907711E+03  0.53318134498E+03  0.41800000000E+01 0. -1.
         -5    1    1    2    0  502  0.14210116611E+03  0.34730601564E+02  0.19054063804E+03  0.24025437195E+03  0.41800000000E+01 0.  1.
        -11    1    3    3    0    0 -0.85251535910E+02  0.58955950039E+02  0.30986297024E+03  0.32673948146E+03  0.00000000000E+00 0.  1.
         11    1    3    3    0    0 -0.35245525144E+02 -0.34590016058E+02  0.15754770189E+03  0.16510601026E+03  0.00000000000E+00 0. -1.
</event>
<event>
 8    1  0.5900800E-006  0.9371235E+02  0.7561462E-02  0.1294103E+00
         -1   -1    0    0    0  501 -0.00000000000E+00  0.00000000000E+00  0.56117604499E+02  0.56117604499E+02  0.00000000000E+00 0.  1.
          1   -1    0    0  501    0  0.00000000000E+00 -0.00000000000E+00 -0.29501249542E+03  0.29501249542E+03  0.00000000000E+00 0. -1.
         23    2    1    2    0    0 -0.61671279775E+02 -0.16552090415E+02 -0.64118906036E+02  0.12691698857E+03  0.88990839020E+02 0.  0.
         23    2    1    2    0    0  0.61671279775E+02  0.16552090415E+02 -0.17477598488E+03  0.22421311135E+03  0.12509019132E+03 0.  0.
          5    1    4    4  502    0 -0.53977026099E+00 -0.94445801651E+01 -0.15283641167E+03  0.15318594119E+03  0.41800000000E+01 0.  1.
         -5    1    4    4    0  502  0.62211050036E+02  0.25996670580E+02 -0.21939573211E+02  0.71027170157E+02  0.41800000000E+01 0.  1.
        -11    1    3    3    0    0 -0.23544946755E+02  0.36960628769E+02 -0.25416046079E+02  0.50659924941E+02  0.00000000000E+00 0.  1.
         11    1    3    3    0    0 -0.38126333020E+02 -0.53512719184E+02 -0.38702859957E+02  0.76257063626E+02  0.00000000000E+00 0. -1.
</event>
<event>
 8    1  0.5900800E-006  0.9998466E+02  0.7561462E-02  0.1280328E+00
         -2   -1    0    0    0  501 -0.00000000000E+00  0.00000000000E+00  0.54850266424E+02  0.54850266424E+02  0.00000000000E+00 0.  1.
          2   -1    0    0  501    0  0.00000000000E+00 -0.00000000000E+00 -0.37879355958E+03  0.37879355958E+03  0.00000000000E+00 0. -1.
         23    2    1    2    0    0  0.60799391934E+01  0.60071890220E+02 -0.39249574369E+02  0.11687611313E+03  0.92053783612E+02 0.  0.
         23    2    1    2    0    0 -0.60799391934E+01 -0.60071890220E+02 -0.28469371879E+03  0.31676771287E+03  0.12508266365E+03 0.  0.
          5    1    4    4  502    0 -0.33388114767E+02  0.22372571600E+02 -0.39065847510E+02  0.56204190318E+02  0.41800000000E+01 0.  1.
         -5    1    4    4    0  502  0.27308175573E+02 -0.82444461820E+02 -0.24562787128E+03  0.26056352255E+03  0.41800000000E+01 0.  1.
        -11    1    3    3    0    0  0.23063706061E+02  0.27611738574E+02  0.24376032961E+02  0.43457262078E+02  0.00000000000E+00 0.  1.
         11    1    3    3    0    0 -0.16983766868E+02  0.32460151646E+02 -0.63625607330E+02  0.73418851054E+02  0.00000000000E+00 0. -1.
</event>
<event>
 8    1  0.5900800E-006  0.7970251E+02  0.7561462E-02  0.1329898E+00
          3   -1    0    0  501    0  0.00000000000E+00  0.00000000000E+00  0.16863839431E+03  0.16863839431E+03  0.00000000000E+00 0. -1.
         -3   -1    0    0    0  501 -0.00000000000E+00 -0.00000000000E+00 -0.10761206061E+03  0.10761206061E+03  0.00000000000E+00 0.  1.
         23    2    1    2    0    0 -0.30333978313E+02 -0.60628817099E+02 -0.14709964306E+02  0.11507353472E+03  0.91812480853E+02 0.  0.
         23    2    1    2    0    0  0.30333978313E+02  0.60628817099E+02  0.75736298004E+02  0.16117692020E+03  0.12508400804E+03 0.  0.
          5    1    4    4  502    0  0.36852578808E+02  0.60424190654E+02 -0.13018838118E+02  0.72084380603E+02  0.41800000000E+01 0.  1.
         -5    1    4    4    0  502 -0.65186004945E+01  0.20462644519E+00  0.88755136122E+02  0.89092539600E+02  0.41800000000E+01 0.  1.
        -11    1    3    3    0    0  0.11058785722E+02 -0.19440538967E+02 -0.44288631690E+02  0.49615664804E+02  0.00000000000E+00 0.  1.
         11    1    3    3    0    0 -0.41392764036E+02 -0.41188278132E+02  0.29578667384E+02  0.65457869918E+02  0.00000000000E+00 0. -1.
</event>
<event>
 8    1  0.5900800E-006  0.1020169E+03  0.7561462E-02  0.1276111E+00
         -1   -1    0    0    0  501 -0.00000000000E+00  0.00000000000E+00  0.36720258876E+03  0.36720258876E+03  0.00000000000E+00 0.  1.
          1   -1    0    0  501    0  0.00000000000E+00 -0.00000000000E+00 -0.51850239189E+03  0.51850239189E+03  0.00000000000E+00 0. -1.
         23    2    1    2    0    0  0.86064274583E+01 -0.24325157674E+02  0.35341815147E+03  0.36683853313E+03  0.94870099148E+02 0.  0.
         23    2    1    2    0    0 -0.86064274583E+01  0.24325157674E+02 -0.50471795460E+03  0.51886644752E+03  0.11754315284E+03 0.  0.
          5    1    4    4  502    0 -0.56852995002E+02  0.12862783239E+02 -0.15546915003E+03  0.16608986497E+03  0.41800000000E+01 0. -1.
         -5    1    4    4    0  502  0.48246567544E+02  0.11462374436E+02 -0.34924880456E+03  0.35277658255E+03  0.41800000000E+01 0.  1.
        -11    1    3    3    0    0 -0.16721584317E+02 -0.54165928439E+02  0.24779151692E+03  0.25419322384E+03  0.00000000000E+00 0.  1.
         11    1    3    3    0    0  0.25328011775E+02  0.29840770765E+02  0.10562663454E+03  0.11264530929E+03  0.00000000000E+00 0. -1.
</event>
<event>
 7    1  0.5900800E-006  0.1225536E+03  0.7561462E-02  0.1238943E+00
          2   -1    0    0  501    0  0.00000000000E+00  0.00000000000E+00  0.10140160194E+04  0.10140160194E+04  0.00000000000E+00 0.  1.
         -2   -1    0    0    0  501 -0.00000000000E+00 -0.00000000000E+00 -0.68436522632E+02  0.68436522632E+02  0.00000000000E+00 0. -1.
         23    2    1    2    0    0 -0.81358726628E+02 -0.41646781280E+02  0.76547175036E+01  0.12900811659E+03  0.90723771176E+02 0.  0.
          5    1    1    2  502    0  0.58063531539E+02  0.85555219464E+02  0.39844869957E+03  0.41166722952E+03  0.41800000000E+01 0. -1.
         -5    1    1    2    0  502  0.23295195089E+02 -0.43908438184E+02  0.53947607969E+03  0.54177719591E+03  0.41800000000E+01 0.  1.
        -11    1    3    3    0    0 -0.59097833805E+02 -0.26175909383E+02 -0.38680420940E+02  0.75325342061E+02  0.00000000000E+00 0. -1.
         11    1    3    3    0    0 -0.22260892823E+02 -0.15470871897E+02  0.46335138443E+02  0.53682774529E+02  0.00000000000E+00 0.  1.
</event>
<event>
 8    1  0.5900800E-006  0.1047306E+03  0.7561462E-02  0.1270651E+00
         -2   -1    0    0    0  501 -0.00000000000E+00  0.00000000000E+00  0.40743743659E+02  0.40743743659E+02  0.00000000000E+00 0.  1.
          2   -1    0    0  501    0  0.00000000000E+00 -0.00000000000E+00 -0.33449475508E+03  0.33449475508E+03  0.00000000000E+00 0. -1.
         23    2    1    2    0    0  0.13519941726E+02  0.42575247598E+02 -0.11676355436E+03  0.15395255038E+03  0.89845531933E+02 0.  0.
         23    2    1    2    0    0 -0.13519941726E+02 -0.42575247598E+02 -0.17698745706E+03  0.22128594836E+03  0.12508984952E+03 0.  0.
          5    1    4    4  502    0 -0.55567920519E+02  0.14913595753E+02 -0.53538899378E+02  0.78702574772E+02  0.41800000000E+01 0.  1.
         -5    1    4    4    0  502  0.42047978793E+02 -0.57488843351E+02 -0.12344855768E+03  0.14258337359E+03  0.41800000000E+01 0.  1.
        -11    1    3    3    0    0 -0.23316919748E+02 -0.10371365247E+01  0.70091721398E+00  0.23350496433E+02  0.00000000000E+00 0.  1.
         11    1    3    3    0    0  0.36836861474E+02  0.43612384123E+02 -0.11746447158E+03  0.13060205395E+03  0.00000000000E+00 0. -1.
</event>
<event>
 8    1  0.5900800E-006  0.1151934E+03  0.7561462E-02  0.1251244E+00
         -2   -1    0    0    0  501 -0.00000000000E+00  0.00000000000E+00  0.28400899544E+02  0.28400899544E+02  0.00000000000E+00 0.  1.
          2   -1    0    0  501    0  0.00000000000E+00 -0.00000000000E+00 -0.10456820270E+04  0.10456820270E+04  0.00000000000E+00 0. -1.
         23    2    1    2    0    0  0.55095671860E+02 -0.81284302384E+02 -0.16311774800E+03  0.20555404089E+03  0.77475113044E+02 0.  0.
         23    2    1    2    0    0 -0.55095671860E+02  0.81284302384E+02 -0.85416337945E+03  0.86852888565E+03  0.12290108031E+03 0.  0.
          5    1    4    4  502    0 -0.36717910213E+02 -0.53693233356E+01 -0.56112567149E+03  0.56236689640E+03  0.41800000000E+01 0. -1.
         -5    1    4    4    0  502 -0.18377761646E+02  0.86653625720E+02 -0.29303770796E+03  0.30616198925E+03  0.41800000000E+01 0.  1.
        -11    1    3    3    0    0  0.19782577454E+02 -0.51547263928E+01  0.17894629791E+01  0.20521299975E+02  0.00000000000E+00 0. -1.
         11    1    3    3    0    0  0.35313094406E+02 -0.76129575991E+02 -0.16490721098E+03  0.18503274091E+03  0.00000000000E+00 0.  1.
</event>
<event>
 8    1  0.5900800E-006  0.1659219E+03  0.7561462E-02  0.1182169E+00
         -1   -1    0    0    0  501 -0.00000000000E+00  0.00000000000E+00  0.56202816152E+03  0.56202816152E+03  0.00000000000E+00 0.  1.
          1   -1    0    0  501    0  0.00000000000E+00 -0.00000000000E+00 -0.62690551563E+02  0.62690551563E+02  0.00000000000E+00 0. -1.
         23    2    1    2    0    0 -0.11381598057E+03  0.73490694498E+02  0.35900283529E+03  0.39299352193E+03  0.84887648852E+02 0.  0.
         23    2    1    2    0    0  0.11381598057E+03 -0.73490694498E+02  0.14033477468E+03  0.23172519115E+03  0.12509098936E+03 0.  0.
          5    1    4    4  502    0  0.13497271670E+03 -0.84920995702E+02  0.11582054151E+03  0.19713213843E+03  0.41800000000E+01 0. -1.
         -5    1    4    4    0  502 -0.21156736128E+02  0.11430301204E+02  0.24514233165E+02  0.34593052726E+02  0.41800000000E+01 0. -1.
        -11    1    3    3    0    0 -0.10460412624E+03  0.38069030339E+02  0.32304260062E+03  0.34168376624E+03  0.00000000000E+00 0.  1.
         11    1    3    3    0    0 -0.92118543289E+01  0.35421664159E+02  0.35960234668E+02  0.51309755694E+02  0.00000000000E+00 0. -1.
</event>
<event>
 8    1  0.5900800E-006  0.9596513E+02  0.7561462E-02  0.1289017E+00
          1   -1    0    0  501    0  0.00000000000E+00  0.00000000000E+00  0.11125697444E+04  0.11125697444E+04  0.00000000000E+00 0. -1.
         -1   -1    0    0    0  501 -0.00000000000E+00 -0.00000000000E+00 -0.93951325703E+01  0.93951325703E+01  0.00000000000E+00 0.  1.
         23    2    1    2    0    0  0.24877305040E+02  0.12659117867E+02  0.34192672360E+03  0.35000441281E+03  0.69354676120E+02 0.  0.
         23    2    1    2    0    0 -0.24877305040E+02 -0.12659117867E+02  0.76124788823E+03  0.77196046417E+03  0.12508188250E+03 0.  0.
          5    1    4    4  502    0  0.28096713605E+02  0.36000962824E+02  0.45709807710E+03  0.45939266334E+03  0.41800000000E+01 0.  1.
         -5    1    4    4    0  502 -0.52974018646E+02 -0.48660080691E+02  0.30414981113E+03  0.31256780083E+03  0.41800000000E+01 0.  1.
        -11    1    3    3    0    0  0.15335354128E+02 -0.28179136028E+02  0.17301193780E+03  0.17596126681E+03  0.00000000000E+00 0.  1.
         11    1    3    3    0    0  0.95419509128E+01  0.40838253895E+02  0.16891478580E+03  0.17404314600E+03  0.00000000000E+00 0. -1.
</event>
<event>
 8    1  0.5900800E-006  0.8174681E+02  0.7561462E-02  0.1324166E+00
         -2   -1    0    0    0  501 -0.00000000000E+00  0.00000000000E+00  0.53077220883E+02  0.53077220883E+02  0.00000000000E+00 0. -1.
          2   -1    0    0  501    0  0.00000000000E+00 -0.00000000000E+00 -0.34480488003E+03  0.34480488003E+03  0.00000000000E+00 0.  1.
         23    2    1    2    0    0  0.58662690378E+02 -0.32608136939E+01 -0.54430910144E+02  0.12327419578E+03  0.93711574625E+02 0.  0.
         23    2    1    2    0    0 -0.58662690378E+02  0.32608136939E+01 -0.23729674901E+03  0.27460790513E+03  0.12509120802E+03 0.  0.
          5    1    4    4  502    0 -0.26094316843E+02 -0.23636128385E+02 -0.19977229975E+01  0.35511170548E+02  0.41800000000E+01 0. -1.
         -5    1    4    4    0  502 -0.32568373534E+02  0.26896942079E+02 -0.23529902601E+03  0.23909673458E+03  0.41800000000E+01 0. -1.
        -11    1    3    3    0    0  0.13782076416E+02  0.27788953067E+02  0.15412984897E+02  0.34637142584E+02  0.00000000000E+00 0. -1.
         11    1    3    3    0    0  0.44880613961E+02 -0.31049766761E+02 -0.69843895040E+02  0.88637053199E+02  0.00000000000E+00 0.  1.
</event>
<event>
 8    1  0.5900800E-006  0.1307991E+03  0.7561462E-02  0.1226275E+00
          1   -1    0    0  501    0  0.00000000000E+00  0.00000000000E+00  0.57439888074E+03  0.57439888074E+03  0.00000000000E+00 0. -1.
         -1   -1    0    0    0  501 -0.00000000000E+00 -0.00000000000E+00 -0.34964453447E+02  0.34964453447E+02  0.00000000000E+00 0.  1.
         23    2    1    2    0    0 -0.68090165019E+02 -0.64457964547E+02  0.19698488600E+03  0.23220955990E+03  0.79543287795E+02 0.  0.
         23    2    1    2    0    0  0.68090165019E+02  0.64457964547E+02  0.34244954130E+03  0.37715377428E+03  0.12720920312E+03 0.  0.
          5    1    4    4  502    0  0.97475318563E+02  0.33708413394E+02  0.29852981769E+03  0.31587215660E+03  0.41800000000E+01 0. -1.
         -5    1    4    4    0  502 -0.29385153544E+02  0.30749551153E+02  0.43919723605E+02  0.61281617688E+02  0.41800000000E+01 0.  1.
        -11    1    3    3    0    0 -0.23267621239E+02 -0.66816902278E+02  0.15655760012E+03  0.17180268561E+03  0.00000000000E+00 0. -1.
         11    1    3    3    0    0 -0.44822543781E+02  0.23589377309E+01  0.40427285875E+02  0.60406874289E+02  0.00000000000E+00 0.  1.
</event>
<event>
 8    1  0.5900800E-006  0.1447247E+03  0.7561462E-02  0.1207109E+00
         -2   -1    0    0    0  501 -0.00000000000E+00  0.00000000000E+00  0.30524197927E+02  0.30524197927E+02  0.00000000000E+00 0.  1.
          2   -1    0    0  501    0  0.00000000000E+00 -0.00000000000E+00 -0.11568682726E+04  0.11568682726E+04  0.00000000000E+00 0. -1.
         23    2    1    2    0    0 -0.10330046065E+03  0.92928117358E+02 -0.32866997939E+03  0.36810138142E+03  0.90377273047E+02 0.  0.
         23    2    1    2    0    0  0.10330046065E+03 -0.92928117358E+02 -0.79767409529E+03  0.81929108912E+03  0.12508919315E+03 0.  0.
          5    1    4    4  502    0  0.10154445438E+03 -0.72189108455E+02 -0.78442170144E+03  0.79426533456E+03  0.41800000000E+01 0.  1.
         -5    1    4    4    0  502  0.17560062708E+01 -0.20739008903E+02 -0.13252393846E+02  0.25025754553E+02  0.41800000000E+01 0.  1.
        -11    1    3    3    0    0 -0.42596787408E+02  0.15852485302E+02 -0.31883407158E+02  0.55518818789E+02  0.00000000000E+00 0.  1.
         11    1    3    3    0    0 -0.60703673238E+02  0.77075632056E+02 -0.29678657224E+03  0.31258256263E+03  0.00000000000E+00 0. -1.
</event>
<event>
 8    1  0.5900800E-006  0.9449134E+02  0.7561462E-02  0.1292326E+00
         -1   -1    0    0    0  501 -0.00000000000E+00  0.00000000000E+00  0.10784736103E+02  0.10784736103E+02  0.00000000000E+00 0.  1.
          1   -1    0    0  501    0  0.00000000000E+00 -0.00000000000E+00 -0.21155404271E+04  0.21155404271E+04  0.00000000000E+00 0. -1.
         23    2    1    2    0    0 -0.49077860999E+02  0.18137732933E+02 -0.32590041076E+03  0.34230389350E+03  0.90682214190E+02 0.  0.
         23    2    1    2    0    0  0.49077860999E+02 -0.18137732933E+02 -0.17788552803E+04  0.17840212697E+04  0.12517255673E+03 0.  0.
          5    1    4    4  502    0 -0.22339937839E+02  0.24953742729E+02 -0.10247117353E+04  0.10252674651E+04  0.41800000000E+01 0. -1.
         -5    1    4    4    0  502  0.71417798838E+02 -0.43091475662E+02 -0.75414354499E+03  0.75875380468E+03  0.41800000000E+01 0. -1.
        -11    1    3    3    0    0  0.96502656427E+01  0.70445141672E+01 -0.10418863206E+01  0.11993262022E+02  0.00000000000E+00 0.  1.
         11    1    3    3    0    0 -0.58728126642E+02  0.11093218766E+02 -0.32485852444E+03  0.33031063147E+03  0.00000000000E+00 0. -1.
</event>
<event>
 8    1  0.5900800E-006  0.1134921E+03  0.7561462E-02  0.1254236E+00
         -2   -1    0    0    0  501 -0.00000000000E+00  0.00000000000E+00  0.42038271014E+03  0.42038271014E+03  0.00000000000E+00 0.  1.
          2   -1    0    0  501    0  0.00000000000E+00 -0.00000000000E+00 -0.45890959868E+02  0.45890959868E+02  0.00000000000E+00 0. -1.
         23    2    1    2    0    0 -0.49151879036E+02 -0.60016620362E+02  0.23266512910E+03  0.26187090090E+03  0.91790002227E+02 0.  0.
         23    2    1    2    0    0  0.49151879036E+02  0.60016620362E+02  0.14182662117E+03  0.20440276910E+03  0.12509116520E+03 0.  0.
          5    1    4    4  502    0  0.85185601713E+00 -0.34706642946E+02  0.12984998672E+02  0.37300929128E+02  0.41800000000E+01 0. -1.
         -5    1    4    4    0  502  0.48300023018E+02  0.94723263308E+02  0.12884162250E+03  0.16710183998E+03  0.41800000000E+01 0. -1.
        -11    1    3    3    0    0 -0.25226038309E+02 -0.55902223814E+02  0.22930178261E+03  0.23736200021E+03  0.00000000000E+00 0.  1.
         11    1    3    3    0    0 -0.23925840727E+02 -0.41143965480E+01  0.33633464862E+01  0.24508900690E+02  0.00000000000E+00 0. -1.
</event>
<event>
 8    1  0.5900800E-006  0.1512231E+03  0.7561462E-02  0.1198978E+00
          2   -1    0    0  501    0  0.00000000000E+00  0.00000000000E+00  0.12564739482E+03  0.12564739482E+03  0.00000000000E+00 0. -1.
         -2   -1    0    0    0  501 -0.00000000000E+00 -0.00000000000E+00 -0.36851005711E+03  0.36851005711E+03  0.00000000000E+00 0.  1.
         23    2    1    2    0    0 -0.83079577761E+02  0.68515006867E+02 -0.29037448297E+03  0.32239817805E+03  0.89591977544E+02 0.  0.
         23    2    1    2    0    0  0.83079577761E+02 -0.68515006867E+02  0.47511820679E+02  0.17175927388E+03  0.12508937865E+03 0.  0.
          5    1    4    4  502    0  0.89193338043E+02  0.41977394038E+01  0.11019009996E+02  0.90066439635E+02  0.41800000000E+01 0. -1.
         -5    1    4    4    0  502 -0.61137602815E+01 -0.72712746270E+02  0.36492810683E+02  0.81692834242E+02  0.41800000000E+01 0. -1.
        -11    1    3    3    0    0 -0.70648181902E+02  0.32037506287E+00 -0.14001686190E+03  0.15683108704E+03  0.00000000000E+00 0.  1.
         11    1    3    3    0    0 -0.12431395860E+02  0.68194631804E+02 -0.15035762108E+03  0.16556709101E+03  0.00000000000E+00 0. -1.
</event>
<event>
 8    1  0.5900800E-006  0.1144687E+03  0.7561462E-02  0.1252511E+00
         -2   -1    0    0    0  501 -0.00000000000E+00  0.00000000000E+00  0.57869679715E+02  0.57869679715E+02  0.00000000000E+00 0.  1.
          2   -1    0    0  501    0  0.00000000000E+00 -0.00000000000E+00 -0.29055591416E+03  0.29055591416E+03  0.00000000000E+00 0. -1.
         23    2    1    2    0    0 -0.40830873710E+02  0.35428402951E+02 -0.40476521270E+02  0.11281084964E+03  0.90363748473E+02 0.  0.
         23    2    1    2    0    0  0.40830873710E+02 -0.35428402951E+02 -0.19220971318E+03  0.23561474424E+03  0.12508957543E+03 0.  0.
          5    1    4    4  502    0 -0.25242723607E+02  0.24741552716E+02 -0.18249148566E+02  0.39998041818E+02  0.41800000000E+01 0.  1.
         -5    1    4    4    0  502  0.66073597317E+02 -0.60169955667E+02 -0.17396056461E+03  0.19561670242E+03  0.41800000000E+01 0.  1.
        -11    1    3    3    0    0 -0.11475031675E+02  0.62743268061E+02 -0.33715668019E+02  0.72146658335E+02  0.00000000000E+00 0. -1.
         11    1    3    3    0    0 -0.29355842035E+02 -0.27314865110E+02 -0.67608532508E+01  0.40664191302E+02  0.00000000000E+00 0.  1.
</event>
<event>
 8    1  0.5900800E-006  0.9166574E+02  0.7561462E-02  0.1298867E+00
          2   -1    0    0  501    0  0.00000000000E+00  0.00000000000E+00  0.33978412390E+02  0.33978412390E+02  0.00000000000E+00 0. -1.
         -2   -1    0    0    0  501 -0.00000000000E+00 -0.00000000000E+00 -0.40499477950E+03  0.40499477950E+03  0.00000000000E+00 0.  1.
         23    2    1    2    0    0 -0.26923376542E+02  0.61078946651E+01 -0.22646648380E+03  0.24582919138E+03  0.91557350713E+02 0.  0.
         23    2    1    2    0    0  0.26923376542E+02 -0.61078946651E+01 -0.14454988331E+03  0.19314400050E+03  0.12509101321E+03 0.  0.
          5    1    4    4  502    0  0.26618887402E+02 -0.56909558694E+02 -0.12223453756E+03  0.13749915494E+03  0.41800000000E+01 0.  1.
         -5    1    4    4    0  502  0.30448913923E+00  0.50801664029E+02 -0.22315345745E+02  0.55644845561E+02  0.41800000000E+01 0.  1.
        -11    1    3    3    0    0  0.48666529777E+01 -0.24668595671E+02 -0.13948467893E+02  0.28753846354E+02  0.00000000000E+00 0. -1.
         11    1    3    3    0    0 -0.31790029519E+02  0.30776490336E+02 -0.21251801591E+03  0.21707534503E+03  0.00000000000E+00 0.  1.
</event>
<event>
 8    1  0.5900800E-006  0.2127099E+03  0.7561462E-02  0.1139438E+00
         -2   -1    0    0    0  501 -0.00000000000E+00  0.00000000000E+00  0.98777483282E+02  0.98777483282E+02  0.00000000000E+00 0.  1.
          2   -1    0    0  501    0  0.00000000000E+00 -0.00000000000E+00 -0.52536745470E+03  0.52536745470E+03  0.00000000000E+00 0. -1.
         23    2    1    2    0    0  0.10238931580E+03 -0.16557444520E+03 -0.17705804876E+03  0.28383373508E+03  0.10636525581E+03 0.  0.
         23    2    1    2    0    0 -0.10238931580E+03  0.16557444520E+03 -0.24953192265E+03  0.34031120290E+03  0.12508823086E+03 0.  0.
          5    1    4    4  502    0 -0.39555788601E+01  0.10739207434E+03 -0.16927803379E+03  0.20055231079E+03  0.41800000000E+01 0.  1.
         -5    1    4    4    0  502 -0.98433736942E+02  0.58182370861E+02 -0.80253888856E+02  0.13975889211E+03  0.41800000000E+01 0.  1.
        -11    1    3    3    0    0  0.44841837652E+02 -0.24510920681E+02 -0.11411171010E+01  0.51116316229E+02  0.00000000000E+00 0.  1.
         11    1    3    3    0    0  0.57547478151E+02 -0.14106352452E+03 -0.17591693166E+03  0.23271741885E+03  0.00000000000E+00 0. -1.
</event>
<event>
 8    1  0.5900800E-006  0.9932732E+02  0.7561462E-02  0.1281717E+00
          1   -1    0    0  501    0  0.00000000000E+00  0.00000000000E+00  0.41375818979E+03  0.41375818979E+03  0.00000000000E+00 0. -1.
         -1   -1    0    0    0  501 -0.00000000000E+00 -0.00000000000E+00 -0.31402183189E+02  0.31402183189E+02  0.00000000000E+00 0.  1.
         23    2    1    2    0    0  0.58664686723E+01  0.28755473609E+02  0.12779773979E+03  0.16001734171E+03  0.91716926658E+02 0.  0.
         23    2    1    2    0    0 -0.58664686723E+01 -0.28755473609E+02  0.25455826681E+03  0.28514303127E+03  0.12508135097E+03 0.  0.
          5    1    4    4  502    0  0.39978996657E+02 -0.53571356040E+02  0.19342319619E+03  0.20469053614E+03  0.41800000000E+01 0.  1.
         -5    1    4    4    0  502 -0.45845465330E+02  0.24815882431E+02  0.61135070619E+02  0.80452495125E+02  0.41800000000E+01 0.  1.
        -11    1    3    3    0    0 -0.20543089219E+02 -0.16924155400E+02  0.93188434991E+02  0.96915065736E+02  0.00000000000E+00 0. -1.
         11    1    3    3    0    0  0.26409557891E+02  0.45679629009E+02  0.34609304797E+02  0.63102275972E+02  0.00000000000E+00 0.  1.
</event>
<event>
 8    1  0.5900800E-006  0.1080785E+03  0.7561462E-02  0.1264170E+00
          1   -1    0    0  501    0  0.00000000000E+00  0.00000000000E+00  0.13006264431E+03  0.13006264431E+03  0.00000000000E+00 0. -1.
         -1   -1    0    0    0  501 -0.00000000000E+00 -0.00000000000E+00 -0.97724246298E+02  0.97724246298E+02  0.00000000000E+00 0.  1.
         23    2    1    2    0    0 -0.44319210872E+01 -0.15365268590E+01 -0.12789019330E+02  0.94721246042E+02  0.93736612895E+02 0.  0.
         23    2    1    2    0    0  0.44319210872E+01  0.15365268590E+01  0.45127417346E+02  0.13306564457E+03  0.12509188275E+03 0.  0.
          5    1    4    4  502    0  0.26898589472E+01  0.63151008324E+02  0.24777778116E+02  0.68019819773E+02  0.41800000000E+01 0.  1.
         -5    1    4    4    0  502  0.17420621400E+01 -0.61614481465E+02  0.20349639230E+02  0.65045824797E+02  0.41800000000E+01 0.  1.
        -11    1    3    3    0    0  0.43033269301E+02  0.41152388433E+01  0.54239802637E+01  0.43568532445E+02  0.00000000000E+00 0. -1.
         11    1    3    3    0    0 -0.47465190389E+02 -0.56517657023E+01 -0.18212999594E+02  0.51152713597E+02  0.00000000000E+00 0.  1.
</event>
<event>
 8    1  0.5900800E-006  0.1199800E+03  0.7561462E-02  0.1243130E+00
         -1   -1    0    0    0  501 -0.00000000000E+00  0.00000000000E+00  0.55079601330E+02  0.55079601330E+02  0.00000000000E+00 0.  1.
          1   -1    0    0  501    0  0.00000000000E+00 -0.00000000000E+00 -0.35907139286E+03  0.35907139286E+03  0.00000000000E+00 0. -1.
         23    2    1    2    0    0 -0.10626915060E+02  0.87867916351E+02 -0.15073009770E+03  0.19742520084E+03  0.91779330602E+02 0.  0.
         23    2    1    2    0    0  0.10626915060E+02 -0.87867916351E+02 -0.15326169383E+03  0.21672579335E+03  0.12508885107E+03 0.  0.
          5    1    4    4  502    0  0.35485252741E+02  0.13389567248E+02 -0.99194957520E+01  0.39425277033E+02  0.41800000000E+01 0.  1.
         -5    1    4    4    0  502 -0.24858337681E+02 -0.10125748360E+03 -0.14334219808E+03  0.17730051632E+03  0.41800000000E+01 0.  1.
        -11    1    3    3    0    0 -0.26244945636E+02  0.49430060344E+02 -0.18664413056E+02  0.58995663839E+02  0.00000000000E+00 0.  1.
         11    1    3    3    0    0  0.15618030576E+02  0.38437856007E+02 -0.13206568464E+03  0.13842953700E+03  0.00000000000E+00 0. -1.
</event>
<event>
 8    1  0.5900800E-006  0.1084844E+03  0.7561462E-02  0.1263403E+00
          1   -1    0    0  501    0  0.00000000000E+00  0.00000000000E+00  0.43501862298E+03  0.43501862298E+03  0.00000000000E+00 0. -1.
         -1   -1    0    0    0  501 -0.00000000000E+00 -0.00000000000E+00 -0.32849002834E+02  0.32849002834E+02  0.00000000000E+00 0.  1.
         23    2    1    2    0    0  0.16871620501E+02  0.33419569600E+02  0.11419766532E+03  0.15052875673E+03  0.90643701524E+02 0.  0.
         23    2    1    2    0    0 -0.16871620501E+02 -0.33419569600E+02  0.28797195482E+03  0.31733886909E+03  0.12796324417E+03 0.  0.
          5    1    4    4  502    0  0.42330618472E+02 -0.55320225504E+02  0.16132506856E+03  0.17577104072E+03  0.41800000000E+01 0. -1.
         -5    1    4    4    0  502 -0.59202238973E+02  0.21900655904E+02  0.12664688626E+03  0.14156782836E+03  0.41800000000E+01 0.  1.
        -11    1    3    3    0    0 -0.74739909220E+01  0.52477032431E+02  0.30164627122E+02  0.60988557964E+02  0.00000000000E+00 0.  1.
         11    1    3    3    0    0  0.24345611423E+02 -0.19057462831E+02  0.84033038203E+02  0.89540198765E+02  0.00000000000E+00 0. -1.
</event>
<event>
 8    1  0.5900800E-006  0.2123521E+03  0.7561462E-02  0.1139717E+00
         -1   -1    0    0    0  501 -0.00000000000E+00  0.00000000000E+00  0.82946585419E+03  0.82946585419E+03  0.00000000000E+00 0.  1.
          1   -1    0    0  501    0  0.00000000000E+00 -0.00000000000E+00 -0.65348697531E+02  0.65348697531E+02  0.00000000000E+00 0. -1.
         23    2    1    2    0    0 -0.19144498311E+03 -0.59315942841E+02  0.28175502567E+03  0.35770156073E+03  0.91623956619E+02 0.  0.
         23    2    1    2    0    0  0.19144498311E+03  0.59315942841E+02  0.48236213099E+03  0.53711299099E+03  0.12509027557E+03 0.  0.
          5    1    4    4  502    0  0.88709409979E+02 -0.44886985715E+01  0.90017297949E+02  0.12653100080E+03  0.41800000000E+01 0. -1.
         -5    1    4    4    0  502  0.10273557313E+03  0.63804641413E+02  0.39234483304E+03  0.41058199019E+03  0.41800000000E+01 0. -1.
        -11    1    3    3    0    0 -0.14669641819E+03 -0.78160856058E+02  0.18031364911E+03  0.24523859930E+03  0.00000000000E+00 0. -1.
         11    1    3    3    0    0 -0.44748564923E+02  0.18844913217E+02  0.10144137656E+03  0.11246296143E+03  0.00000000000E+00 0.  1.
</event>
<event>
 8    1  0.5900800E-006  0.1257777E+03  0.7561462E-02  0.1233859E+00
         -1   -1    0    0    0  501 -0.00000000000E+00  0.00000000000E+00  0.44983668796E+02  0.44983668796E+02  0.00000000000E+00 0.  1.
          1   -1    0    0  501    0  0.00000000000E+00 -0.00000000000E+00 -0.40697712720E+03  0.40697712720E+03  0.00000000000E+00 0. -1.
         23    2    1    2    0    0  0.61017753276E+02  0.50200731688E+02 -0.13534230798E+03  0.18129300654E+03  0.91139092678E+02 0.  0.
         23    2    1    2    0    0 -0.61017753276E+02 -0.50200731688E+02 -0.22665115043E+03  0.27066778946E+03  0.12508808330E+03 0.  0.
          5    1    4    4  502    0 -0.35889798494E+02  0.40002879557E+02 -0.91413949068E+02  0.10612393930E+03  0.41800000000E+01 0.  1.
         -5    1    4    4    0  502 -0.25127954782E+02 -0.90203611245E+02 -0.13523720136E+03  0.16454385016E+03  0.41800000000E+01 0.  1.
        -11    1    3    3    0    0  0.21903694953E+02  0.59764948579E+02 -0.12412359508E+03  0.13949296680E+03  0.00000000000E+00 0. -1.
         11    1    3    3    0    0  0.39114058323E+02 -0.95642168911E+01 -0.11218712903E+02  0.41800039742E+02  0.00000000000E+00 0.  1.
</event>
<event>
 8    1  0.5900800E-006  0.7621790E+02  0.7561462E-02  0.1340141E+00
         -3   -1    0    0    0  501 -0.00000000000E+00  0.00000000000E+00  0.86775389264E+02  0.86775389264E+02  0.00000000000E+00 0.  1.
          3   -1    0    0  501    0  0.00000000000E+00 -0.00000000000E+00 -0.17661192787E+03  0.17661192787E+03  0.00000000000E+00 0. -1.
         23    2    1    2    0    0  0.31524994987E+02 -0.33976786214E+02  0.38363935604E+01  0.10038940944E+03  0.88966669606E+02 0.  0.
         23    2    1    2    0    0 -0.31524994987E+02  0.33976786214E+02 -0.93672932171E+02  0.16299790770E+03  0.12508178278E+03 0.  0.
          5    1    4    4  502    0  0.20383193204E+02 -0.45000342860E+01 -0.95876680379E+02  0.98211685223E+02  0.41800000000E+01 0. -1.
         -5    1    4    4    0  502 -0.51908188191E+02  0.38476820500E+02  0.22037482083E+01  0.64786222481E+02  0.41800000000E+01 0. -1.
        -11    1    3    3    0    0  0.81329125967E+01 -0.41138560448E+02 -0.34911481859E+02  0.54564979507E+02  0.00000000000E+00 0. -1.
         11    1    3    3    0    0  0.23392082391E+02  0.71617742337E+01  0.38747875419E+02  0.45824429928E+02  0.00000000000E+00 0.  1.
</event>
<event>
 8    1  0.5900800E-006  0.1201000E+03  0.7561462E-02  0.1242932E+00
         -2   -1    0    0    0  501 -0.00000000000E+00  0.00000000000E+00  0.23130217860E+02  0.23130217860E+02  0.00000000000E+00 0. -1.
          2   -1    0    0  501    0  0.00000000000E+00 -0.00000000000E+00 -0.67604532276E+03  0.67604532276E+03  0.00000000000E+00 0.  1.
         23    2    1    2    0    0 -0.37659478598E+02 -0.38125930486E+02 -0.28725273256E+03  0.30901084037E+03  0.10050743354E+03 0.  0.
         23    2    1    2    0    0  0.37659478598E+02  0.38125930486E+02 -0.36566237234E+03  0.39016470025E+03  0.12509076655E+03 0.  0.
          5    1    4    4  502    0  0.46994980762E+00  0.79818769391E+02 -0.20646832237E+03  0.22139985850E+03  0.41800000000E+01 0. -1.
         -5    1    4    4    0  502  0.37189528791E+02 -0.41692838906E+02 -0.15919404997E+03  0.16876484175E+03  0.41800000000E+01 0. -1.
        -11    1    3    3    0    0  0.29595898238E+02 -0.14533915941E+02 -0.15805682283E+03  0.16145931731E+03  0.00000000000E+00 0.  1.
         11    1    3    3    0    0 -0.67255376836E+02 -0.23592014544E+02 -0.12919590974E+03  0.14755152306E+03  0.00000000000E+00 0. -1.
</event>
<event>
 8    1  0.5900800E-006  0.1110653E+03  0.7561462E-02  0.1258610E+00
         -2   -1    0    0    0  501 -0.00000000000E+00  0.00000000000E+00  0.19512925750E+02  0.19512925750E+02  0.00000000000E+00 0.  1.
          2   -1    0    0  501    0  0.00000000000E+00 -0.00000000000E+00 -0.71684108581E+03  0.71684108581E+03  0.00000000000E+00 0. -1.
         23    2    1    2    0    0  0.69013835322E+01 -0.40820998343E+02 -0.25663745734E+03  0.27638670809E+03  0.93876753752E+02 0.  0.
         23    2    1    2    0    0 -0.69013835322E+01  0.40820998343E+02 -0.44069070272E+03  0.45996730348E+03  0.12509053442E+03 0.  0.
          5    1    4    4  502    0 -0.13559735340E+02  0.79160203708E+02 -0.37479034101E+03  0.38332163569E+03  0.41800000000E+01 0. -1.
         -5    1    4    4    0  502  0.66583518077E+01 -0.38339205365E+02 -0.65900361709E+02  0.76645667785E+02  0.41800000000E+01 0. -1.
        -11    1    3    3    0    0 -0.41377034384E+02 -0.34524040664E+01 -0.10710150262E+03  0.11486822855E+03  0.00000000000E+00 0.  1.
         11    1    3    3    0    0  0.48278417916E+02 -0.37368594277E+02 -0.14953595473E+03  0.16151847953E+03  0.00000000000E+00 0. -1.
</event>
<event>
 8    1  0.5900800E-006  0.8899738E+02  0.7561462E-02  0.1305298E+00
          1   -1    0    0  501    0  0.00000000000E+00  0.00000000000E+00  0.40486079218E+03  0.40486079218E+03  0.00000000000E+00 0. -1.
         -1   -1    0    0    0  501 -0.00000000000E+00 -0.00000000000E+00 -0.34703236421E+02  0.34703236421E+02  0.00000000000E+00 0.  1.
         23    2    1    2    0    0  0.36920860568E+02 -0.25696962656E-01  0.78578170699E+02  0.12014387226E+03  0.83047399272E+02 0.  0.
         23    2    1    2    0    0 -0.36920860568E+02  0.25696962656E-01  0.29157938506E+03  0.31942015634E+03  0.12509015901E+03 0.  0.
          5    1    4    4  502    0 -0.62717683421E+02  0.41007442966E+02  0.12408654482E+03  0.14501745135E+03  0.41800000000E+01 0.  1.
         -5    1    4    4    0  502  0.25796822853E+02 -0.40981746004E+02  0.16749284024E+03  0.17440270499E+03  0.41800000000E+01 0.  1.
        -11    1    3    3    0    0  0.21144411427E+02 -0.19851027096E+02 -0.78764889429E+01  0.30053094507E+02  0.00000000000E+00 0.  1.
         11    1    3    3    0    0  0.15776449140E+02  0.19825330133E+02  0.86454659642E+02  0.90090777753E+02  0.00000000000E+00 0. -1.
</event>
<event>
 8    1  0.7947031E-006  0.9670652E+02  0.7561462E-02  0.1287378E+00
         -1   -1    0    0    0  501 -0.00000000000E+00  0.00000000000E+00  0.24468819446E+03  0.24468819446E+03  0.00000000000E+00 0.  1.
          1   -1    0    0  501    0  0.00000000000E+00 -0.00000000000E+00 -0.68992402042E+02  0.68992402042E+02  0.00000000000E+00 0. -1.
         23    2    1    2    0    0  0.57900680957E+02 -0.83496003295E+01  0.13514239792E+03  0.16975673830E+03  0.84449261693E+02 0.  0.
         23    2    1    2    0    0 -0.57900680957E+02  0.83496003295E+01  0.40553394491E+02  0.14392385820E+03  0.12508914611E+03 0.  0.
          5    1    4    4  502    0 -0.93445888316E+02 -0.48767387546E+01  0.84277922479E+01  0.94044759057E+02  0.41800000000E+01 0.  1.
         -5    1    4    4    0  502  0.35545207359E+02  0.13226339084E+02  0.32125602243E+02  0.49879099142E+02  0.41800000000E+01 0.  1.
        -11    1    3    3    0    0  0.27173507507E+02  0.57627043870E+01 -0.26240402985E+01  0.27901502819E+02  0.00000000000E+00 0. -1.
         11    1    3    3    0    0  0.30727173450E+02 -0.14112304717E+02  0.13776643822E+03  0.14185523548E+03  0.00000000000E+00 0.  1.
</event>
<event>
 8    1  0.5900800E-006  0.7461038E+02  0.7561462E-02  0.1345082E+00
         -2   -1    0    0    0  501 -0.00000000000E+00  0.00000000000E+00  0.92710743916E+02  0.92710743916E+02  0.00000000000E+00 0.  1.
          2   -1    0    0  501    0  0.00000000000E+00 -0.00000000000E+00 -0.14753763294E+03  0.14753763294E+03  0.00000000000E+00 0. -1.
         23    2    1    2    0    0 -0.20544083540E+02 -0.30716982394E+02 -0.65763287648E+00  0.98058305458E+02  0.90826242972E+02 0.  0.
         23    2    1    2    0    0  0.20544083540E+02  0.30716982394E+02 -0.54169256152E+02  0.14219007140E+03  0.12616701517E+03 0.  0.
          5    1    4    4  502    0  0.32256695843E+02  0.16336581511E+02 -0.92499819703E+02  0.99403558122E+02  0.41800000000E+01 0. -1.
         -5    1    4    4    0  502 -0.11712612303E+02  0.14380400883E+02  0.38330563551E+02  0.42786513280E+02  0.41800000000E+01 0.  1.
        -11    1    3    3    0    0  0.43238968558E+00 -0.58775775008E+02 -0.14251372582E+02  0.60480412607E+02  0.00000000000E+00 0.  1.
         11    1    3    3    0    0 -0.20976473225E+02  0.28058792614E+02  0.13593739705E+02  0.37577892851E+02  0.00000000000E+00 0. -1.
</event>
<event>
 8    1  0.5900800E-006  0.1468547E+03  0.7561462E-02  0.1204392E+00
          2   -1    0    0  501    0  0.00000000000E+00  0.00000000000E+00  0.66708535423E+03  0.66708535423E+03  0.00000000000E+00 0. -1.
         -2   -1    0    0    0  501 -0.00000000000E+00 -0.00000000000E+00 -0.50907730573E+02  0.50907730573E+02  0.00000000000E+00 0.  1.
         23    2    1    2    0    0  0.10342681598E+02 -0.13964017982E+03  0.38338973947E+03  0.41892267755E+03  0.94351293321E+02 0.  0.
         23    2    1    2    0    0 -0.10342681598E+02  0.13964017982E+03  0.23278788418E+03  0.29907040725E+03  0.12508620463E+03 0.  0.
          5    1    4    4  502    0 -0.26939145182E+02  0.35200675234E+02  0.17061121987E+03  0.17632488714E+03  0.41800000000E+01 0. -1.
         -5    1    4    4    0  502  0.16596463584E+02  0.10443950459E+03  0.62176664312E+02  0.12274552011E+03  0.41800000000E+01 0. -1.
        -11    1    3    3    0    0  0.21373467427E+02 -0.94148249522E+02  0.34539294031E+03  0.35863212518E+03  0.00000000000E+00 0. -1.
         11    1    3    3    0    0 -0.11030785829E+02 -0.45491930298E+02  0.37996799163E+02  0.60290552368E+02  0.00000000000E+00 0.  1.
</event>
<event>
 8    1  0.5900800E-006  0.1229132E+03  0.7561462E-02  0.1238367E+00
          1   -1    0    0  501    0  0.00000000000E+00  0.00000000000E+00  0.20151402489E+03  0.20151402489E+03  0.00000000000E+00 0.  1.
         -1   -1    0    0    0  501 -0.00000000000E+00 -0.00000000000E+00 -0.88303733433E+02  0.88303733433E+02  0.00000000000E+00 0. -1.
         23    2    1    2    0    0 -0.26096124388E+02  0.56309950052E+02 -0.97494442451E+00  0.10943449821E+03  0.90128467754E+02 0.  0.
         23    2    1    2    0    0  0.26096124388E+02 -0.56309950052E+02  0.11418523588E+03  0.18038326011E+03  0.12509210307E+03 0.  0.
          5    1    4    4  502    0  0.69903921229E+02 -0.64978649277E+01  0.76747226208E+02  0.10409798068E+03  0.41800000000E+01 0. -1.
         -5    1    4    4    0  502 -0.43807796841E+02 -0.49812085124E+02  0.37438009670E+02  0.76285279422E+02  0.41800000000E+01 0. -1.
        -11    1    3    3    0    0 -0.59236485124E+02  0.43530378629E+02  0.37285030630E+01  0.73605412630E+02  0.00000000000E+00 0.  1.
         11    1    3    3    0    0  0.33140360736E+02  0.12779571423E+02 -0.47034474876E+01  0.35829085583E+02  0.00000000000E+00 0. -1.
</event>
<event>
 8    1  0.5900800E-006  0.9897493E+02  0.7561462E-02  0.1282466E+00
          2   -1    0    0  501    0  0.00000000000E+00  0.00000000000E+00  0.94959761065E+03  0.94959761065E+03  0.00000000000E+00 0. -1.
         -2   -1    0    0    0  501 -0.00000000000E+00 -0.00000000000E+00 -0.25799186430E+02  0.25799186430E+02  0.00000000000E+00 0.  1.
         23    2    1    2    0    0 -0.70214380906E+01 -0.40584859647E+01  0.78517719188E+02  0.12087196149E+03  0.91538117458E+02 0.  0.
         23    2    1    2    0    0  0.70214380906E+01  0.40584859647E+01  0.84528070504E+03  0.85452483559E+03  0.12508977749E+03 0.  0.
          5    1    4    4  502    0  0.31132294834E+02 -0.52206315453E+02  0.32727011494E+03  0.33289325569E+03  0.41800000000E+01 0.  1.
         -5    1    4    4    0  502 -0.24110856743E+02  0.56264801418E+02  0.51801059010E+03  0.52163157990E+03  0.41800000000E+01 0.  1.
        -11    1    3    3    0    0 -0.19034292148E+02  0.32235629016E+02  0.73274467565E+02  0.82283580698E+02  0.00000000000E+00 0. -1.
         11    1    3    3    0    0  0.12012854057E+02 -0.36294114981E+02  0.52432516228E+01  0.38588380795E+02  0.00000000000E+00 0.  1.
</event>
<event>
 7    1  0.5900800E-006  0.1318237E+03  0.7561462E-02  0.1224775E+00
         -1   -1    0    0    0  501 -0.00000000000E+00  0.00000000000E+00  0.28591030142E+02  0.28591030142E+02  0.00000000000E+00 0.  1.
          1   -1    0    0  501    0  0.00000000000E+00 -0.00000000000E+00 -0.16884385548E+04  0.16884385548E+04  0.00000000000E+00 0. -1.
         23    2    1    2    0    0  0.42314470357E+01  0.17414510934E+01 -0.70631391180E+02  0.11809547169E+03  0.94534698480E+02 0.  0.
          5    1    1    2  502    0 -0.61470070350E+02 -0.65300451325E+02 -0.87939137575E+03  0.88396231969E+03  0.41800000000E+01 0. -1.
         -5    1    1    2    0  502  0.57238623315E+02  0.63559000232E+02 -0.70982475776E+03  0.71497179360E+03  0.41800000000E+01 0.  1.
        -11    1    3    3    0    0  0.45731559558E+02 -0.56518467608E+01 -0.15335191603E+02  0.48564256536E+02  0.00000000000E+00 0.  1.
         11    1    3    3    0    0 -0.41500112522E+02  0.73932978542E+01 -0.55296199578E+02  0.69531215150E+02  0.00000000000E+00 0. -1.
</event>
<event>
 8    1  0.5900800E-006  0.1631698E+03  0.7561462E-02  0.1185164E+00
          3   -1    0    0  501    0  0.00000000000E+00  0.00000000000E+00  0.85883808782E+02  0.85883808782E+02  0.00000000000E+00 0. -1.
         -3   -1    0    0    0  501 -0.00000000000E+00 -0.00000000000E+00 -0.38137318257E+03  0.38137318257E+03  0.00000000000E+00 0.  1.
         23    2    1    2    0    0  0.12466143658E+03  0.72209485290E+02 -0.12735046347E+03  0.21294741471E+03  0.91508345781E+02 0.  0.
         23    2    1    2    0    0 -0.12466143658E+03 -0.72209485290E+02 -0.16813891032E+03  0.25430957664E+03  0.12509190251E+03 0.  0.
          5    1    4    4  502    0 -0.67854372701E+02 -0.81125195852E+02 -0.16567963292E+03  0.19660296656E+03  0.41800000000E+01 0.  1.
         -5    1    4    4    0  502 -0.56807063882E+02  0.89157105625E+01 -0.24592773989E+01  0.57706610081E+02  0.41800000000E+01 0.  1.
        -11    1    3    3    0    0  0.95690443966E+02  0.87864653906E+02 -0.71965662676E+02  0.14851233981E+03  0.00000000000E+00 0. -1.
         11    1    3    3    0    0  0.28970992618E+02 -0.15655168617E+02 -0.55384800791E+02  0.64435074892E+02  0.00000000000E+00 0.  1.
</event>
<event>
 8    1  0.5900800E-006  0.1195567E+03  0.7561462E-02  0.1243830E+00
         -2   -1    0    0    0  501 -0.00000000000E+00  0.00000000000E+00  0.31928996692E+02  0.31928996692E+02  0.00000000000E+00 0. -1.
          2   -1    0    0  501    0  0.00000000000E+00 -0.00000000000E+00 -0.64657509595E+03  0.64657509595E+03  0.00000000000E+00 0.  1.
         23    2    1    2    0    0  0.89301230652E+02 -0.18607173668E+01 -0.20756009599E+03  0.24336634445E+03  0.90375948687E+02 0.  0.
         23    2    1    2    0    0 -0.89301230652E+02  0.18607173668E+01 -0.40708600327E+03  0.43513774819E+03  0.12509066222E+03 0.  0.
          5    1    4    4  502    0 -0.70587791376E+02  0.39750306070E+02 -0.36990696221E+03  0.37869691868E+03  0.41800000000E+01 0.  1.
         -5    1    4    4    0  502 -0.18713439276E+02 -0.37889588703E+02 -0.37179041055E+02  0.56440829507E+02  0.41800000000E+01 0.  1.
        -11    1    3    3    0    0  0.63104639761E+02  0.33560664149E+02 -0.74671025450E+02  0.10336477049E+03  0.00000000000E+00 0. -1.
         11    1    3    3    0    0  0.26196590892E+02 -0.35421381516E+02 -0.13288907054E+03  0.14000157396E+03  0.00000000000E+00 0.  1.
</event>
<event>
 8    1  0.5900800E-006  0.1068622E+03  0.7561462E-02  0.1266493E+00
         -2   -1    0    0    0  501 -0.00000000000E+00  0.00000000000E+00  0.53102719144E+03  0.53102719144E+03  0.00000000000E+00 0.  1.
          2   -1    0    0  501    0  0.00000000000E+00 -0.00000000000E+00 -0.53078014708E+02  0.53078014708E+02  0.00000000000E+00 0. -1.
         23    2    1    2    0    0  0.78720718094E+02  0.64692436189E+02  0.35633652977E+03  0.38206808842E+03  0.92834470861E+02 0.  0.
         23    2    1    2    0    0 -0.78720718094E+02 -0.64692436189E+02  0.12161264697E+03  0.20203711774E+03  0.12508916134E+03 0.  0.
          5    1    4    4  502    0  0.14823613492E+01 -0.10885519612E+02  0.10290367585E+03  0.10357282866E+03  0.41800000000E+01 0.  1.
         -5    1    4    4    0  502 -0.80203079444E+02 -0.53806916577E+02  0.18708971117E+02  0.98464289080E+02  0.41800000000E+01 0.  1.
        -11    1    3    3    0    0  0.15836532822E+02  0.28868540252E+02  0.21097849679E+02  0.39106363283E+02  0.00000000000E+00 0. -1.
         11    1    3    3    0    0  0.62884185272E+02  0.35823895937E+02  0.33523868009E+03  0.34296172513E+03  0.00000000000E+00 0.  1.
</event>
<event>
 8    1  0.5900800E-006  0.1976279E+03  0.7561462E-02  0.1151756E+00
          2   -1    0    0  501    0  0.00000000000E+00  0.00000000000E+00  0.35335090243E+03  0.35335090243E+03  0.00000000000E+00 0. -1.
         -2   -1    0    0    0  501 -0.00000000000E+00 -0.00000000000E+00 -0.16850415334E+03  0.16850415334E+03  0.00000000000E+00 0.  1.
         23    2    1    2    0    0 -0.17982703186E+03 -0.36841143346E+02 -0.36508723871E+02  0.20825878533E+03  0.91344422483E+02 0.  0.
         23    2    1    2    0    0  0.17982703186E+03  0.36841143346E+02  0.22135547297E+03  0.31359627044E+03  0.12509733887E+03 0.  0.
          5    1    4    4  502    0  0.22726568745E+02 -0.11484307922E+02  0.11481106572E+03  0.11767514379E+03  0.41800000000E+01 0. -1.
         -5    1    4    4    0  502  0.15710046311E+03  0.48325451268E+02  0.10654440725E+03  0.19592112665E+03  0.41800000000E+01 0. -1.
        -11    1    3    3    0    0 -0.12552316317E+03 -0.67656435517E+02 -0.25201915966E+02  0.14480536706E+03  0.00000000000E+00 0.  1.
         11    1    3    3    0    0 -0.54303868683E+02  0.30815292171E+02 -0.11306807906E+02  0.63453418273E+02  0.00000000000E+00 0. -1.
</event>
<event>
 8    1  0.5900800E-006  0.1166169E+03  0.7561462E-02  0.1248785E+00
         -1   -1    0    0    0  501 -0.00000000000E+00  0.00000000000E+00  0.18442117868E+03  0.18442117868E+03  0.00000000000E+00 0.  1.
          1   -1    0    0  501    0  0.00000000000E+00 -0.00000000000E+00 -0.10001467695E+03  0.10001467695E+03  0.00000000000E+00 0. -1.
         23    2    1    2    0    0 -0.26913662171E+02  0.40022569010E+02  0.10819043570E+03  0.14827532990E+03  0.89186612450E+02 0.  0.
         23    2    1    2    0    0  0.26913662171E+02 -0.40022569010E+02 -0.23783933964E+02  0.13616052573E+03  0.12509141461E+03 0.  0.
          5    1    4    4  502    0 -0.17380091863E+02 -0.74516748725E+02 -0.49227345766E+01  0.76788795729E+02  0.41800000000E+01 0. -1.
         -5    1    4    4    0  502  0.44293754034E+02  0.34494179715E+02 -0.18861199387E+02  0.59371729998E+02  0.41800000000E+01 0. -1.
        -11    1    3    3    0    0  0.22408659282E+02 -0.14573561895E+02  0.38965094903E+02  0.47252675458E+02  0.00000000000E+00 0.  1.
         11    1    3    3    0    0 -0.49322321453E+02  0.54596130905E+02  0.69225340795E+02  0.10102265445E+03  0.00000000000E+00 0. -1.
</event>
<event>
 8    1  0.5900800E-006  0.9946233E+02  0.7561462E-02  0.1281431E+00
          1   -1    0    0  501    0  0.00000000000E+00  0.00000000000E+00  0.17702082075E+04  0.17702082075E+04  0.00000000000E+00 0. -1.
         -1   -1    0    0    0  501 -0.00000000000E+00 -0.00000000000E+00 -0.80998224369E+01  0.80998224369E+01  0.00000000000E+00 0.  1.
         23    2    1    2    0    0 -0.24202169635E+02  0.10347581376E+02  0.46640456640E+03  0.47631402398E+03  0.93000066759E+02 0.  0.
         23    2    1    2    0    0  0.24202169635E+02 -0.10347581376E+02  0.12957038186E+04  0.13019940060E+04  0.12508872218E+03 0.  0.
          5    1    4    4  502    0  0.15597754471E+02  0.44400334779E+02  0.99982559518E+03  0.10009412435E+04  0.41800000000E+01 0.  1.
         -5    1    4    4    0  502  0.86044151643E+01 -0.54747916155E+02  0.29587822347E+03  0.30105276250E+03  0.41800000000E+01 0.  1.
        -11    1    3    3    0    0 -0.15630369957E+02 -0.41085984342E+02  0.23888210858E+03  0.24289303896E+03  0.00000000000E+00 0. -1.
         11    1    3    3    0    0 -0.85717996786E+01  0.51433565718E+02  0.22752245782E+03  0.23342098502E+03  0.00000000000E+00 0.  1.
</event>
<event>
 8    1  0.5900800E-006  0.1049109E+03  0.7561462E-02  0.1270295E+00
         -1   -1    0    0    0  501 -0.00000000000E+00  0.00000000000E+00  0.13291860878E+02  0.13291860878E+02  0.00000000000E+00 0.  1.
          1   -1    0    0  501    0  0.00000000000E+00 -0.00000000000E+00 -0.10155857587E+04  0.10155857587E+04  0.00000000000E+00 0. -1.
         23    2    1    2    0    0  0.12839130246E+02 -0.54144196375E+02 -0.19597465974E+03  0.21101790666E+03  0.55009566509E+02 0.  0.
         23    2    1    2    0    0 -0.12839130246E+02  0.54144196375E+02 -0.80631923804E+03  0.81785971287E+03  0.12508940416E+03 0.  0.
          5    1    4    4  502    0 -0.65390519305E+02  0.18702376610E+02 -0.52826138298E+03  0.53263801972E+03  0.41800000000E+01 0. -1.
         -5    1    4    4    0  502  0.52551389058E+02  0.35441819764E+02 -0.27805785507E+03  0.28522169315E+03  0.41800000000E+01 0. -1.
        -11    1    3    3    0    0 -0.21757550863E+02 -0.21641372470E+02 -0.72083128893E+02  0.78343586163E+02  0.00000000000E+00 0.  1.
         11    1    3    3    0    0  0.34596681109E+02 -0.32502823905E+02 -0.12389153084E+03  0.13267432050E+03  0.00000000000E+00 0. -1.
</event>
<event>
 7    1  0.5900800E-006  0.2400696E+03  0.7561462E-02  0.1119746E+00
          2   -1    0    0  501    0  0.00000000000E+00  0.00000000000E+00  0.17407163467E+04  0.17407163467E+04  0.00000000000E+00 0. -1.
         -2   -1    0    0    0  501 -0.00000000000E+00 -0.00000000000E+00 -0.43444028741E+02  0.43444028741E+02  0.00000000000E+00 0.  1.
         23    2    1    2    0    0 -0.18178628135E+03  0.59480301316E+02  0.46116305323E+03  0.50830866375E+03  0.95510091855E+02 0.  0.
          5    1    1    2  502    0  0.21519590652E+03 -0.78546131724E+02  0.12038943643E+04  0.12255031154E+04  0.41800000000E+01 0. -1.
         -5    1    1    2    0  502 -0.33409625166E+02  0.19065830408E+02  0.32214900457E+02  0.50348596349E+02  0.41800000000E+01 0.  1.
        -11    1    3    3    0    0 -0.12577853312E+03 -0.62938026266E+01  0.24374942658E+03  0.27436040950E+03  0.00000000000E+00 0.  1.
         11    1    3    3    0    0 -0.56007748234E+02  0.65774103942E+02  0.21741362665E+03  0.23394825425E+03  0.00000000000E+00 0. -1.
</event>
<event>
 8    1  0.5900800E-006  0.1225835E+03  0.7561462E-02  0.1238895E+00
          1   -1    0    0  501    0  0.00000000000E+00  0.00000000000E+00  0.40354397293E+02  0.40354397293E+02  0.00000000000E+00 0.  1.
         -1   -1    0    0    0  501 -0.00000000000E+00 -0.00000000000E+00 -0.42522778062E+03  0.42522778062E+03  0.00000000000E+00 0. -1.
         23    2    1    2    0    0  0.41609521490E+02 -0.60630801843E+02 -0.17052035960E+03  0.20673453130E+03  0.90854427423E+02 0.  0.
         23    2    1    2    0    0 -0.41609521490E+02  0.60630801843E+02 -0.21435302372E+03  0.25884764661E+03  0.12508972366E+03 0.  0.
          5    1    4    4  502    0 -0.32047281569E+02  0.92409902663E+02 -0.10098748093E+03  0.14065049616E+03  0.41800000000E+01 0.  1.
         -5    1    4    4    0  502 -0.95622399203E+01 -0.31779100820E+02 -0.11336554279E+03  0.11819715045E+03  0.41800000000E+01 0.  1.
        -11    1    3    3    0    0  0.32612199042E+01  0.22254985864E+02 -0.17361319658E+02  0.28413647624E+02  0.00000000000E+00 0.  1.
         11    1    3    3    0    0  0.38348301586E+02 -0.82885787707E+02 -0.15315903994E+03  0.17832088368E+03  0.00000000000E+00 0. -1.
</event>
<event>
 8    1  0.5900800E-006  0.1055769E+03  0.7561462E-02  0.1268987E+00
          2   -1    0    0  501    0  0.00000000000E+00  0.00000000000E+00  0.77976539668E+02  0.77976539668E+02  0.00000000000E+00 0. -1.
         -2   -1    0    0    0  501 -0.00000000000E+00 -0.00000000000E+00 -0.21047037526E+03  0.21047037526E+03  0.00000000000E+00 0.  1.
         23    2    1    2    0    0  0.39744665149E-01  0.66072603904E+02 -0.41138562480E+02  0.12004416023E+03  0.91392715886E+02 0.  0.
         23    2    1    2    0    0 -0.39744665149E-01 -0.66072603904E+02 -0.91355273110E+02  0.16840275469E+03  0.12509241103E+03 0.  0.
          5    1    4    4  502    0 -0.35106782855E+02 -0.91298118139E+02 -0.59493088875E+02  0.11456322535E+03  0.41800000000E+01 0.  1.
         -5    1    4    4    0  502  0.35067038190E+02  0.25225514235E+02 -0.31862184235E+02  0.53839529344E+02  0.41800000000E+01 0.  1.
        -11    1    3    3    0    0  0.88990786020E+01  0.11389628618E+02 -0.59852136707E+02  0.61572684758E+02  0.00000000000E+00 0.  1.
         11    1    3    3    0    0 -0.88593339368E+01  0.54682975286E+02  0.18713574227E+02  0.58471475475E+02  0.00000000000E+00 0. -1.
</event>
<event>
 8    1  0.5900800E-006  0.9460234E+02  0.7561462E-02  0.1292074E+00
          2   -1    0    0  501    0  0.00000000000E+00  0.00000000000E+00  0.43821287315E+03  0.43821287315E+03  0.00000000000E+00 0. -1.
         -2   -1    0    0    0  501 -0.00000000000E+00 -0.00000000000E+00 -0.51547692057E+02  0.51547692057E+02  0.00000000000E+00 0.  1.
         23    2    1    2    0    0 -0.80504290957E+02  0.48461314111E+02  0.10358658561E+03  0.16632637676E+03  0.90026901860E+02 0.  0.
         23    2    1    2    0    0  0.80504290957E+02 -0.48461314111E+02  0.28307859548E+03  0.32343418845E+03  0.12508694261E+03 0.  0.
          5    1    4    4  502    0  0.74419765202E+02 -0.44735642708E+02  0.73915293843E+02  0.11410750302E+03  0.41800000000E+01 0. -1.
         -5    1    4    4    0  502  0.60845257545E+01 -0.37256714026E+01  0.20916330164E+03  0.20932668543E+03  0.41800000000E+01 0. -1.
        -11    1    3    3    0    0 -0.26754840097E+02  0.14619012858E+02  0.97921493429E+02  0.10255806102E+03  0.00000000000E+00 0. -1.
         11    1    3    3    0    0 -0.53749450860E+02  0.33842301253E+02  0.56650921806E+01  0.63768315732E+02  0.00000000000E+00 0.  1.
</event>
<event>
 8    1  0.5900800E-006  0.1096810E+03  0.7561462E-02  0.1261162E+00
         -1   -1    0    0    0  501 -0.00000000000E+00  0.00000000000E+00  0.20728074382E+03  0.20728074382E+03  0.00000000000E+00 0.  1.
          1   -1    0    0  501    0  0.00000000000E+00 -0.00000000000E+00 -0.78189365248E+02  0.78189365248E+02  0.00000000000E+00 0. -1.
         23    2    1    2    0    0  0.47675889075E+02 -0.82301334948E+00  0.11508533992E+03  0.15084807784E+03  0.85069614871E+02 0.  0.
         23    2    1    2    0    0 -0.47675889075E+02  0.82301334948E+00  0.14006038647E+02  0.13462203122E+03  0.12511296664E+03 0.  0.
          5    1    4    4  502    0 -0.62325219573E+02 -0.50272260121E+02  0.33669181342E+01  0.80252985429E+02  0.41800000000E+01 0. -1.
         -5    1    4    4    0  502  0.14649330497E+02  0.51095273471E+02  0.10639120513E+02  0.54369045792E+02  0.41800000000E+01 0. -1.
        -11    1    3    3    0    0  0.46664894489E+02  0.29704839282E+02  0.35821741150E+02  0.65902860282E+02  0.00000000000E+00 0. -1.
         11    1    3    3    0    0  0.10109945864E+01 -0.30527852631E+02  0.79263598771E+02  0.84945217560E+02  0.00000000000E+00 0.  1.
</event>
<event>
 8    1  0.5900800E-006  0.1386791E+03  0.7561462E-02  0.1215117E+00
          2   -1    0    0  501    0  0.00000000000E+00  0.00000000000E+00  0.52071800969E+03  0.52071800969E+03  0.00000000000E+00 0. -1.
         -2   -1    0    0    0  501 -0.00000000000E+00 -0.00000000000E+00 -0.58983095687E+02  0.58983095687E+02  0.00000000000E+00 0.  1.
         23    2    1    2    0    0  0.24696726179E+01  0.13505989268E+03  0.24852038916E+03  0.29799347707E+03  0.93757424533E+02 0.  0.
         23    2    1    2    0    0 -0.24696726179E+01 -0.13505989268E+03  0.21321452485E+03  0.28170762831E+03  0.12510587656E+03 0.  0.
          5    1    4    4  502    0 -0.15306755960E+02 -0.58099669543E+02  0.19130064135E+03  0.20055741363E+03  0.41800000000E+01 0.  1.
         -5    1    4    4    0  502  0.12837083342E+02 -0.76960223134E+02  0.21913883496E+02  0.81150214685E+02  0.41800000000E+01 0.  1.
        -11    1    3    3    0    0  0.15560147915E+02  0.10583508120E+03  0.10128309782E+03  0.14731411514E+03  0.00000000000E+00 0.  1.
         11    1    3    3    0    0 -0.13090475298E+02  0.29224811474E+02  0.14723729134E+03  0.15067936193E+03  0.00000000000E+00 0. -1.
</event>
<event>
 8    1  0.5900800E-006  0.1195475E+03  0.7561462E-02  0.1243845E+00
         -2   -1    0    0    0  501 -0.00000000000E+00  0.00000000000E+00  0.17914131365E+02  0.17914131365E+02  0.00000000000E+00 0.  1.
          2   -1    0    0  501    0  0.00000000000E+00 -0.00000000000E+00 -0.92813894053E+03  0.92813894053E+03  0.00000000000E+00 0. -1.
         23    2    1    2    0    0 -0.71781598959E+02 -0.43197723605E+02 -0.35627892703E+03  0.37201445752E+03  0.66644140610E+02 0.  0.
         23    2    1    2    0    0  0.71781598959E+02  0.43197723605E+02 -0.55394588213E+03  0.57403861438E+03  0.12508256951E+03 0.  0.
          5    1    4    4  502    0  0.85288079875E+02 -0.17337554413E+02 -0.35891839473E+03  0.36934338201E+03  0.41800000000E+01 0.  1.
         -5    1    4    4    0  502 -0.13506480916E+02  0.60535278018E+02 -0.19502748740E+03  0.20469523237E+03  0.41800000000E+01 0.  1.
        -11    1    3    3    0    0 -0.55313596542E+02 -0.15280549185E+02 -0.31146636414E+03  0.31670867550E+03  0.00000000000E+00 0. -1.
         11    1    3    3    0    0 -0.16468002417E+02 -0.27917174420E+02 -0.44812562893E+02  0.55305782014E+02  0.00000000000E+00 0.  1.
</event>
<event>
 8    1  0.5900800E-006  0.1138208E+03  0.7561462E-02  0.1253654E+00
         -2   -1    0    0    0  501 -0.00000000000E+00  0.00000000000E+00  0.15863323149E+02  0.15863323149E+02  0.00000000000E+00 0.  1.
          2   -1    0    0  501    0  0.00000000000E+00 -0.00000000000E+00 -0.98605043782E+03  0.98605043782E+03  0.00000000000E+00 0. -1.
         23    2    1    2    0    0 -0.74700388006E+01  0.56269858374E+02 -0.32238109529E+03  0.33970304079E+03  0.90810169456E+02 0.  0.
         23    2    1    2    0    0  0.74700388006E+01 -0.56269858374E+02 -0.64780601938E+03  0.66221072018E+03  0.12509316824E+03 0.  0.
          5    1    4    4  502    0  0.10434129396E+02 -0.90415878026E+02 -0.56791898859E+03  0.57518114716E+03  0.41800000000E+01 0. -1.
         -5    1    4    4    0  502 -0.29640905954E+01  0.34146019652E+02 -0.79887030791E+02  0.87029573018E+02  0.41800000000E+01 0. -1.
        -11    1    3    3    0    0 -0.42216366042E+02  0.52021990623E+02 -0.15767418242E+03  0.17131741555E+03  0.00000000000E+00 0.  1.
         11    1    3    3    0    0  0.34746327241E+02  0.42478677506E+01 -0.16470691287E+03  0.16838562523E+03  0.00000000000E+00 0. -1.
</event>
<event>
 8    1  0.5900800E-006  0.1083047E+03  0.7561462E-02  0.1263742E+00
          1   -1    0    0  501    0  0.00000000000E+00  0.00000000000E+00  0.95989956198E+02  0.95989956198E+02  0.00000000000E+00 0. -1.
         -1   -1    0    0    0  501 -0.00000000000E+00 -0.00000000000E+00 -0.18257609867E+03  0.18257609867E+03  0.00000000000E+00 0.  1.
         23    2    1    2    0    0  0.46164315864E+01  0.72430069127E+02 -0.64059284720E+02  0.13221345275E+03  0.90052089228E+02 0.  0.
         23    2    1    2    0    0 -0.46164315864E+01 -0.72430069127E+02 -0.22526857748E+02  0.14635260212E+03  0.12507677031E+03 0.  0.
          5    1    4    4  502    0  0.22788054622E+02 -0.10133536085E+03 -0.10203742916E+02  0.10444969872E+03  0.41800000000E+01 0.  1.
         -5    1    4    4    0  502 -0.27404486209E+02  0.28905291726E+02 -0.12323114832E+02  0.41902903399E+02  0.41800000000E+01 0.  1.
        -11    1    3    3    0    0  0.21738427585E+01  0.49895436384E+02  0.13232962271E+02  0.51666153861E+02  0.00000000000E+00 0. -1.
         11    1    3    3    0    0  0.24425888279E+01  0.22534632743E+02 -0.77292246991E+02  0.80547298886E+02  0.00000000000E+00 0.  1.
</event>
<event>
 8    1  0.5900800E-006  0.1005601E+03  0.7561462E-02  0.1279122E+00
         -2   -1    0    0    0  501 -0.00000000000E+00  0.00000000000E+00  0.91805460970E+01  0.91805460970E+01  0.00000000000E+00 0.  1.
          2   -1    0    0  501    0  0.00000000000E+00 -0.00000000000E+00 -0.14224874770E+04  0.14224874770E+04  0.00000000000E+00 0. -1.
         23    2    1    2    0    0  0.93995976929E+01 -0.13294688620E+02 -0.48233587918E+03  0.49218981964E+03  0.96632380835E+02 0.  0.
         23    2    1    2    0    0 -0.93995976929E+01  0.13294688620E+02 -0.93097105172E+03  0.93947820346E+03  0.12508834659E+03 0.  0.
          5    1    4    4  502    0  0.42666913166E+02  0.26735848839E+02 -0.71828740994E+03  0.72006218257E+03  0.41800000000E+01 0. -1.
         -5    1    4    4    0  502 -0.52066510858E+02 -0.13441160219E+02 -0.21268364178E+03  0.21941602089E+03  0.41800000000E+01 0. -1.
        -11    1    3    3    0    0  0.46309739324E+02 -0.30995040965E+02 -0.31708432204E+03  0.32194370906E+03  0.00000000000E+00 0. -1.
         11    1    3    3    0    0 -0.36910141631E+02  0.17700352345E+02 -0.16525155715E+03  0.17024611058E+03  0.00000000000E+00 0.  1.
</event>
<event>
 8    1  0.5900800E-006  0.9617127E+02  0.7561462E-02  0.1288560E+00
          2   -1    0    0  501    0  0.00000000000E+00  0.00000000000E+00  0.42810366263E+02  0.42810366263E+02  0.00000000000E+00 0. -1.
         -2   -1    0    0    0  501 -0.00000000000E+00 -0.00000000000E+00 -0.27993677046E+03  0.27993677046E+03  0.00000000000E+00 0.  1.
         23    2    1    2    0    0 -0.17349174881E+02 -0.71876517905E+01 -0.14037879609E+03  0.16350252270E+03  0.81695852585E+02 0.  0.
         23    2    1    2    0    0  0.17349174881E+02  0.71876517905E+01 -0.96747608104E+02  0.15924461402E+03  0.12508433641E+03 0.  0.
          5    1    4    4  502    0  0.42825436358E+02  0.55235912584E+02 -0.67930147900E+02  0.97555119968E+02  0.41800000000E+01 0. -1.
         -5    1    4    4    0  502 -0.25476261477E+02 -0.48048260794E+02 -0.28817460204E+02  0.61689494055E+02  0.41800000000E+01 0. -1.
        -11    1    3    3    0    0  0.23590925597E+02 -0.12157164009E+02 -0.12879501904E+02  0.29499321628E+02  0.00000000000E+00 0. -1.
         11    1    3    3    0    0 -0.40940100478E+02  0.49695122181E+01 -0.12749929419E+03  0.13400320107E+03  0.00000000000E+00 0.  1.
</event>
<event>
 8    1  0.5900800E-006  0.1060979E+03  0.7561462E-02  0.1267971E+00
          2   -1    0    0  501    0  0.00000000000E+00  0.00000000000E+00  0.48712573185E+03  0.48712573185E+03  0.00000000000E+00 0. -1.
         -2   -1    0    0    0  501 -0.00000000000E+00 -0.00000000000E+00 -0.26537346395E+02  0.26537346395E+02  0.00000000000E+00 0.  1.
         23    2    1    2    0    0 -0.31585584145E+02  0.21234013276E+01  0.16053877887E+03  0.18704564079E+03  0.90615750610E+02 0.  0.
         23    2    1    2    0    0  0.31585584145E+02 -0.21234013276E+01  0.30004960658E+03  0.32661743745E+03  0.12508807329E+03 0.  0.
          5    1    4    4  502    0 -0.24978831202E+02 -0.44958912835E+02  0.17853042412E+03  0.18583818388E+03  0.41800000000E+01 0.  1.
         -5    1    4    4    0  502  0.56564415347E+02  0.42835511507E+02  0.12151918246E+03  0.14077925357E+03  0.41800000000E+01 0.  1.
        -11    1    3    3    0    0 -0.59598380382E+01 -0.39875402327E+02  0.39736514391E+02  0.56608815180E+02  0.00000000000E+00 0.  1.
         11    1    3    3    0    0 -0.25625746107E+02  0.41998803654E+02  0.12080226448E+03  0.13043682561E+03  0.00000000000E+00 0. -1.
</event>
<event>
 8    1  0.5900800E-006  0.1067360E+03  0.7561462E-02  0.1266737E+00
         -2   -1    0    0    0  501 -0.00000000000E+00  0.00000000000E+00  0.37104152920E+02  0.37104152920E+02  0.00000000000E+00 0.  1.
          2   -1    0    0  501    0  0.00000000000E+00 -0.00000000000E+00 -0.34614431952E+03  0.34614431952E+03  0.00000000000E+00 0. -1.
         23    2    1    2    0    0 -0.23942017628E+02  0.48205224689E+00 -0.16931713387E+03  0.19418965237E+03  0.92021066506E+02 0.  0.
         23    2    1    2    0    0  0.23942017628E+02 -0.48205224689E+00 -0.13972303273E+03  0.18905882007E+03  0.12508900427E+03 0.  0.
          5    1    4    4  502    0  0.68573419549E+02 -0.17629348911E+02 -0.48321831148E+02  0.85822954838E+02  0.41800000000E+01 0.  1.
         -5    1    4    4    0  502 -0.44631401922E+02  0.17147296664E+02 -0.91401201578E+02  0.10323586523E+03  0.41800000000E+01 0.  1.
        -11    1    3    3    0    0 -0.35897657570E+02  0.39716431601E+02 -0.85547014087E+02  0.10091743347E+03  0.00000000000E+00 0.  1.
         11    1    3    3    0    0  0.11955639942E+02 -0.39234379354E+02 -0.83770119785E+02  0.93272218900E+02  0.00000000000E+00 0. -1.
</event>
<event>
 7    1  0.5900800E-006  0.1255829E+03  0.7561462E-02  0.1234161E+00
          1   -1    0    0  501    0  0.00000000000E+00  0.00000000000E+00  0.40840488203E+03  0.40840488203E+03  0.00000000000E+00 0. -1.
         -1   -1    0    0    0  501 -0.00000000000E+00 -0.00000000000E+00 -0.54274256563E+02  0.54274256563E+02  0.00000000000E+00 0.  1.
         23    2    1    2    0    0 -0.22664798630E+02 -0.30741151785E+02  0.45143682239E+02  0.10823275268E+03  0.90651338635E+02 0.  0.
          5    1    1    2  502    0  0.81737387992E+02  0.42882814028E+02  0.26219901885E+03  0.27800311908E+03  0.41800000000E+01 0. -1.
         -5    1    1    2    0  502 -0.59072589363E+02 -0.12141662244E+02  0.46787924381E+02  0.76443266832E+02  0.41800000000E+01 0.  1.
        -11    1    3    3    0    0 -0.55086043223E+02 -0.35518534333E+02  0.31763708066E+02  0.72835235904E+02  0.00000000000E+00 0.  1.
         11    1    3    3    0    0  0.32421244593E+02  0.47773825480E+01  0.13379974173E+02  0.35397516775E+02  0.00000000000E+00 0. -1.
</event>
<event>
 8    1  0.5900800E-006  0.1167639E+03  0.7561462E-02  0.1248533E+00
          2   -1    0    0  501    0  0.00000000000E+00  0.00000000000E+00  0.12592312002E+03  0.12592312002E+03  0.00000000000E+00 0.  1.
         -2   -1    0    0    0  501 -0.00000000000E+00 -0.00000000000E+00 -0.13938410737E+03  0.13938410737E+03  0.00000000000E+00 0. -1.
         23    2    1    2    0    0 -0.69556582915E+02  0.28099147535E+02 -0.27892590949E+02  0.11873811328E+03  0.87710105435E+02 0.  0.
         23    2    1    2    0    0  0.69556582915E+02 -0.28099147535E+02  0.14431603598E+02  0.14656911412E+03  0.12508618514E+03 0.  0.
          5    1    4    4  502    0 -0.25542793431E+02 -0.17631606950E+02 -0.27827534009E+02  0.41894533163E+02  0.41800000000E+01 0. -1.
         -5    1    4    4    0  502  0.95099376346E+02 -0.10467540585E+02  0.42259137607E+02  0.10467458096E+03  0.41800000000E+01 0. -1.
        -11    1    3    3    0    0  0.23355422744E+01  0.34214070911E+02  0.11950630786E+02  0.36316318401E+02  0.00000000000E+00 0. -1.
         11    1    3    3    0    0 -0.71892125189E+02 -0.61149233762E+01 -0.39843221735E+02  0.82421794874E+02  0.00000000000E+00 0.  1.
</event>
<event>
 8    1  0.5900800E-006  0.1576657E+03  0.7561462E-02  0.1191358E+00
          2   -1    0    0  501    0  0.00000000000E+00  0.00000000000E+00  0.23022458814E+03  0.23022458814E+03  0.00000000000E+00 0. -1.
         -2   -1    0    0    0  501 -0.00000000000E+00 -0.00000000000E+00 -0.12124574088E+03  0.12124574088E+03  0.00000000000E+00 0.  1.
         23    2    1    2    0    0 -0.11476176623E+03  0.91049349045E+01 -0.54874129790E+01  0.14651899558E+03  0.90468456041E+02 0.  0.
         23    2    1    2    0    0  0.11476176623E+03 -0.91049349045E+01  0.11446626023E+03  0.20495133344E+03  0.12509740812E+03 0.  0.
          5    1    4    4  502    0  0.14142576562E+03 -0.13763219974E+02  0.90186086632E+02  0.16834986197E+03  0.41800000000E+01 0. -1.
         -5    1    4    4    0  502 -0.26663999390E+02  0.46582850694E+01  0.24280173602E+02  0.36601471465E+02  0.41800000000E+01 0. -1.
        -11    1    3    3    0    0 -0.56412707347E+02 -0.40302328338E+02 -0.93856227018E+01  0.69962569515E+02  0.00000000000E+00 0.  1.
         11    1    3    3    0    0 -0.58349058881E+02  0.49407263243E+02  0.38982097228E+01  0.76556426069E+02  0.00000000000E+00 0. -1.
</event>
<event>
 8    1  0.5900800E-006  0.1086176E+03  0.7561462E-02  0.1263151E+00
         -2   -1    0    0    0  501 -0.00000000000E+00  0.00000000000E+00  0.63911485944E+02  0.63911485944E+02  0.00000000000E+00 0.  1.
          2   -1    0    0  501    0  0.00000000000E+00 -0.00000000000E+00 -0.62854661949E+03  0.62854661949E+03  0.00000000000E+00 0. -1.
         23    2    1    2    0    0  0.82228610164E+02  0.13952005125E+02 -0.49873455484E+01  0.11310399439E+03  0.76232782671E+02 0.  0.
         23    2    1    2    0    0 -0.82228610164E+02 -0.13952005125E+02 -0.55964778800E+03  0.57935411105E+03  0.12445616337E+03 0.  0.
          5    1    4    4  502    0 -0.56044918227E+02 -0.48409877631E+02 -0.14931543386E+03  0.16672468413E+03  0.41800000000E+01 0.  1.
         -5    1    4    4    0  502 -0.26183691937E+02  0.34457872507E+02 -0.41033235414E+03  0.41262942691E+03  0.41800000000E+01 0.  1.
        -11    1    3    3    0    0  0.47339571589E+02  0.34965280257E+02  0.23532594187E+02  0.63382875060E+02  0.00000000000E+00 0.  1.
         11    1    3    3    0    0  0.34889038576E+02 -0.21013275133E+02 -0.28519939735E+02  0.49721119326E+02  0.00000000000E+00 0. -1.
</event>
<event>
 8    1  0.5900800E-006  0.1111212E+03  0.7561462E-02  0.1258508E+00
         -2   -1    0    0    0  501 -0.00000000000E+00  0.00000000000E+00  0.12436217750E+02  0.12436217750E+02  0.00000000000E+00 0.  1.
          2   -1    0    0  501    0  0.00000000000E+00 -0.00000000000E+00 -0.17174268225E+04  0.17174268225E+04  0.00000000000E+00 0. -1.
         23    2    1    2    0    0  0.42513203148E+02 -0.57667928222E+02 -0.37103003582E+03  0.38813558008E+03  0.88617033675E+02 0.  0.
         23    2    1    2    0    0 -0.42513203148E+02  0.57667928222E+02 -0.13339605689E+04  0.13417274602E+04  0.12509522582E+03 0.  0.
          5    1    4    4  502    0 -0.70332545447E+02 -0.57829294289E+01 -0.51471886355E+03  0.51955085422E+03  0.41800000000E+01 0. -1.
         -5    1    4    4    0  502  0.27819342299E+02  0.63450857651E+02 -0.81924170538E+03  0.82217660595E+03  0.41800000000E+01 0. -1.
        -11    1    3    3    0    0 -0.73707920071E+01 -0.14098652137E+02 -0.57761400475E+01  0.16925258070E+02  0.00000000000E+00 0.  1.
         11    1    3    3    0    0  0.49883995155E+02 -0.43569276085E+02 -0.36525389577E+03  0.37121032201E+03  0.00000000000E+00 0. -1.
</event>
<event>
 8    1  0.5900800E-006  0.1137299E+03  0.7561462E-02  0.1253814E+00
         -4   -1    0    0    0  501 -0.00000000000E+00  0.00000000000E+00  0.66358830500E+02  0.66358830500E+02  0.00000000000E+00 0.  1.
          4   -1    0    0  501    0  0.00000000000E+00 -0.00000000000E+00 -0.30919698888E+03  0.30919698888E+03  0.00000000000E+00 0. -1.
         23    2    1    2    0    0  0.23200236332E+01  0.90191347588E+02 -0.83479061020E+02  0.15378388517E+03  0.92416816756E+02 0.  0.
         23    2    1    2    0    0 -0.23200236332E+01 -0.90191347588E+02 -0.15935909736E+03  0.22177193421E+03  0.12509039613E+03 0.  0.
          5    1    4    4  502    0 -0.28279394960E+02 -0.29311384433E+02 -0.14915945341E+03  0.15467674802E+03  0.41800000000E+01 0.  1.
         -5    1    4    4    0  502  0.25959371327E+02 -0.60879963155E+02 -0.10199643951E+02  0.67095186192E+02  0.41800000000E+01 0.  1.
        -11    1    3    3    0    0 -0.15000853552E+02 -0.10320267852E+02 -0.37946241903E+02  0.42088606658E+02  0.00000000000E+00 0. -1.
         11    1    3    3    0    0  0.17320877185E+02  0.10051161544E+03 -0.45532819117E+02  0.11169527851E+03  0.00000000000E+00 0.  1.
</event>
<event>
 8    1  0.5900800E-006  0.8369237E+02  0.7561462E-02  0.1318888E+00
          4   -1    0    0  501    0  0.00000000000E+00  0.00000000000E+00  0.34852437304E+02  0.34852437304E+02  0.00000000000E+00 0. -1.
         -4   -1    0    0    0  501 -0.00000000000E+00 -0.00000000000E+00 -0.43744071596E+03  0.43744071596E+03  0.00000000000E+00 0.  1.
         23    2    1    2    0    0  0.29206560809E+02  0.50632774713E+02 -0.18780541916E+03  0.21695777525E+03  0.91559268818E+02 0.  0.
         23    2    1    2    0    0 -0.29206560809E+02 -0.50632774713E+02 -0.21478285949E+03  0.25533537801E+03  0.12509107667E+03 0.  0.
          5    1    4    4  502    0 -0.52771868925E+02 -0.47738025153E+01 -0.19126252635E+03  0.19851066905E+03  0.41800000000E+01 0.  1.
         -5    1    4    4    0  502  0.23565308116E+02 -0.45858972198E+02 -0.23520333143E+02  0.56824708963E+02  0.41800000000E+01 0.  1.
        -11    1    3    3    0    0 -0.91629525351E+00  0.18265823268E+02  0.51509245617E+01  0.19000313694E+02  0.00000000000E+00 0. -1.
         11    1    3    3    0    0  0.30122856062E+02  0.32366951445E+02 -0.19295634372E+03  0.19795746156E+03  0.00000000000E+00 0.  1.
</event>
<event>
 8    1  0.5900800E-006  0.5987204E+02  0.7561462E-02  0.1398370E+00
         -2   -1    0    0    0  501 -0.00000000000E+00  0.00000000000E+00  0.16967770449E+03  0.16967770449E+03  0.00000000000E+00 0.  1.
          2   -1    0    0  501    0  0.00000000000E+00 -0.00000000000E+00 -0.19306418574E+03  0.19306418574E+03  0.00000000000E+00 0. -1.
         23    2    1    2    0    0  0.15483489594E+02 -0.20878308916E+02  0.13133212522E+03  0.16209017284E+03  0.91375351082E+02 0.  0.
         23    2    1    2    0    0 -0.15483489594E+02  0.20878308916E+02 -0.15471860646E+03  0.20065171738E+03  0.12509045635E+03 0.  0.
          5    1    4    4  502    0 -0.24439216205E+02  0.91219300164E+01 -0.17400379415E+03  0.17599794793E+03  0.41800000000E+01 0. -1.
         -5    1    4    4    0  502  0.89557266110E+01  0.11756378899E+02  0.19285187690E+02  0.24653769452E+02  0.41800000000E+01 0. -1.
        -11    1    3    3    0    0  0.45298889470E+02 -0.13019901075E+02  0.12053203943E+03  0.12941978110E+03  0.00000000000E+00 0.  1.
         11    1    3    3    0    0 -0.29815399876E+02 -0.78584078405E+01  0.10800085786E+02  0.32670391742E+02  0.00000000000E+00 0. -1.
</event>
<event>
 8    1  0.5900800E-006  0.9277350E+02  0.7561462E-02  0.1296271E+00
          3   -1    0    0  501    0  0.00000000000E+00  0.00000000000E+00  0.42202856935E+02  0.42202856935E+02  0.00000000000E+00 0. -1.
         -3   -1    0    0    0  501 -0.00000000000E+00 -0.00000000000E+00 -0.35563558487E+03  0.35563558487E+03  0.00000000000E+00 0.  1.
         23    2    1    2    0    0 -0.28508411277E+02 -0.25021217296E+02 -0.21294497844E+03  0.23296204596E+03  0.86527222238E+02 0.  0.
         23    2    1    2    0    0  0.28508411277E+02  0.25021217296E+02 -0.10048774950E+03  0.16487639585E+03  0.12509055631E+03 0.  0.
          5    1    4    4  502    0  0.12540961666E+02  0.75362039343E+02 -0.48130504923E+02  0.90392093667E+02  0.41800000000E+01 0. -1.
         -5    1    4    4    0  502  0.15967449611E+02 -0.50340822047E+02 -0.52357244575E+02  0.74484302178E+02  0.41800000000E+01 0. -1.
        -11    1    3    3    0    0 -0.28505390625E+01  0.11262476843E+02  0.33962095795E+01  0.12103850507E+02  0.00000000000E+00 0. -1.
         11    1    3    3    0    0 -0.25657872215E+02 -0.36283694139E+02 -0.21634118802E+03  0.22085819545E+03  0.00000000000E+00 0.  1.
</event>
<event>
 8    1  0.5900800E-006  0.1281166E+03  0.7561462E-02  0.1230277E+00
         -2   -1    0    0    0  501 -0.00000000000E+00  0.00000000000E+00  0.57588457693E+03  0.57588457693E+03  0.00000000000E+00 0.  1.
          2   -1    0    0  501    0  0.00000000000E+00 -0.00000000000E+00 -0.44826819663E+02  0.44826819663E+02  0.00000000000E+00 0. -1.
         23    2    1    2    0    0  0.23751728193E+02  0.49568172207E+02  0.44985478937E+03  0.46731979255E+03  0.11400573977E+03 0.  0.
         23    2    1    2    0    0 -0.23751728193E+02 -0.49568172207E+02  0.81202967891E+02  0.15339160404E+03  0.11795725458E+03 0.  0.
          5    1    4    4  502    0 -0.38086467667E+00 -0.86057875267E+02  0.59816969282E+02  0.10488872755E+03  0.41800000000E+01 0. -1.
         -5    1    4    4    0  502 -0.23370863516E+02  0.36489703061E+02  0.21385998609E+02  0.48502876486E+02  0.41800000000E+01 0.  1.
        -11    1    3    3    0    0  0.69737228871E+02  0.36612051538E+02  0.27552855633E+03  0.28656536561E+03  0.00000000000E+00 0.  1.
         11    1    3    3    0    0 -0.45985500679E+02  0.12956120669E+02  0.17432623304E+03  0.18075442695E+03  0.00000000000E+00 0. -1.
</event>
<event>
 8    1  0.5900800E-006  0.1034529E+03  0.7561462E-02  0.1273198E+00
         -4   -1    0    0    0  501 -0.00000000000E+00  0.00000000000E+00  0.12056680385E+03  0.12056680385E+03  0.00000000000E+00 0.  1.
          4   -1    0    0  501    0  0.00000000000E+00 -0.00000000000E+00 -0.16878040674E+03  0.16878040674E+03  0.00000000000E+00 0. -1.
         23    2    1    2    0    0  0.44994983769E+02 -0.16131835480E+02  0.59269518491E+02  0.11763542037E+03  0.89668453895E+02 0.  0.
         23    2    1    2    0    0 -0.44994983769E+02  0.16131835480E+02 -0.10748312138E+03  0.17171179022E+03  0.12509009889E+03 0.  0.
          5    1    4    4  502    0 -0.73697965919E+02  0.19156647649E+02 -0.11817923998E+03  0.14064911124E+03  0.41800000000E+01 0.  1.
         -5    1    4    4    0  502  0.28702982150E+02 -0.30248121688E+01  0.10696118595E+02  0.31062678988E+02  0.41800000000E+01 0.  1.
        -11    1    3    3    0    0  0.90752670704E+01 -0.50773712997E+02  0.33118523453E+02  0.61295733943E+02  0.00000000000E+00 0.  1.
         11    1    3    3    0    0  0.35919716699E+02  0.34641877517E+02  0.26150995037E+02  0.56339686430E+02  0.00000000000E+00 0. -1.
</event>
<event>
 8    1  0.5900800E-006  0.7823838E+02  0.7561462E-02  0.1334126E+00
          1   -1    0    0  501    0  0.00000000000E+00  0.00000000000E+00  0.96371238827E+02  0.96371238827E+02  0.00000000000E+00 0. -1.
         -1   -1    0    0    0  501 -0.00000000000E+00 -0.00000000000E+00 -0.12672346840E+03  0.12672346840E+03  0.00000000000E+00 0.  1.
         23    2    1    2    0    0  0.23895857102E+02  0.12774707439E+02 -0.22908098482E+02  0.98849297032E+02  0.92261570607E+02 0.  0.
         23    2    1    2    0    0 -0.23895857102E+02 -0.12774707439E+02 -0.74441310880E+01  0.12424541019E+03  0.12102603740E+03 0.  0.
          5    1    4    4  502    0 -0.42259860859E+02  0.12946017729E+01  0.47952938654E+02  0.64066594721E+02  0.41800000000E+01 0. -1.
         -5    1    4    4    0  502  0.18364003757E+02 -0.14069309212E+02 -0.55397069742E+02  0.60178815472E+02  0.41800000000E+01 0.  1.
        -11    1    3    3    0    0  0.45258811449E+02  0.36800749569E+02  0.17084728308E+01  0.58357296562E+02  0.00000000000E+00 0.  1.
         11    1    3    3    0    0 -0.21362954347E+02 -0.24026042130E+02 -0.24616571313E+02  0.40492000470E+02  0.00000000000E+00 0. -1.
</event>
<event>
 8    1  0.5900800E-006  0.1078183E+03  0.7561462E-02  0.1264664E+00
          1   -1    0    0  501    0  0.00000000000E+00  0.00000000000E+00  0.18092431616E+03  0.18092431616E+03  0.00000000000E+00 0. -1.
         -1   -1    0    0    0  501 -0.00000000000E+00 -0.00000000000E+00 -0.12780212785E+03  0.12780212785E+03  0.00000000000E+00 0.  1.
         23    2    1    2    0    0 -0.81436529965E+02  0.49578111415E+01 -0.44070577119E+02  0.13052790374E+03  0.91863102405E+02 0.  0.
         23    2    1    2    0    0  0.81436529965E+02 -0.49578111415E+01  0.97192765426E+02  0.17819854027E+03  0.12510714528E+03 0.  0.
          5    1    4    4  502    0  0.53852524289E+02  0.17791422452E+02  0.12191643255E+03  0.13452775926E+03  0.41800000000E+01 0. -1.
         -5    1    4    4    0  502  0.27584005677E+02 -0.22749233594E+02 -0.24723667123E+02  0.43670781013E+02  0.41800000000E+01 0. -1.
        -11    1    3    3    0    0 -0.82512719509E+02  0.37198829759E+02 -0.30229641879E+02  0.95425012782E+02  0.00000000000E+00 0.  1.
         11    1    3    3    0    0  0.10761895438E+01 -0.32241018618E+02 -0.13840935241E+02  0.35102890960E+02  0.00000000000E+00 0. -1.
</event>
<event>
 8    1  0.5900800E-006  0.1328768E+03  0.7561462E-02  0.1223248E+00
          2   -1    0    0  501    0  0.00000000000E+00  0.00000000000E+00  0.59117540264E+02  0.59117540264E+02  0.00000000000E+00 0. -1.
         -2   -1    0    0    0  501 -0.00000000000E+00 -0.00000000000E+00 -0.31546799128E+03  0.31546799128E+03  0.00000000000E+00 0.  1.
         23    2    1    2    0    0 -0.62106378883E+02 -0.45330236372E+02 -0.15530628675E+03  0.19634481040E+03  0.92299562515E+02 0.  0.
         23    2    1    2    0    0  0.62106378883E+02  0.45330236372E+02 -0.10104416427E+03  0.17824072114E+03  0.12509116241E+03 0.  0.
          5    1    4    4  502    0  0.95887824361E+02  0.93673622423E+01 -0.57335806117E+02  0.11219219848E+03  0.41800000000E+01 0. -1.
         -5    1    4    4    0  502 -0.33781445478E+02  0.35962874130E+02 -0.43708358149E+02  0.66048522666E+02  0.41800000000E+01 0. -1.
        -11    1    3    3    0    0 -0.69394822066E+02 -0.67290774221E+02 -0.13079104080E+03  0.16263451657E+03  0.00000000000E+00 0.  1.
         11    1    3    3    0    0  0.72884431827E+01  0.21960537849E+02 -0.24515245950E+02  0.33710293838E+02  0.00000000000E+00 0. -1.
</event>
<event>
 8    1  0.5900800E-006  0.1068716E+03  0.7561462E-02  0.1266475E+00
         -1   -1    0    0    0  501 -0.00000000000E+00  0.00000000000E+00  0.19458234537E+03  0.19458234537E+03  0.00000000000E+00 0.  1.
          1   -1    0    0  501    0  0.00000000000E+00 -0.00000000000E+00 -0.69395922585E+02  0.69395922585E+02  0.00000000000E+00 0. -1.
         23    2    1    2    0    0  0.28758018523E+02  0.28124581130E+02  0.56231870423E+02  0.11557980165E+03  0.92621010605E+02 0.  0.
         23    2    1    2    0    0 -0.28758018523E+02 -0.28124581130E+02  0.68954552359E+02  0.14839846630E+03  0.12509739732E+03 0.  0.
          5    1    4    4  502    0  0.34622071863E+02  0.26878190693E+02  0.83868738573E+01  0.44821167412E+02  0.41800000000E+01 0. -1.
         -5    1    4    4    0  502 -0.63380090387E+02 -0.55002771823E+02  0.60567678502E+02  0.10357729889E+03  0.41800000000E+01 0. -1.
        -11    1    3    3    0    0 -0.84634413722E+01  0.44303994605E+02 -0.13579474178E+01  0.45125578102E+02  0.00000000000E+00 0.  1.
         11    1    3    3    0    0  0.37221459895E+02 -0.16179413475E+02  0.57589817840E+02  0.70454223550E+02  0.00000000000E+00 0. -1.
</event>
<event>
 8    1  0.5900800E-006  0.1090693E+03  0.7561462E-02  0.1262303E+00
         -2   -1    0    0    0  501 -0.00000000000E+00  0.00000000000E+00  0.69158054482E+02  0.69158054482E+02  0.00000000000E+00 0.  1.
          2   -1    0    0  501    0  0.00000000000E+00 -0.00000000000E+00 -0.19873059589E+03  0.19873059589E+03  0.00000000000E+00 0. -1.
         23    2    1    2    0    0 -0.18321892180E+01  0.47510156161E+02 -0.53676884869E+02  0.11404427746E+03  0.88680986670E+02 0.  0.
         23    2    1    2    0    0  0.18321892180E+01 -0.47510156161E+02 -0.75895656536E+02  0.15384437291E+03  0.12508944215E+03 0.  0.
          5    1    4    4  502    0  0.11554932645E+02 -0.87135229594E+02 -0.69927553723E+02  0.11239839801E+03  0.41800000000E+01 0. -1.
         -5    1    4    4    0  502 -0.97227434274E+01  0.39625073433E+02 -0.59681028130E+01  0.41445974901E+02  0.41800000000E+01 0. -1.
        -11    1    3    3    0    0  0.30897333865E+02  0.47179033754E+02 -0.67049914540E+01  0.56793163112E+02  0.00000000000E+00 0.  1.
         11    1    3    3    0    0 -0.32729523083E+02  0.33112240738E+00 -0.46971893415E+02  0.57251114349E+02  0.00000000000E+00 0. -1.
</event>
<event>
 6    1  0.5900800E-006  0.4262648E+02  0.7561462E-02  0.1489727E+00
          1   -1    0    0  501    0  0.00000000000E+00  0.00000000000E+00  0.49439268325E+02  0.49439268325E+02  0.00000000000E+00 0. -1.
         -1   -1    0    0    0  501 -0.00000000000E+00 -0.00000000000E+00 -0.19531006931E+03  0.19531006931E+03  0.00000000000E+00 0.  1.
          5    1    1    2  502    0  0.34306551696E+02 -0.69952320670E+01 -0.11506211154E+03  0.12034381859E+03  0.41800000000E+01 0.  1.
         -5    1    1    2    0  502  0.56866648696E+01 -0.26459529479E+01  0.40150099422E+02  0.40851463964E+02  0.41800000000E+01 0. -1.
        -11    1    1    2    0    0 -0.11670884337E+02  0.78707934172E+01 -0.13670100706E+02  0.19622196195E+02  0.00000000000E+00 0.  1.
         11    1    1    2    0    0 -0.28322332229E+02  0.17703915977E+01 -0.57288688156E+02  0.63931858881E+02  0.00000000000E+00 0. -1.
</event>
<event>
 8    1  0.5900800E-006  0.1084865E+03  0.7561462E-02  0.1263399E+00
         -2   -1    0    0    0  501 -0.00000000000E+00  0.00000000000E+00  0.19286754978E+02  0.19286754978E+02  0.00000000000E+00 0. -1.
          2   -1    0    0  501    0  0.00000000000E+00 -0.00000000000E+00 -0.10950366786E+04  0.10950366786E+04  0.00000000000E+00 0.  1.
         23    2    1    2    0    0  0.52625877101E+02  0.67537093441E+02 -0.32763007271E+03  0.35100078244E+03  0.92354441126E+02 0.  0.
         23    2    1    2    0    0 -0.52625877101E+02 -0.67537093441E+02 -0.74811985095E+03  0.76332265118E+03  0.12508963381E+03 0.  0.
          5    1    4    4  502    0 -0.24007000173E+02 -0.26019169284E+01 -0.58345393036E+03  0.58396837866E+03  0.41800000000E+01 0. -1.
         -5    1    4    4    0  502 -0.28618876928E+02 -0.64935176513E+02 -0.16466592060E+03  0.17935427252E+03  0.41800000000E+01 0. -1.
        -11    1    3    3    0    0 -0.23770308324E+02  0.10220928374E+02 -0.37540302060E+02  0.45593521616E+02  0.00000000000E+00 0. -1.
         11    1    3    3    0    0  0.76396185425E+02  0.57316165068E+02 -0.29008977065E+03  0.30540726082E+03  0.00000000000E+00 0.  1.
</event>
<event>
 8    1  0.5900800E-006  0.9966082E+02  0.7561462E-02  0.1281011E+00
          2   -1    0    0  501    0  0.00000000000E+00  0.00000000000E+00  0.87834673030E+02  0.87834673030E+02  0.00000000000E+00 0. -1.
         -2   -1    0    0    0  501 -0.00000000000E+00 -0.00000000000E+00 -0.17510513278E+03  0.17510513278E+03  0.00000000000E+00 0.  1.
         23    2    1    2    0    0 -0.81475246417E+01 -0.44516340366E+02 -0.82419570684E+02  0.12982616494E+03  0.89519611005E+02 0.  0.
         23    2    1    2    0    0  0.81475246417E+01  0.44516340366E+02 -0.48508890692E+01  0.13311364087E+03  0.12509046144E+03 0.  0.
          5    1    4    4  502    0  0.66328570161E+02  0.29083266242E+02  0.41424141479E+00  0.72546258283E+02  0.41800000000E+01 0.  1.
         -5    1    4    4    0  502 -0.58181045519E+02  0.15433074124E+02 -0.52651304840E+01  0.60567382589E+02  0.41800000000E+01 0.  1.
        -11    1    3    3    0    0 -0.28685319079E+02 -0.27970254107E+02  0.32427751539E+01  0.40195748981E+02  0.00000000000E+00 0. -1.
         11    1    3    3    0    0  0.20537794437E+02 -0.16546086259E+02 -0.85662345838E+02  0.89630415960E+02  0.00000000000E+00 0.  1.
</event>
<event>
 8    1  0.5900800E-006  0.1903064E+03  0.7561462E-02  0.1158185E+00
          2   -1    0    0  501    0  0.00000000000E+00  0.00000000000E+00  0.15305114070E+04  0.15305114070E+04  0.00000000000E+00 0. -1.
         -2   -1    0    0    0  501 -0.00000000000E+00 -0.00000000000E+00 -0.40522647395E+02  0.40522647395E+02  0.00000000000E+00 0.  1.
         23    2    1    2    0    0 -0.13592869087E+03 -0.87620972392E+02  0.23353014460E+03  0.29805279288E+03  0.90250180622E+02 0.  0.
         23    2    1    2    0    0  0.13592869087E+03  0.87620972392E+02  0.12564586150E+04  0.12729812615E+04  0.12505597607E+03 0.  0.
          5    1    4    4  502    0  0.14076677328E+03  0.33645574740E+02  0.10279585582E+04  0.10381057648E+04  0.41800000000E+01 0.  1.
         -5    1    4    4    0  502 -0.48380824152E+01  0.53975397652E+02  0.22850005688E+03  0.23487549678E+03  0.41800000000E+01 0.  1.
        -11    1    3    3    0    0 -0.19615066759E+02 -0.58305865888E+02  0.52418295638E+02  0.80820805233E+02  0.00000000000E+00 0.  1.
         11    1    3    3    0    0 -0.11631362411E+03 -0.29315106505E+02  0.18111184896E+03  0.21723198764E+03  0.00000000000E+00 0. -1.
</event>
<event>
 8    1  0.5900800E-006  0.1702908E+03  0.7561462E-02  0.1177545E+00
          2   -1    0    0  501    0  0.00000000000E+00  0.00000000000E+00  0.24482899658E+03  0.24482899658E+03  0.00000000000E+00 0. -1.
         -2   -1    0    0    0  501 -0.00000000000E+00 -0.00000000000E+00 -0.13939622975E+03  0.13939622975E+03  0.00000000000E+00 0.  1.
         23    2    1    2    0    0  0.36157964042E+02  0.14297837817E+03  0.25630457244E+02  0.17502107390E+03  0.90693114305E+02 0.  0.
         23    2    1    2    0    0 -0.36157964042E+02 -0.14297837817E+03  0.79802309583E+02  0.20920415243E+03  0.12509098206E+03 0.  0.
          5    1    4    4  502    0 -0.72042550356E+02 -0.52052826547E+02  0.11134265643E+02  0.89672013944E+02  0.41800000000E+01 0. -1.
         -5    1    4    4    0  502  0.35884586315E+02 -0.90925551622E+02  0.68668043940E+02  0.11953213849E+03  0.41800000000E+01 0. -1.
        -11    1    3    3    0    0  0.36678500556E+02  0.56985398188E+02  0.51614833930E+02  0.85186495944E+02  0.00000000000E+00 0. -1.
         11    1    3    3    0    0 -0.52053651468E+00  0.85992979981E+02 -0.25984376686E+02  0.89834577953E+02  0.00000000000E+00 0.  1.
</event>
<event>
 8    1  0.5900800E-006  0.8722151E+02  0.7561462E-02  0.1309723E+00
          2   -1    0    0  501    0  0.00000000000E+00  0.00000000000E+00  0.12422223545E+03  0.12422223545E+03  0.00000000000E+00 0. -1.
         -2   -1    0    0    0  501 -0.00000000000E+00 -0.00000000000E+00 -0.94122774966E+02  0.94122774966E+02  0.00000000000E+00 0.  1.
         23    2    1    2    0    0  0.14226500118E+02 -0.14733682933E+02  0.79628712954E+01  0.89657539194E+02  0.86922910079E+02 0.  0.
         23    2    1    2    0    0 -0.14226500118E+02  0.14733682933E+02  0.22136589192E+02  0.12868747123E+03  0.12510380470E+03 0.  0.
          5    1    4    4  502    0  0.43208146090E+01 -0.49346672996E+02  0.34767540103E+02  0.60663150425E+02  0.41800000000E+01 0. -1.
         -5    1    4    4    0  502 -0.18547314727E+02  0.64080355929E+02 -0.12630950911E+02  0.68024320801E+02  0.41800000000E+01 0. -1.
        -11    1    3    3    0    0  0.11718030189E+02  0.19938703383E+02 -0.30198012279E+02  0.38036614856E+02  0.00000000000E+00 0.  1.
         11    1    3    3    0    0  0.25084699297E+01 -0.34672386316E+02  0.38160883575E+02  0.51620924337E+02  0.00000000000E+00 0. -1.
</event>
<event>
 8    1  0.5900800E-006  0.4598786E+03  0.7561462E-02  0.1024816E+00
         -1   -1    0    0    0  501 -0.00000000000E+00  0.00000000000E+00  0.10474592825E+03  0.10474592825E+03  0.00000000000E+00 0.  1.
          1   -1    0    0  501    0  0.00000000000E+00 -0.00000000000E+00 -0.24032147198E+04  0.24032147198E+04  0.00000000000E+00 0. -1.
         23    2    1    2    0    0  0.43766541177E+03 -0.13051441352E+03 -0.69938919728E+03  0.84024198631E+03  0.90974290211E+02 0.  0.
         23    2    1    2    0    0 -0.43766541177E+03  0.13051441352E+03 -0.15990795943E+04  0.16677186617E+04  0.12507981895E+03 0.  0.
          5    1    4    4  502    0 -0.90825217283E+02  0.20968500063E+02 -0.17983560839E+03  0.20260112669E+03  0.41800000000E+01 0. -1.
         -5    1    4    4    0  502 -0.34684019449E+03  0.10954591346E+03 -0.14192439859E+04  0.14651175350E+04  0.41800000000E+01 0. -1.
        -11    1    3    3    0    0  0.11083657340E+03 -0.17508961256E+00 -0.12921457121E+03  0.17023860335E+03  0.00000000000E+00 0. -1.
         11    1    3    3    0    0  0.32682883837E+03 -0.13033932391E+03 -0.57017462608E+03  0.67000338295E+03  0.00000000000E+00 0.  1.
</event>
<event>
 8    1  0.5900800E-006  0.8293584E+02  0.7561462E-02  0.1320921E+00
         -2   -1    0    0    0  501 -0.00000000000E+00  0.00000000000E+00  0.60928779464E+02  0.60928779464E+02  0.00000000000E+00 0.  1.
          2   -1    0    0  501    0  0.00000000000E+00 -0.00000000000E+00 -0.20042913887E+03  0.20042913887E+03  0.00000000000E+00 0. -1.
         23    2    1    2    0    0 -0.10110712311E+02 -0.43281716259E+01 -0.71635811590E+02  0.11862772517E+03  0.93914259327E+02 0.  0.
         23    2    1    2    0    0  0.10110712311E+02  0.43281716259E+01 -0.67864547818E+02  0.14273019316E+03  0.12508137997E+03 0.  0.
          5    1    4    4  502    0 -0.37282791621E+02  0.29661391117E+02 -0.74387627186E+02  0.88435265321E+02  0.41800000000E+01 0.  1.
         -5    1    4    4    0  502  0.47393503932E+02 -0.25333219491E+02  0.65230793675E+01  0.54294927841E+02  0.41800000000E+01 0.  1.
        -11    1    3    3    0    0  0.20880159731E+02 -0.20436767273E+02 -0.77849818680E+02  0.83151889909E+02  0.00000000000E+00 0.  1.
         11    1    3    3    0    0 -0.30990872042E+02  0.16108595647E+02  0.62140070901E+01  0.35475835265E+02  0.00000000000E+00 0. -1.
</event>
<event>
 8    1  0.5900800E-006  0.2908638E+03  0.7561462E-02  0.1089899E+00
         -1   -1    0    0    0  501 -0.00000000000E+00  0.00000000000E+00  0.52382332244E+03  0.52382332244E+03  0.00000000000E+00 0.  1.
          1   -1    0    0  501    0  0.00000000000E+00 -0.00000000000E+00 -0.17879858276E+03  0.17879858276E+03  0.00000000000E+00 0. -1.
         23    2    1    2    0    0  0.28245442065E+03 -0.27497937091E+02  0.21025332504E+03  0.36446767220E+03  0.89964365738E+02 0.  0.
         23    2    1    2    0    0 -0.28245442065E+03  0.27497937091E+02  0.13477141464E+03  0.33815423300E+03  0.12509322444E+03 0.  0.
          5    1    4    4  502    0 -0.20649998164E+03 -0.17607984620E+02  0.44962656861E+02  0.21211175463E+03  0.41800000000E+01 0.  1.
         -5    1    4    4    0  502 -0.75954439005E+02  0.45105921711E+02  0.89808757783E+02  0.12604247837E+03  0.41800000000E+01 0.  1.
        -11    1    3    3    0    0  0.15925434045E+03 -0.33156602806E+02  0.16863332115E+03  0.23430429416E+03  0.00000000000E+00 0.  1.
         11    1    3    3    0    0  0.12320008020E+03  0.56586657155E+01  0.41620003892E+02  0.13016337804E+03  0.00000000000E+00 0. -1.
</event>
<event>
 8    1  0.5900800E-006  0.6741289E+02  0.7561462E-02  0.1369118E+00
          2   -1    0    0  501    0  0.00000000000E+00  0.00000000000E+00  0.50824357023E+03  0.50824357023E+03  0.00000000000E+00 0. -1.
         -2   -1    0    0    0  501 -0.00000000000E+00 -0.00000000000E+00 -0.37271300427E+02  0.37271300427E+02  0.00000000000E+00 0.  1.
         23    2    1    2    0    0  0.25784986160E+02 -0.47664775873E+01  0.55340963580E+02  0.11067585417E+03  0.92189682857E+02 0.  0.
         23    2    1    2    0    0 -0.25784986160E+02  0.47664775873E+01  0.41563130622E+03  0.43483901649E+03  0.12509197709E+03 0.  0.
          5    1    4    4  502    0  0.18290135610E+02 -0.53592171172E+00  0.37193565659E+03  0.37240894366E+03  0.41800000000E+01 0.  1.
         -5    1    4    4    0  502 -0.44075121770E+02  0.53023992990E+01  0.43695649632E+02  0.62430072835E+02  0.41800000000E+01 0.  1.
        -11    1    3    3    0    0 -0.19328449801E+02  0.12659358562E+02  0.57804487938E+02  0.62251161890E+02  0.00000000000E+00 0. -1.
         11    1    3    3    0    0  0.45113435960E+02 -0.17425836149E+02 -0.24635243576E+01  0.48424692275E+02  0.00000000000E+00 0.  1.
</event>
<event>
 8    1  0.5900800E-006  0.1567017E+03  0.7561462E-02  0.1192472E+00
         -1   -1    0    0    0  501 -0.00000000000E+00  0.00000000000E+00  0.45996706014E+02  0.45996706014E+02  0.00000000000E+00 0.  1.
          1   -1    0    0  501    0  0.00000000000E+00 -0.00000000000E+00 -0.75816954582E+03  0.75816954582E+03  0.00000000000E+00 0. -1.
         23    2    1    2    0    0  0.99597572072E+02  0.10260435608E+03 -0.23248136057E+03  0.28822171970E+03  0.92611265226E+02 0.  0.
         23    2    1    2    0    0 -0.99597572072E+02 -0.10260435608E+03 -0.47969147924E+03  0.51594453213E+03  0.12509002651E+03 0.  0.
          5    1    4    4  502    0 -0.95433035562E+02 -0.91334977590E+02 -0.22506509935E+03  0.26100060106E+03  0.41800000000E+01 0. -1.
         -5    1    4    4    0  502 -0.41645365108E+01 -0.11269378493E+02 -0.25462637988E+03  0.25494393107E+03  0.41800000000E+01 0. -1.
        -11    1    3    3    0    0 -0.34421635089E+01  0.54839933429E+02 -0.96533210316E+02  0.11107622375E+03  0.00000000000E+00 0. -1.
         11    1    3    3    0    0  0.10303973558E+03  0.47764422654E+02 -0.13594815025E+03  0.17714549596E+03  0.00000000000E+00 0.  1.
</event>
<event>
 8    1  0.5900800E-006  0.1430562E+03  0.7561462E-02  0.1209275E+00
         -1   -1    0    0    0  501 -0.00000000000E+00  0.00000000000E+00  0.26300904534E+03  0.26300904534E+03  0.00000000000E+00 0.  1.
          1   -1    0    0  501    0  0.00000000000E+00 -0.00000000000E+00 -0.12234644224E+03  0.12234644224E+03  0.00000000000E+00 0. -1.
         23    2    1    2    0    0 -0.11928319545E+03 -0.57670630870E+02  0.11760414385E+03  0.20168661682E+03  0.96396962466E+02 0.  0.
         23    2    1    2    0    0  0.11928319545E+03  0.57670630870E+02  0.23058459252E+02  0.18366887076E+03  0.12509268229E+03 0.  0.
          5    1    4    4  502    0  0.73974535509E+02  0.20484254354E+02  0.73402656132E+02  0.10628856433E+03  0.41800000000E+01 0. -1.
         -5    1    4    4    0  502  0.45308659938E+02  0.37186376516E+02 -0.50344196880E+02  0.77380306430E+02  0.41800000000E+01 0. -1.
        -11    1    3    3    0    0  0.97997681250E+01 -0.26130900908E+01  0.40120010851E+02  0.41382109248E+02  0.00000000000E+00 0.  1.
         11    1    3    3    0    0 -0.12908296357E+03 -0.55057540779E+02  0.77484132997E+02  0.16030450757E+03  0.00000000000E+00 0. -1.
</event>
<event>
 8    1  0.5900800E-006  0.1013012E+03  0.7561462E-02  0.1277583E+00
         -1   -1    0    0    0  501 -0.00000000000E+00  0.00000000000E+00  0.22255146424E+02  0.22255146424E+02  0.00000000000E+00 0.  1.
          1   -1    0    0  501    0  0.00000000000E+00 -0.00000000000E+00 -0.83889052368E+03  0.83889052368E+03  0.00000000000E+00 0. -1.
         23    2    1    2    0    0  0.20771101930E+02 -0.54325084692E+02 -0.21467999879E+03  0.24358497302E+03  0.99315072866E+02 0.  0.
         23    2    1    2    0    0 -0.20771101930E+02  0.54325084692E+02 -0.60195537847E+03  0.61756069708E+03  0.12509309899E+03 0.  0.
          5    1    4    4  502    0  0.50645544790E+02  0.34544614145E+02 -0.32925817029E+03  0.33494285583E+03  0.41800000000E+01 0. -1.
         -5    1    4    4    0  502 -0.71416646720E+02  0.19780470547E+02 -0.27269720818E+03  0.28261784125E+03  0.41800000000E+01 0. -1.
        -11    1    3    3    0    0  0.21061159524E+02 -0.11290795923E+02  0.74016603759E+00  0.23908206935E+02  0.00000000000E+00 0.  1.
         11    1    3    3    0    0 -0.29005759413E+00 -0.43034288769E+02 -0.21542016483E+03  0.21967676609E+03  0.00000000000E+00 0. -1.
</event>
<event>
 8    1  0.5900800E-006  0.1119567E+03  0.7561462E-02  0.1256989E+00
          2   -1    0    0  501    0  0.00000000000E+00  0.00000000000E+00  0.30404656632E+03  0.30404656632E+03  0.00000000000E+00 0. -1.
         -2   -1    0    0    0  501 -0.00000000000E+00 -0.00000000000E+00 -0.12967645285E+03  0.12967645285E+03  0.00000000000E+00 0.  1.
         23    2    1    2    0    0 -0.32577549062E+02 -0.55296126407E+02 -0.83780860109E+02  0.13976977549E+03  0.91637324943E+02 0.  0.
         23    2    1    2    0    0  0.32577549062E+02  0.55296126407E+02  0.25815097358E+03  0.29395324368E+03  0.12509047130E+03 0.  0.
          5    1    4    4  502    0  0.17669089415E+02  0.80517316507E+02  0.24997597654E+03  0.26325025399E+03  0.41800000000E+01 0. -1.
         -5    1    4    4    0  502  0.14908459647E+02 -0.25221190100E+02  0.81749970375E+01  0.30702989686E+02  0.41800000000E+01 0. -1.
        -11    1    3    3    0    0  0.29698633482E+02 -0.19223107090E+01 -0.19768561013E+02  0.35728141761E+02  0.00000000000E+00 0. -1.
         11    1    3    3    0    0 -0.62276182544E+02 -0.53373815698E+02 -0.64012299096E+02  0.10404163373E+03  0.00000000000E+00 0.  1.
</event>
<event>
 7    1  0.5900800E-006  0.1205767E+03  0.7561462E-02  0.1242149E+00
          1   -1    0    0  501    0  0.00000000000E+00  0.00000000000E+00  0.19415941694E+03  0.19415941694E+03  0.00000000000E+00 0. -1.
         -1   -1    0    0    0  501 -0.00000000000E+00 -0.00000000000E+00 -0.11581996928E+03  0.11581996928E+03  0.00000000000E+00 0.  1.
         23    2    1    2    0    0  0.27579062592E+02 -0.60351376077E+02 -0.30867022894E+02  0.11733429157E+03  0.91715154629E+02 0.  0.
          5    1    1    2  502    0 -0.27317266729E+02  0.10231236987E+03  0.10672094803E+03  0.15040241766E+03  0.41800000000E+01 0. -1.
         -5    1    1    2    0  502 -0.26179586223E+00 -0.41960993789E+02  0.24855225280E+01  0.42242676987E+02  0.41800000000E+01 0.  1.
        -11    1    3    3    0    0  0.47001715092E+02 -0.26447143840E+02 -0.50253462786E+02  0.73715827072E+02  0.00000000000E+00 0.  1.
         11    1    3    3    0    0 -0.19422652501E+02 -0.33904232237E+02  0.19386439892E+02  0.43618464500E+02  0.00000000000E+00 0. -1.
</event>
<event>
 7    1  0.5900800E-006  0.1838886E+03  0.7561462E-02  0.1164092E+00
         -2   -1    0    0    0  501 -0.00000000000E+00  0.00000000000E+00  0.62113056575E+02  0.62113056575E+02  0.00000000000E+00 0.  1.
          2   -1    0    0  501    0  0.00000000000E+00 -0.00000000000E+00 -0.74079712781E+03  0.74079712781E+03  0.00000000000E+00 0. -1.
         23    2    1    2    0    0 -0.82166105798E+02  0.26079613668E+01 -0.74118037332E+02  0.14560228514E+03  0.94596361319E+02 0.  0.
          5    1    1    2  502    0  0.15161539695E+03  0.46630102633E+02 -0.48625545290E+03  0.51149138110E+03  0.41800000000E+01 0. -1.
         -5    1    1    2    0  502 -0.69449291151E+02 -0.49238064000E+02 -0.11831058101E+03  0.14581651815E+03  0.41800000000E+01 0.  1.
        -11    1    3    3    0    0 -0.71802968193E+02  0.41963169600E+02 -0.59905832950E+02  0.10249528119E+03  0.00000000000E+00 0.  1.
         11    1    3    3    0    0 -0.10363137605E+02 -0.39355208233E+02 -0.14212204382E+02  0.43107003950E+02  0.00000000000E+00 0. -1.
</event>
<event>
 7    1  0.5900800E-006  0.1625541E+03  0.7561462E-02  0.1185843E+00
          4   -1    0    0  501    0  0.00000000000E+00  0.00000000000E+00  0.22742486761E+03  0.22742486761E+03  0.00000000000E+00 0. -1.
         -4   -1    0    0    0  501 -0.00000000000E+00 -0.00000000000E+00 -0.15577564691E+03  0.15577564691E+03  0.00000000000E+00 0.  1.
         23    2    1    2    0    0  0.10803808453E+03  0.37612435057E+02  0.61233319139E+02  0.15864241137E+03  0.91274160266E+02 0.  0.
          5    1    1    2  502    0 -0.32793873633E+02  0.52669922020E+02  0.69239783009E+02  0.93065454303E+02  0.41800000000E+01 0. -1.
         -5    1    1    2    0  502 -0.75244210900E+02 -0.90282357077E+02 -0.58823881449E+02  0.13149264885E+03  0.41800000000E+01 0.  1.
        -11    1    3    3    0    0  0.91969847150E+02  0.65656015639E+02  0.55203410027E+02  0.12576399188E+03  0.00000000000E+00 0. -1.
         11    1    3    3    0    0  0.16068237382E+02 -0.28043580582E+02  0.60299091125E+01  0.32878419493E+02  0.00000000000E+00 0.  1.
</event>
<event>
 7    1  0.5900800E-006  0.1497643E+03  0.7561462E-02  0.1200763E+00
         -2   -1    0    0    0  501 -0.00000000000E+00  0.00000000000E+00  0.21359939054E+02  0.21359939054E+02  0.00000000000E+00 0.  1.
          2   -1    0    0  501    0  0.00000000000E+00 -0.00000000000E+00 -0.11359379396E+04  0.11359379396E+04  0.00000000000E+00 0. -1.
         23    2    1    2    0    0  0.61708449396E+02 -0.54179243390E+02 -0.31868380310E+03  0.34153921801E+03  0.91358349026E+02 0.  0.
          5    1    1    2  502    0  0.99873458039E+01  0.94746024256E+02 -0.38177193267E+03  0.39350201672E+03  0.41800000000E+01 0. -1.
         -5    1    1    2    0  502 -0.71695795200E+02 -0.40566780866E+02 -0.41412226481E+03  0.42225664396E+03  0.41800000000E+01 0.  1.
        -11    1    3    3    0    0  0.41373347290E+02  0.19147197783E+02 -0.14279549615E+03  0.14989637344E+03  0.00000000000E+00 0.  1.
         11    1    3    3    0    0  0.20335102106E+02 -0.73326441173E+02 -0.17588830695E+03  0.19164284457E+03  0.00000000000E+00 0. -1.
</event>
<event>
 8    1  0.5900800E-006  0.1238202E+03  0.7561462E-02  0.1236925E+00
          2   -1    0    0  501    0  0.00000000000E+00  0.00000000000E+00  0.93973000355E+03  0.93973000355E+03  0.00000000000E+00 0.  1.
         -2   -1    0    0    0  501 -0.00000000000E+00 -0.00000000000E+00 -0.25738506771E+02  0.25738506771E+02  0.00000000000E+00 0. -1.
         23    2    1    2    0    0  0.51758984198E+02 -0.97639034918E+02  0.44725588226E+03  0.46978375342E+03  0.91905261959E+02 0.  0.
         23    2    1    2    0    0 -0.51758984198E+02  0.97639034918E+02  0.46673561452E+03  0.49568475690E+03  0.12509544668E+03 0.  0.
          5    1    4    4  502    0 -0.43360081552E+02  0.62234438484E+02  0.92653563207E+02  0.11981392732E+03  0.41800000000E+01 0.  1.
         -5    1    4    4    0  502 -0.83989026462E+01  0.35404596433E+02  0.37408205131E+03  0.37587082958E+03  0.41800000000E+01 0.  1.
        -11    1    3    3    0    0  0.29470698590E+02 -0.10691869122E+03  0.41456842172E+03  0.42914695024E+03  0.00000000000E+00 0.  1.
         11    1    3    3    0    0  0.22288285608E+02  0.92796563047E+01  0.32687460536E+02  0.40636803181E+02  0.00000000000E+00 0. -1.
</event>
<event>
 8    1  0.5900800E-006  0.1159587E+03  0.7561462E-02  0.1249917E+00
          1   -1    0    0  501    0  0.00000000000E+00  0.00000000000E+00  0.18360670614E+03  0.18360670614E+03  0.00000000000E+00 0. -1.
         -1   -1    0    0    0  501 -0.00000000000E+00 -0.00000000000E+00 -0.12984649383E+03  0.12984649383E+03  0.00000000000E+00 0.  1.
         23    2    1    2    0    0 -0.63555777853E+02  0.18774455875E+02 -0.63399760685E+02  0.12969610558E+03  0.91704596702E+02 0.  0.
         23    2    1    2    0    0  0.63555777853E+02 -0.18774455875E+02  0.11715997299E+03  0.18375709439E+03  0.12509353850E+03 0.  0.
          5    1    4    4  502    0  0.14987947304E+02 -0.69298149015E+02  0.65219410693E+02  0.96425701721E+02  0.41800000000E+01 0. -1.
         -5    1    4    4    0  502  0.48567830549E+02  0.50523693140E+02  0.51940562299E+02  0.87331392665E+02  0.41800000000E+01 0. -1.
        -11    1    3    3    0    0 -0.22011620149E+02 -0.22955455442E+02 -0.63268450006E+02  0.70812153775E+02  0.00000000000E+00 0.  1.
         11    1    3    3    0    0 -0.41544157705E+02  0.41729911317E+02 -0.13131067922E+00  0.58883951807E+02  0.00000000000E+00 0. -1.
</event>
<event>
 8    1  0.5900800E-006  0.1022136E+03  0.7561462E-02  0.1275709E+00
         -2   -1    0    0    0  501 -0.00000000000E+00  0.00000000000E+00  0.25767640214E+02  0.25767640214E+02  0.00000000000E+00 0.  1.
          2   -1    0    0  501    0  0.00000000000E+00 -0.00000000000E+00 -0.51528169852E+03  0.51528169852E+03  0.00000000000E+00 0. -1.
         23    2    1    2    0    0  0.34078756830E+02  0.92592397170E+01 -0.16999272890E+03  0.19610541304E+03  0.91174064050E+02 0.  0.
         23    2    1    2    0    0 -0.34078756830E+02 -0.92592397170E+01 -0.31952132940E+03  0.34494392570E+03  0.12508132053E+03 0.  0.
          5    1    4    4  502    0 -0.75711144433E+02  0.64934010646E+00 -0.26426054398E+03  0.27492491073E+03  0.41800000000E+01 0.  1.
         -5    1    4    4    0  502  0.41632387603E+02 -0.99085798235E+01 -0.55260785419E+02  0.70019014966E+02  0.41800000000E+01 0.  1.
        -11    1    3    3    0    0 -0.11247376073E+02  0.32693018132E+02 -0.11918475845E+03  0.12409812066E+03  0.00000000000E+00 0. -1.
         11    1    3    3    0    0  0.45326132903E+02 -0.23433778415E+02 -0.50807970451E+02  0.72007292381E+02  0.00000000000E+00 0.  1.
</event>
<event>
 8    1  0.5900800E-006  0.9789271E+02  0.7561462E-02  0.1284791E+00
          2   -1    0    0  501    0  0.00000000000E+00  0.00000000000E+00  0.14466072524E+03  0.14466072524E+03  0.00000000000E+00 0. -1.
         -2   -1    0    0    0  501 -0.00000000000E+00 -0.00000000000E+00 -0.10918803564E+03  0.10918803564E+03  0.00000000000E+00 0.  1.
         23    2    1    2    0    0 -0.95587972667E+01 -0.29580332010E+02 -0.42635472738E+02  0.10313612314E+03  0.88616644678E+02 0.  0.
         23    2    1    2    0    0  0.95587972667E+01  0.29580332010E+02  0.78108162339E+02  0.15071263773E+03  0.12508815891E+03 0.  0.
          5    1    4    4  502    0 -0.49691857833E+01  0.66962955144E+02  0.86441506348E+02  0.10953691884E+03  0.41800000000E+01 0.  1.
         -5    1    4    4    0  502  0.14527983050E+02 -0.37382623133E+02 -0.83333440093E+01  0.41175718891E+02  0.41800000000E+01 0.  1.
        -11    1    3    3    0    0  0.32076832453E+02 -0.33480706067E+02 -0.45764871812E+01  0.46592114073E+02  0.00000000000E+00 0.  1.
         11    1    3    3    0    0 -0.41635629719E+02  0.39003740564E+01 -0.38058985557E+02  0.56544009068E+02  0.00000000000E+00 0. -1.
</event>
<event>
 8    1  0.5900800E-006  0.9879093E+02  0.7561462E-02  0.1282859E+00
          2   -1    0    0  501    0  0.00000000000E+00  0.00000000000E+00  0.78713114665E+03  0.78713114665E+03  0.00000000000E+00 0. -1.
         -2   -1    0    0    0  501 -0.00000000000E+00 -0.00000000000E+00 -0.19344141325E+02  0.19344141325E+02  0.00000000000E+00 0.  1.
         23    2    1    2    0    0  0.11956688387E+02 -0.15451142208E+02  0.14302232207E+03  0.16901116581E+03  0.87907277083E+02 0.  0.
         23    2    1    2    0    0 -0.11956688387E+02  0.15451142208E+02  0.62476468326E+03  0.63746412217E+03  0.12509155614E+03 0.  0.
          5    1    4    4  502    0 -0.58537876847E+02 -0.15599980521E+02  0.20028247895E+03  0.20928589582E+03  0.41800000000E+01 0.  1.
         -5    1    4    4    0  502  0.46581188460E+02  0.31051122728E+02  0.42448220431E+03  0.42817822635E+03  0.41800000000E+01 0.  1.
        -11    1    3    3    0    0 -0.31114580490E+02 -0.20637711300E+02  0.29828763809E+02  0.47788988242E+02  0.00000000000E+00 0.  1.
         11    1    3    3    0    0  0.43071268877E+02  0.51865690924E+01  0.11319355826E+03  0.12122217756E+03  0.00000000000E+00 0. -1.
</event>
<event>
 8    1  0.5900800E-006  0.1517053E+03  0.7561462E-02  0.1198393E+00
          2   -1    0    0  501    0  0.00000000000E+00  0.00000000000E+00  0.45079087426E+03  0.45079087426E+03  0.00000000000E+00 0. -1.
         -2   -1    0    0    0  501 -0.00000000000E+00 -0.00000000000E+00 -0.52288731317E+02  0.52288731317E+02  0.00000000000E+00 0.  1.
         23    2    1    2    0    0  0.10613764960E+03  0.20765526673E+02  0.20245296405E+03  0.24660578978E+03  0.90170977263E+02 0.  0.
         23    2    1    2    0    0 -0.10613764960E+03 -0.20765526673E+02  0.19604917889E+03  0.25647381579E+03  0.12508848821E+03 0.  0.
          5    1    4    4  502    0  0.27084894905E+02 -0.97323989974E+01  0.54240556592E+02  0.61545280093E+02  0.41800000000E+01 0. -1.
         -5    1    4    4    0  502 -0.13322254451E+03 -0.11033127676E+02  0.14180862230E+03  0.19492853570E+03  0.41800000000E+01 0. -1.
        -11    1    3    3    0    0  0.54044991122E+02 -0.34909290162E+02  0.85740667847E+02  0.10719599679E+03  0.00000000000E+00 0.  1.
         11    1    3    3    0    0  0.52092658481E+02  0.55674816836E+02  0.11671229620E+03  0.13940979299E+03  0.00000000000E+00 0. -1.
</event>
<event>
 8    1  0.5900800E-006  0.1102890E+03  0.7561462E-02  0.1260036E+00
         -1   -1    0    0    0  501 -0.00000000000E+00  0.00000000000E+00  0.58593018193E+02  0.58593018193E+02  0.00000000000E+00 0.  1.
          1   -1    0    0  501    0  0.00000000000E+00 -0.00000000000E+00 -0.64210664423E+03  0.64210664423E+03  0.00000000000E+00 0. -1.
         23    2    1    2    0    0  0.81100015553E+01 -0.10625829381E+03 -0.59041853155E+02  0.15108558248E+03  0.89354998064E+02 0.  0.
         23    2    1    2    0    0 -0.81100015553E+01  0.10625829381E+03 -0.52447177288E+03  0.54961407995E+03  0.12509356177E+03 0.  0.
          5    1    4    4  502    0  0.86756844450E+00  0.34655470335E+02 -0.20511604348E+02  0.40496328378E+02  0.41800000000E+01 0.  1.
         -5    1    4    4    0  502 -0.89775699998E+01  0.71602823479E+02 -0.50396016853E+03  0.50911775157E+03  0.41800000000E+01 0.  1.
        -11    1    3    3    0    0  0.23822962492E+02 -0.64726450050E+02  0.92888262665E+01  0.69594031148E+02  0.00000000000E+00 0.  1.
         11    1    3    3    0    0 -0.15712960937E+02 -0.41531843764E+02 -0.68330679422E+02  0.81491551329E+02  0.00000000000E+00 0. -1.
</event>
<event>
 7    1  0.5900800E-006  0.1175575E+03  0.7561462E-02  0.1247182E+00
          2   -1    0    0  501    0  0.00000000000E+00  0.00000000000E+00  0.26830662120E+04  0.26830662120E+04  0.00000000000E+00 0. -1.
         -2   -1    0    0    0  501 -0.00000000000E+00 -0.00000000000E+00 -0.22812806735E+02  0.22812806735E+02  0.00000000000E+00 0.  1.
         23    2    1    2    0    0  0.28695569294E+01 -0.10308990033E+02  0.83821470371E+02  0.12484921458E+03  0.91906353724E+02 0.  0.
          5    1    1    2  502    0  0.21620520079E+02  0.72647873393E+02  0.18342504638E+04  0.18358206331E+04  0.41800000000E+01 0. -1.
         -5    1    1    2    0  502 -0.24490077009E+02 -0.62338883360E+02  0.74218147104E+03  0.74520917104E+03  0.41800000000E+01 0.  1.
        -11    1    3    3    0    0  0.14352582526E+02  0.38953051153E+02  0.31829452064E+02  0.52311096700E+02  0.00000000000E+00 0. -1.
         11    1    3    3    0    0 -0.11483025597E+02 -0.49262041186E+02  0.51992018306E+02  0.72538117885E+02  0.00000000000E+00 0.  1.
</event>
<event>
 8    1  0.5900800E-006  0.1537562E+03  0.7561462E-02  0.1195932E+00
          2   -1    0    0  501    0  0.00000000000E+00  0.00000000000E+00  0.15203879519E+04  0.15203879519E+04  0.00000000000E+00 0. -1.
         -2   -1    0    0    0  501 -0.00000000000E+00 -0.00000000000E+00 -0.23716944900E+02  0.23716944900E+02  0.00000000000E+00 0.  1.
         23    2    1    2    0    0  0.69893744044E+02  0.12359209716E+03  0.44708739824E+03  0.47760035784E+03  0.89748639041E+02 0.  0.
         23    2    1    2    0    0 -0.69893744044E+02 -0.12359209716E+03  0.10495836087E+04  0.10665045389E+04  0.12508412329E+03 0.  0.
          5    1    4    4  502    0 -0.45166138337E+01 -0.91338811965E+02  0.83143033452E+03  0.83645505075E+03  0.41800000000E+01 0.  1.
         -5    1    4    4    0  502 -0.65377130210E+02 -0.32253285198E+02  0.21815327423E+03  0.23004948820E+03  0.41800000000E+01 0.  1.
        -11    1    3    3    0    0  0.23349832832E+02  0.57953813009E+02  0.32786059484E+03  0.33376103545E+03  0.00000000000E+00 0. -1.
         11    1    3    3    0    0  0.46543911212E+02  0.65638284155E+02  0.11922680339E+03  0.14383932239E+03  0.00000000000E+00 0.  1.
</event>
<event>
 8    1  0.5900800E-006  0.9703222E+02  0.7561462E-02  0.1286664E+00
         -2   -1    0    0    0  501 -0.00000000000E+00  0.00000000000E+00  0.20829059353E+02  0.20829059353E+02  0.00000000000E+00 0.  1.
          2   -1    0    0  501    0  0.00000000000E+00 -0.00000000000E+00 -0.65879684674E+03  0.65879684674E+03  0.00000000000E+00 0. -1.
         23    2    1    2    0    0  0.34629589472E+02  0.22247517595E+01 -0.19738854687E+03  0.22032027921E+03  0.91512999117E+02 0.  0.
         23    2    1    2    0    0 -0.34629589472E+02 -0.22247517595E+01 -0.44057924052E+03  0.45930562689E+03  0.12508970272E+03 0.  0.
          5    1    4    4  502    0 -0.40848065418E+02  0.54168802456E+02 -0.30097527555E+03  0.30855536375E+03  0.41800000000E+01 0. -1.
         -5    1    4    4    0  502  0.62184759456E+01 -0.56393554216E+02 -0.13960396497E+03  0.15075026313E+03  0.41800000000E+01 0. -1.
        -11    1    3    3    0    0  0.63290678510E+01 -0.27465385152E+02 -0.16677042625E+03  0.16913538823E+03  0.00000000000E+00 0. -1.
         11    1    3    3    0    0  0.28300521621E+02  0.29690136912E+02 -0.30618120625E+02  0.51184890979E+02  0.00000000000E+00 0.  1.
</event>
<event>
 8    1  0.5900800E-006  0.9690187E+02  0.7561462E-02  0.1286949E+00
         -1   -1    0    0    0  501 -0.00000000000E+00  0.00000000000E+00  0.43878010307E+03  0.43878010307E+03  0.00000000000E+00 0.  1.
          1   -1    0    0  501    0  0.00000000000E+00 -0.00000000000E+00 -0.36000921210E+02  0.36000921210E+02  0.00000000000E+00 0. -1.
         23    2    1    2    0    0  0.25910037109E+02 -0.32716580534E+02  0.29103541292E+03  0.30197362387E+03  0.68882169498E+02 0.  0.
         23    2    1    2    0    0 -0.25910037109E+02  0.32716580534E+02  0.11174376895E+03  0.17280740042E+03  0.12503608709E+03 0.  0.
          5    1    4    4  502    0  0.11006082621E+02  0.67186932943E+02  0.99557024233E+02  0.12068260557E+03  0.41800000000E+01 0. -1.
         -5    1    4    4    0  502 -0.36916119730E+02 -0.34470352410E+02  0.12186744713E+02  0.52124794847E+02  0.41800000000E+01 0. -1.
        -11    1    3    3    0    0 -0.82440162977E+01 -0.39278442134E+02  0.20983475341E+03  0.21363844121E+03  0.00000000000E+00 0.  1.
         11    1    3    3    0    0  0.34154053407E+02  0.65618616007E+01  0.81200659504E+02  0.88335182661E+02  0.00000000000E+00 0. -1.
</event>
<event>
 8    1  0.5900800E-006  0.1040192E+03  0.7561462E-02  0.1272064E+00
          3   -1    0    0  501    0  0.00000000000E+00  0.00000000000E+00  0.14871347581E+03  0.14871347581E+03  0.00000000000E+00 0. -1.
         -3   -1    0    0    0  501 -0.00000000000E+00 -0.00000000000E+00 -0.13494871277E+03  0.13494871277E+03  0.00000000000E+00 0.  1.
         23    2    1    2    0    0 -0.58082533294E+02  0.28455120293E+01 -0.63317372106E+02  0.12564007629E+03  0.91622385628E+02 0.  0.
         23    2    1    2    0    0  0.58082533294E+02 -0.28455120293E+01  0.77082135144E+02  0.15802211228E+03  0.12509058637E+03 0.  0.
          5    1    4    4  502    0  0.89060108665E+02  0.42173515428E+01  0.18362670594E+02  0.91127103985E+02  0.41800000000E+01 0.  1.
         -5    1    4    4    0  502 -0.30977575371E+02 -0.70628635721E+01  0.58719464550E+02  0.66895008295E+02  0.41800000000E+01 0.  1.
        -11    1    3    3    0    0 -0.47075243872E+02  0.31093693042E+02 -0.10983101271E+01  0.56427853208E+02  0.00000000000E+00 0. -1.
         11    1    3    3    0    0 -0.11007289423E+02 -0.28248181013E+02 -0.62219061979E+02  0.69212223086E+02  0.00000000000E+00 0.  1.
</event>
<event>
 8    1  0.5900800E-006  0.1174978E+03  0.7561462E-02  0.1247283E+00
          1   -1    0    0  501    0  0.00000000000E+00  0.00000000000E+00  0.11630817690E+04  0.11630817690E+04  0.00000000000E+00 0. -1.
         -1   -1    0    0    0  501 -0.00000000000E+00 -0.00000000000E+00 -0.18086891175E+02  0.18086891175E+02  0.00000000000E+00 0.  1.
         23    2    1    2    0    0 -0.58872768097E+02 -0.13629470591E+02  0.21961570478E+03  0.24542008662E+03  0.91368461967E+02 0.  0.
         23    2    1    2    0    0  0.58872768097E+02  0.13629470591E+02  0.92537917302E+03  0.93574857352E+03  0.12508802380E+03 0.  0.
          5    1    4    4  502    0  0.56214863754E+01  0.56761638233E+02  0.62556871194E+03  0.62817765834E+03  0.41800000000E+01 0.  1.
         -5    1    4    4    0  502  0.53251281722E+02 -0.43132167642E+02  0.29981046108E+03  0.30757091518E+03  0.41800000000E+01 0.  1.
        -11    1    3    3    0    0 -0.67474513244E+02 -0.42016006354E+02  0.15028497427E+03  0.17001096500E+03  0.00000000000E+00 0. -1.
         11    1    3    3    0    0  0.86017451467E+01  0.28386535764E+02  0.69330730506E+02  0.75409121628E+02  0.00000000000E+00 0.  1.
</event>
<event>
 8    1  0.5900800E-006  0.1901501E+03  0.7561462E-02  0.1158326E+00
          1   -1    0    0  501    0  0.00000000000E+00  0.00000000000E+00  0.11474794486E+04  0.11474794486E+04  0.00000000000E+00 0. -1.
         -1   -1    0    0    0  501 -0.00000000000E+00 -0.00000000000E+00 -0.32688724739E+02  0.32688724739E+02  0.00000000000E+00 0.  1.
         23    2    1    2    0    0  0.13503642699E+03 -0.84820429366E+02  0.52916927156E+03  0.56046688200E+03  0.93132518522E+02 0.  0.
         23    2    1    2    0    0 -0.13503642699E+03  0.84820429366E+02  0.58562145232E+03  0.61970129135E+03  0.12509141953E+03 0.  0.
          5    1    4    4  502    0 -0.13267107972E+03  0.21294197095E+02  0.33163376139E+03  0.35784561241E+03  0.41800000000E+01 0. -1.
         -5    1    4    4    0  502 -0.23653472653E+01  0.63526232272E+02  0.25398769093E+03  0.26185567895E+03  0.41800000000E+01 0. -1.
        -11    1    3    3    0    0  0.38916318938E+02  0.16704704180E+02  0.87728022285E+02  0.97415260178E+02  0.00000000000E+00 0.  1.
         11    1    3    3    0    0  0.96120108051E+02 -0.10152513355E+03  0.44144124928E+03  0.46305162183E+03  0.00000000000E+00 0. -1.
</event>
<event>
 8    1  0.5900800E-006  0.1000876E+03  0.7561462E-02  0.1280112E+00
         -1   -1    0    0    0  501 -0.00000000000E+00  0.00000000000E+00  0.22008814469E+02  0.22008814469E+02  0.00000000000E+00 0.  1.
          1   -1    0    0  501    0  0.00000000000E+00 -0.00000000000E+00 -0.61009325187E+03  0.61009325187E+03  0.00000000000E+00 0. -1.
         23    2    1    2    0    0 -0.17647365979E+02 -0.17678454516E+02 -0.28437349524E+03  0.30269084468E+03  0.10064544390E+03 0.  0.
         23    2    1    2    0    0  0.17647365979E+02  0.17678454516E+02 -0.30371094216E+03  0.32941122166E+03  0.12508980488E+03 0.  0.
          5    1    4    4  502    0 -0.51803053584E+02  0.54007686565E+01 -0.17438817364E+03  0.18204788427E+03  0.41800000000E+01 0.  1.
         -5    1    4    4    0  502  0.69450419563E+02  0.12277685859E+02 -0.12932276853E+03  0.14736333739E+03  0.41800000000E+01 0.  1.
        -11    1    3    3    0    0  0.20454343979E+02  0.16351466526E+02 -0.18769862338E+02  0.32218913348E+02  0.00000000000E+00 0.  1.
         11    1    3    3    0    0 -0.38101709958E+02 -0.34029921041E+02 -0.26560363290E+03  0.27047193133E+03  0.00000000000E+00 0. -1.
</event>
<event>
 8    1  0.5900800E-006  0.1109485E+03  0.7561462E-02  0.1258823E+00
         -1   -1    0    0    0  501 -0.00000000000E+00  0.00000000000E+00  0.10804418296E+02  0.10804418296E+02  0.00000000000E+00 0.  1.
          1   -1    0    0  501    0  0.00000000000E+00 -0.00000000000E+00 -0.15474378203E+04  0.15474378203E+04  0.00000000000E+00 0. -1.
         23    2    1    2    0    0 -0.32685075445E+02 -0.21966389535E+02 -0.32041192382E+03  0.33497072734E+03  0.89390999670E+02 0.  0.
         23    2    1    2    0    0  0.32685075445E+02  0.21966389535E+02 -0.12162214781E+04  0.12232715112E+04  0.12509064644E+03 0.  0.
          5    1    4    4  502    0  0.79969295826E+02  0.39207948420E+01 -0.71249741710E+03  0.71699407437E+03  0.41800000000E+01 0. -1.
         -5    1    4    4    0  502 -0.47284220381E+02  0.18045594693E+02 -0.50372406105E+03  0.50627743685E+03  0.41800000000E+01 0. -1.
        -11    1    3    3    0    0 -0.58469800029E+02 -0.27427109373E+02 -0.16230850041E+03  0.17468546920E+03  0.00000000000E+00 0.  1.
         11    1    3    3    0    0  0.25784724584E+02  0.54607198380E+01 -0.15810342341E+03  0.16028525814E+03  0.00000000000E+00 0. -1.
</event>
<event>
 8    1  0.5900800E-006  0.1455404E+03  0.7561462E-02  0.1206062E+00
         -2   -1    0    0    0  501 -0.00000000000E+00  0.00000000000E+00  0.19507246906E+03  0.19507246906E+03  0.00000000000E+00 0. -1.
          2   -1    0    0  501    0  0.00000000000E+00 -0.00000000000E+00 -0.11358130246E+03  0.11358130246E+03  0.00000000000E+00 0.  1.
         23    2    1    2    0    0  0.73232805892E+02  0.68502535716E+02  0.52288573902E+02  0.14569219690E+03  0.91850313108E+02 0.  0.
         23    2    1    2    0    0 -0.73232805892E+02 -0.68502535716E+02  0.29202592701E+02  0.16296157462E+03  0.12509213454E+03 0.  0.
          5    1    4    4  502    0 -0.10354481824E+03 -0.74753507692E+02  0.31637580759E+02  0.13163595715E+03  0.41800000000E+01 0. -1.
         -5    1    4    4    0  502  0.30312012352E+02  0.62509719761E+01 -0.24349880584E+01  0.31325617477E+02  0.41800000000E+01 0. -1.
        -11    1    3    3    0    0  0.64777838495E+02  0.17653910175E+01  0.83362955264E+01  0.65335892039E+02  0.00000000000E+00 0. -1.
         11    1    3    3    0    0  0.84549673976E+01  0.66737144698E+02  0.43952278375E+02  0.80356304859E+02  0.00000000000E+00 0.  1.
</event>
<event>
 8    1  0.5900800E-006  0.1054082E+03  0.7561462E-02  0.1269317E+00
          1   -1    0    0  501    0  0.00000000000E+00  0.00000000000E+00  0.17331287237E+03  0.17331287237E+03  0.00000000000E+00 0. -1.
         -1   -1    0    0    0  501 -0.00000000000E+00 -0.00000000000E+00 -0.68505749634E+02  0.68505749634E+02  0.00000000000E+00 0.  1.
         23    2    1    2    0    0 -0.74328633081E+01 -0.55518913631E+01  0.18424347992E+02  0.92046198085E+02  0.89704933133E+02 0.  0.
         23    2    1    2    0    0  0.74328633081E+01  0.55518913631E+01  0.86382774749E+02  0.14977242392E+03  0.12199886983E+03 0.  0.
          5    1    4    4  502    0  0.51443129669E+02  0.40216866158E+02  0.38231464107E+02  0.75781984412E+02  0.41800000000E+01 0. -1.
         -5    1    4    4    0  502 -0.44010266361E+02 -0.34664974795E+02  0.48151310641E+02  0.73990439512E+02  0.41800000000E+01 0.  1.
        -11    1    3    3    0    0  0.40655964168E+02 -0.61210871656E+01  0.15243047558E+02  0.43848895418E+02  0.00000000000E+00 0.  1.
         11    1    3    3    0    0 -0.48088827476E+02  0.56919580252E+00  0.31813004334E+01  0.48197302667E+02  0.00000000000E+00 0. -1.
</event>
<event>
 8    1  0.5900800E-006  0.1384309E+03  0.7561462E-02  0.1215456E+00
         -1   -1    0    0    0  501 -0.00000000000E+00  0.00000000000E+00  0.40645320315E+03  0.40645320315E+03  0.00000000000E+00 0.  1.
          1   -1    0    0  501    0  0.00000000000E+00 -0.00000000000E+00 -0.60292352038E+02  0.60292352038E+02  0.00000000000E+00 0. -1.
         23    2    1    2    0    0  0.99490289396E+02  0.97252253950E+01  0.25415931259E+03  0.28807013488E+03  0.91621769999E+02 0.  0.
         23    2    1    2    0    0 -0.99490289396E+02 -0.97252253950E+01  0.92001538523E+02  0.17867542031E+03  0.11605052796E+03 0.  0.
          5    1    4    4  502    0 -0.12163160431E+03 -0.15797998659E+02  0.94931631618E+02  0.15515576371E+03  0.41800000000E+01 0. -1.
         -5    1    4    4    0  502  0.22141314918E+02  0.60727732643E+01 -0.29300930945E+01  0.23519656608E+02  0.41800000000E+01 0.  1.
        -11    1    3    3    0    0  0.10426428875E+03 -0.15249818916E+02  0.23002888143E+03  0.25301558287E+03  0.00000000000E+00 0.  1.
         11    1    3    3    0    0 -0.47739993507E+01  0.24975044311E+02  0.24130431165E+02  0.35054552006E+02  0.00000000000E+00 0. -1.
</event>
<event>
 8    1  0.5900800E-006  0.1142484E+03  0.7561462E-02  0.1252899E+00
         -2   -1    0    0    0  501 -0.00000000000E+00  0.00000000000E+00  0.86297943302E+03  0.86297943302E+03  0.00000000000E+00 0.  1.
          2   -1    0    0  501    0  0.00000000000E+00 -0.00000000000E+00 -0.15264486141E+02  0.15264486141E+02  0.00000000000E+00 0. -1.
         23    2    1    2    0    0  0.22915046833E+02 -0.31054225294E+02  0.39552772329E+03  0.40748478627E+03  0.90067790437E+02 0.  0.
         23    2    1    2    0    0 -0.22915046833E+02  0.31054225294E+02  0.45218722359E+03  0.47075913288E+03  0.12510560235E+03 0.  0.
          5    1    4    4  502    0 -0.55329123266E+02  0.63595044178E+02  0.30967768634E+03  0.32097255855E+03  0.41800000000E+01 0.  1.
         -5    1    4    4    0  502  0.32414076433E+02 -0.32540818884E+02  0.14250953725E+03  0.14978657434E+03  0.41800000000E+01 0.  1.
        -11    1    3    3    0    0 -0.20474583928E+02  0.21591935562E+02  0.11748267520E+03  0.12119240587E+03  0.00000000000E+00 0.  1.
         11    1    3    3    0    0  0.43389630761E+02 -0.52646160856E+02  0.27804504809E+03  0.28629238040E+03  0.00000000000E+00 0. -1.
</event>
<event>
 7    1  0.5900800E-006  0.1211073E+03  0.7561462E-02  0.1241281E+00
         -2   -1    0    0    0  501 -0.00000000000E+00  0.00000000000E+00  0.71527267321E+02  0.71527267321E+02  0.00000000000E+00 0.  1.
          2   -1    0    0  501    0  0.00000000000E+00 -0.00000000000E+00 -0.13883553658E+04  0.13883553658E+04  0.00000000000E+00 0. -1.
         23    2    1    2    0    0  0.27740735176E+02 -0.52993697803E+02  0.22077100124E+02  0.11078497279E+03  0.90598186799E+02 0.  0.
          5    1    1    2  502    0 -0.54876700485E+02  0.82746688327E+02 -0.12078555027E+04  0.12119368195E+04  0.41800000000E+01 0. -1.
         -5    1    1    2    0  502  0.27135965309E+02 -0.29752990523E+02 -0.13104969594E+03  0.13716084086E+03  0.41800000000E+01 0.  1.
        -11    1    3    3    0    0  0.52452573522E+02 -0.10950278627E+02  0.29949970626E+02  0.61385517930E+02  0.00000000000E+00 0. -1.
         11    1    3    3    0    0 -0.24711838346E+02 -0.42043419177E+02 -0.78728705019E+01  0.49399454860E+02  0.00000000000E+00 0.  1.
</event>
<event>
 8    1  0.5900800E-006  0.1648710E+03  0.7561462E-02  0.1183305E+00
          2   -1    0    0  501    0  0.00000000000E+00  0.00000000000E+00  0.83356618647E+03  0.83356618647E+03  0.00000000000E+00 0. -1.
         -2   -1    0    0    0  501 -0.00000000000E+00 -0.00000000000E+00 -0.42930033204E+02  0.42930033204E+02  0.00000000000E+00 0.  1.
         23    2    1    2    0    0 -0.12082895802E+02 -0.15350929649E+03  0.35933596441E+03  0.40175676692E+03  0.92601641296E+02 0.  0.
         23    2    1    2    0    0  0.12082895802E+02  0.15350929649E+03  0.43130018886E+03  0.47473945275E+03  0.12508634861E+03 0.  0.
          5    1    4    4  502    0  0.17691023209E+02  0.16236069398E+03  0.28891941516E+03  0.33191244042E+03  0.41800000000E+01 0. -1.
         -5    1    4    4    0  502 -0.56081274069E+01 -0.88513974923E+01  0.14238077370E+03  0.14282701233E+03  0.41800000000E+01 0. -1.
        -11    1    3    3    0    0 -0.16315372259E+02 -0.92373797307E+02  0.10796154804E+03  0.14302029806E+03  0.00000000000E+00 0.  1.
         11    1    3    3    0    0  0.42324764578E+01 -0.61135499186E+02  0.25137441637E+03  0.25873646887E+03  0.00000000000E+00 0. -1.
</event>
<event>
 8    1  0.5900800E-006  0.1039818E+03  0.7561462E-02  0.1272139E+00
          4   -1    0    0  501    0  0.00000000000E+00  0.00000000000E+00  0.21027302590E+03  0.21027302590E+03  0.00000000000E+00 0. -1.
         -4   -1    0    0    0  501 -0.00000000000E+00 -0.00000000000E+00 -0.14330333830E+03  0.14330333830E+03  0.00000000000E+00 0.  1.
         23    2    1    2    0    0  0.38858489238E+02  0.45228184166E+02 -0.91954013395E+02  0.14272137261E+03  0.91423622715E+02 0.  0.
         23    2    1    2    0    0 -0.38858489238E+02 -0.45228184166E+02  0.15892370099E+03  0.21085499159E+03  0.12509002323E+03 0.  0.
          5    1    4    4  502    0 -0.40048628335E+02 -0.66299546998E+02  0.16985012505E+03  0.18672455635E+03  0.41800000000E+01 0. -1.
         -5    1    4    4    0  502  0.11901390963E+01  0.21071362832E+02 -0.10926424053E+02  0.24130435248E+02  0.41800000000E+01 0. -1.
        -11    1    3    3    0    0 -0.34959842943E-01  0.65171118850E+02 -0.59923388556E+02  0.88532979450E+02  0.00000000000E+00 0. -1.
         11    1    3    3    0    0  0.38893449081E+02 -0.19942934684E+02 -0.32030624839E+02  0.54188393156E+02  0.00000000000E+00 0.  1.
</event>
<event>
 8    1  0.5900800E-006  0.1030874E+03  0.7561462E-02  0.1273934E+00
          3   -1    0    0  501    0  0.00000000000E+00  0.00000000000E+00  0.35119092181E+03  0.35119092181E+03  0.00000000000E+00 0. -1.
         -3   -1    0    0    0  501 -0.00000000000E+00 -0.00000000000E+00 -0.39008728968E+02  0.39008728968E+02  0.00000000000E+00 0.  1.
         23    2    1    2    0    0 -0.27279234080E+02  0.10984864259E+02  0.79253709516E+02  0.12417720667E+03  0.90961554123E+02 0.  0.
         23    2    1    2    0    0  0.27279234080E+02 -0.10984864259E+02  0.23292848332E+03  0.26602244411E+03  0.12508972209E+03 0.  0.
          5    1    4    4  502    0 -0.33051192783E+02 -0.44446487620E+02  0.72444337827E+02  0.91288148680E+02  0.41800000000E+01 0.  1.
         -5    1    4    4    0  502  0.60330426864E+02  0.33461623361E+02  0.16048414550E+03  0.17473429543E+03  0.41800000000E+01 0.  1.
        -11    1    3    3    0    0 -0.12820014262E+02 -0.32899259537E+02  0.68001630373E+02  0.76622031930E+02  0.00000000000E+00 0. -1.
         11    1    3    3    0    0 -0.14459219818E+02  0.43884123796E+02  0.11252079143E+02  0.47555174736E+02  0.00000000000E+00 0.  1.
</event>
<event>
 8    1  0.5900800E-006  0.1006897E+03  0.7561462E-02  0.1278852E+00
          2   -1    0    0  501    0  0.00000000000E+00  0.00000000000E+00  0.44243932519E+03  0.44243932519E+03  0.00000000000E+00 0. -1.
         -2   -1    0    0    0  501 -0.00000000000E+00 -0.00000000000E+00 -0.35280363077E+02  0.35280363077E+02  0.00000000000E+00 0.  1.
         23    2    1    2    0    0  0.44986526825E+02 -0.55163346250E+01  0.94943243366E+02  0.13833787329E+03  0.89827224054E+02 0.  0.
         23    2    1    2    0    0 -0.44986526825E+02  0.55163346250E+01  0.31221571875E+03  0.33938181498E+03  0.12508854369E+03 0.  0.
          5    1    4    4  502    0 -0.46847263158E+01  0.44747363662E+02  0.25525589126E+03  0.25922445031E+03  0.41800000000E+01 0.  1.
         -5    1    4    4    0  502 -0.40301800509E+02 -0.39231029037E+02  0.56959827489E+02  0.80157364672E+02  0.41800000000E+01 0.  1.
        -11    1    3    3    0    0 -0.25899628077E+02  0.90361937645E+01  0.34322102313E+02  0.43936889278E+02  0.00000000000E+00 0.  1.
         11    1    3    3    0    0  0.70886154902E+02 -0.14552528389E+02  0.60621141053E+02  0.94400984009E+02  0.00000000000E+00 0. -1.
</event>
<event>
 8    1  0.5900800E-006  0.1439583E+03  0.7561462E-02  0.1208100E+00
         -1   -1    0    0    0  501 -0.00000000000E+00  0.00000000000E+00  0.16966678718E+02  0.16966678718E+02  0.00000000000E+00 0.  1.
          1   -1    0    0  501    0  0.00000000000E+00 -0.00000000000E+00 -0.13515404864E+04  0.13515404864E+04  0.00000000000E+00 0. -1.
         23    2    1    2    0    0 -0.35300029896E+01 -0.95019196924E+02 -0.40345700802E+03  0.42422588848E+03  0.90271470775E+02 0.  0.
         23    2    1    2    0    0  0.35300029896E+01  0.95019196924E+02 -0.93111679964E+03  0.94428127662E+03  0.12509007187E+03 0.  0.
          5    1    4    4  502    0 -0.55583702210E+02  0.76687315435E+02 -0.53447349552E+03  0.54281661923E+03  0.41800000000E+01 0.  1.
         -5    1    4    4    0  502  0.59113705200E+02  0.18331881489E+02 -0.39664330413E+03  0.40146465738E+03  0.41800000000E+01 0.  1.
        -11    1    3    3    0    0  0.24388348819E+02 -0.99816015577E+02 -0.31240809004E+03  0.32887207732E+03  0.00000000000E+00 0. -1.
         11    1    3    3    0    0 -0.27918351809E+02  0.47968186526E+01 -0.91048917981E+02  0.95353811159E+02  0.00000000000E+00 0.  1.
</event>
<event>
 8    1  0.5900800E-006  0.1126964E+03  0.7561462E-02  0.1255656E+00
         -2   -1    0    0    0  501 -0.00000000000E+00  0.00000000000E+00  0.45686990286E+02  0.45686990286E+02  0.00000000000E+00 0.  1.
          2   -1    0    0  501    0  0.00000000000E+00 -0.00000000000E+00 -0.50915253319E+03  0.50915253319E+03  0.00000000000E+00 0. -1.
         23    2    1    2    0    0  0.37437502197E+02 -0.13331539656E+02 -0.38545379367E+02  0.11297259565E+03  0.98477228726E+02 0.  0.
         23    2    1    2    0    0 -0.37437502197E+02  0.13331539656E+02 -0.42492016353E+03  0.44186692782E+03  0.11449864629E+03 0.  0.
          5    1    4    4  502    0 -0.21853128799E+01  0.60374863905E+02 -0.25220227959E+03  0.25937108940E+03  0.41800000000E+01 0. -1.
         -5    1    4    4    0  502 -0.35252189317E+02 -0.47043324249E+02 -0.17271788394E+03  0.18249583842E+03  0.41800000000E+01 0.  1.
        -11    1    3    3    0    0  0.13363827302E+02 -0.55639594586E+02 -0.25004845846E+02  0.62446766783E+02  0.00000000000E+00 0.  1.
         11    1    3    3    0    0  0.24073674894E+02  0.42308054930E+02 -0.13540533520E+02  0.50525828869E+02  0.00000000000E+00 0. -1.
</event>
<event>
 8    1  0.5900800E-006  0.1233401E+03  0.7561462E-02  0.1237686E+00
         -2   -1    0    0    0  501 -0.00000000000E+00  0.00000000000E+00  0.85100162076E+02  0.85100162076E+02  0.00000000000E+00 0.  1.
          2   -1    0    0  501    0  0.00000000000E+00 -0.00000000000E+00 -0.34306164219E+03  0.34306164219E+03  0.00000000000E+00 0. -1.
         23    2    1    2    0    0  0.10687625556E+03 -0.12122564663E+02 -0.23971915603E+02  0.14186132537E+03  0.89333601307E+02 0.  0.
         23    2    1    2    0    0 -0.10687625556E+03  0.12122564663E+02 -0.23398956451E+03  0.28630047890E+03  0.12508939739E+03 0.  0.
          5    1    4    4  502    0 -0.10328506015E+03  0.51531275385E+01 -0.24855314019E+03  0.26924058808E+03  0.41800000000E+01 0.  1.
         -5    1    4    4    0  502 -0.35911954081E+01  0.69694371246E+01  0.14563575672E+02  0.17059890816E+02  0.41800000000E+01 0.  1.
        -11    1    3    3    0    0  0.60317273391E+02 -0.46716795570E+02  0.60788338837E+01  0.76534859241E+02  0.00000000000E+00 0.  1.
         11    1    3    3    0    0  0.46558982168E+02  0.34594230907E+02 -0.30050749487E+02  0.65326466131E+02  0.00000000000E+00 0. -1.
</event>
<event>
 8    1  0.5900800E-006  0.1032304E+03  0.7561462E-02  0.1273646E+00
          1   -1    0    0  501    0  0.00000000000E+00  0.00000000000E+00  0.10909507337E+03  0.10909507337E+03  0.00000000000E+00 0. -1.
         -1   -1    0    0    0  501 -0.00000000000E+00 -0.00000000000E+00 -0.15493284012E+03  0.15493284012E+03  0.00000000000E+00 0.  1.
         23    2    1    2    0    0 -0.41271849860E+02  0.29895945093E+02 -0.70831856643E+02  0.12666220040E+03  0.91809737892E+02 0.  0.
         23    2    1    2    0    0  0.41271849860E+02 -0.29895945093E+02  0.24994089898E+02  0.13736571309E+03  0.12508997353E+03 0.  0.
          5    1    4    4  502    0 -0.41195108451E+02 -0.26135058674E+02  0.24394640037E+02  0.54705110499E+02  0.41800000000E+01 0.  1.
         -5    1    4    4    0  502  0.82466958311E+02 -0.37608864195E+01  0.59944986100E+00  0.82660602586E+02  0.41800000000E+01 0.  1.
        -11    1    3    3    0    0 -0.17841713955E+01 -0.14966290419E+02  0.15527164126E+02  0.21639453373E+02  0.00000000000E+00 0. -1.
         11    1    3    3    0    0 -0.39487678465E+02  0.44862235512E+02 -0.86359020770E+02  0.10502274703E+03  0.00000000000E+00 0.  1.
</event>
<event>
 8    1  0.5900800E-006  0.1096316E+03  0.7561462E-02  0.1261254E+00
         -2   -1    0    0    0  501 -0.00000000000E+00  0.00000000000E+00  0.29404783221E+02  0.29404783221E+02  0.00000000000E+00 0.  1.
          2   -1    0    0  501    0  0.00000000000E+00 -0.00000000000E+00 -0.76259304725E+03  0.76259304725E+03  0.00000000000E+00 0. -1.
         23    2    1    2    0    0  0.70590636327E+02 -0.53330831264E+02 -0.20504139605E+03  0.24207579905E+03  0.93442511162E+02 0.  0.
         23    2    1    2    0    0 -0.70590636327E+02  0.53330831264E+02 -0.52814686798E+03  0.54992203142E+03  0.12509161036E+03 0.  0.
          5    1    4    4  502    0 -0.70747287677E+02  0.44284855546E+02 -0.53252078236E+03  0.53903820198E+03  0.41800000000E+01 0.  1.
         -5    1    4    4    0  502  0.15665134998E+00  0.90459757185E+01  0.43739143796E+01  0.10883829443E+02  0.41800000000E+01 0.  1.
        -11    1    3    3    0    0  0.34755566845E+02  0.22812409786E+02 -0.45046278885E+02  0.61298635452E+02  0.00000000000E+00 0.  1.
         11    1    3    3    0    0  0.35835069482E+02 -0.76143241051E+02 -0.15999511716E+03  0.18077716360E+03  0.00000000000E+00 0. -1.
</event>
<event>
 8    1  0.5900800E-006  0.2437241E+03  0.7561462E-02  0.1117337E+00
         -1   -1    0    0    0  501 -0.00000000000E+00  0.00000000000E+00  0.34903162021E+03  0.34903162021E+03  0.00000000000E+00 0.  1.
          1   -1    0    0  501    0  0.00000000000E+00 -0.00000000000E+00 -0.18078348530E+03  0.18078348530E+03  0.00000000000E+00 0. -1.
         23    2    1    2    0    0  0.22101542548E+03  0.43855961562E+02  0.94015396639E+02  0.26161618553E+03  0.93983881943E+02 0.  0.
         23    2    1    2    0    0 -0.22101542548E+03 -0.43855961562E+02  0.74232738279E+02  0.26819891998E+03  0.12509595349E+03 0.  0.
          5    1    4    4  502    0 -0.11664576188E+03 -0.82466084593E+02  0.63292511372E+02  0.15630196182E+03  0.41800000000E+01 0.  1.
         -5    1    4    4    0  502 -0.10436966360E+03  0.38610123031E+02  0.10940226908E+02  0.11189695816E+03  0.41800000000E+01 0.  1.
        -11    1    3    3    0    0  0.14565757872E+03  0.57489446553E+02  0.98344109723E+02  0.18491276489E+03  0.00000000000E+00 0. -1.
         11    1    3    3    0    0  0.75357846758E+02 -0.13633484992E+02 -0.43287130847E+01  0.76703420641E+02  0.00000000000E+00 0.  1.
</event>
<event>
 7    1  0.5900800E-006  0.1817356E+03  0.7561462E-02  0.1166134E+00
          2   -1    0    0  501    0  0.00000000000E+00  0.00000000000E+00  0.25867586697E+03  0.25867586697E+03  0.00000000000E+00 0. -1.
         -2   -1    0    0    0  501 -0.00000000000E+00 -0.00000000000E+00 -0.43577815818E+03  0.43577815818E+03  0.00000000000E+00 0.  1.
         23    2    1    2    0    0  0.49078309103E+02  0.12954219593E+03 -0.30536466909E+03  0.34763087585E+03  0.91704873174E+02 0.  0.
          5    1    1    2  502    0  0.44173480730E+02  0.62576845191E+01  0.17084400326E+03  0.17662276429E+03  0.41800000000E+01 0. -1.
         -5    1    1    2    0  502 -0.93251789833E+02 -0.13579988045E+03 -0.42581625383E+02  0.17020038501E+03  0.41800000000E+01 0.  1.
        -11    1    3    3    0    0  0.63564872280E+02  0.12194087307E+03 -0.21097741924E+03  0.25183633761E+03  0.00000000000E+00 0.  1.
         11    1    3    3    0    0 -0.14486563177E+02  0.76013228662E+01 -0.94387249850E+02  0.95794538238E+02  0.00000000000E+00 0. -1.
</event>
<event>
 8    1  0.5900800E-006  0.1600068E+03  0.7561462E-02  0.1188689E+00
          2   -1    0    0  501    0  0.00000000000E+00  0.00000000000E+00  0.22687758815E+04  0.22687758815E+04  0.00000000000E+00 0. -1.
         -2   -1    0    0    0  501 -0.00000000000E+00 -0.00000000000E+00 -0.12970418051E+02  0.12970418051E+02  0.00000000000E+00 0.  1.
         23    2    1    2    0    0  0.13113810066E+03 -0.63385476993E+00  0.82361919027E+03  0.83813827399E+03  0.83244174116E+02 0.  0.
         23    2    1    2    0    0 -0.13113810066E+03  0.63385476993E+00  0.14321862731E+04  0.14436080255E+04  0.12509599183E+03 0.  0.
          5    1    4    4  502    0 -0.97016112145E+02 -0.45805870519E+02  0.60865431036E+03  0.61805165294E+03  0.41800000000E+01 0.  1.
         -5    1    4    4    0  502 -0.34121988516E+02  0.46439725289E+02  0.82353196279E+03  0.82555637259E+03  0.41800000000E+01 0.  1.
        -11    1    3    3    0    0  0.67196632524E+02  0.40857759300E+02  0.38589744462E+03  0.39382938144E+03  0.00000000000E+00 0.  1.
         11    1    3    3    0    0  0.63941468138E+02 -0.41491614070E+02  0.43772174565E+03  0.44430889255E+03  0.00000000000E+00 0. -1.
</event>
<event>
 8    1  0.5900800E-006  0.1007787E+03  0.7561462E-02  0.1278667E+00
         -3   -1    0    0    0  501 -0.00000000000E+00  0.00000000000E+00  0.43841029750E+02  0.43841029750E+02  0.00000000000E+00 0.  1.
          3   -1    0    0  501    0  0.00000000000E+00 -0.00000000000E+00 -0.28215397148E+03  0.28215397148E+03  0.00000000000E+00 0. -1.
         23    2    1    2    0    0 -0.10264616339E+02 -0.76543307465E+01 -0.62078258619E+02  0.10950232603E+03  0.89292206184E+02 0.  0.
         23    2    1    2    0    0  0.10264616339E+02  0.76543307465E+01 -0.17623468312E+03  0.21649267520E+03  0.12508582556E+03 0.  0.
          5    1    4    4  502    0  0.65892123841E+02  0.19076620597E+02 -0.10002902208E+03  0.12136295603E+03  0.41800000000E+01 0.  1.
         -5    1    4    4    0  502 -0.55627507502E+02 -0.11422289851E+02 -0.76205661037E+02  0.95129719175E+02  0.41800000000E+01 0.  1.
        -11    1    3    3    0    0 -0.70168657402E+00 -0.41099255623E+02 -0.33451542773E+01  0.41241135217E+02  0.00000000000E+00 0.  1.
         11    1    3    3    0    0 -0.95629297651E+01  0.33444924877E+02 -0.58733104342E+02  0.68261190814E+02  0.00000000000E+00 0. -1.
</event>
<event>
 8    1  0.5900800E-006  0.2142604E+03  0.7561462E-02  0.1138236E+00
          1   -1    0    0  501    0  0.00000000000E+00  0.00000000000E+00  0.33493116305E+04  0.33493116305E+04  0.00000000000E+00 0. -1.
         -1   -1    0    0    0  501 -0.00000000000E+00 -0.00000000000E+00 -0.17559093845E+02  0.17559093845E+02  0.00000000000E+00 0.  1.
         23    2    1    2    0    0 -0.11544413735E+03 -0.15587525821E+03  0.94604578922E+03  0.97002533437E+03  0.91225374986E+02 0.  0.
         23    2    1    2    0    0  0.11544413735E+03  0.15587525821E+03  0.23857067474E+04  0.23968453899E+04  0.12508674484E+03 0.  0.
          5    1    4    4  502    0  0.68290068036E+02  0.16116492969E+03  0.20906224633E+04  0.20979412347E+04  0.41800000000E+01 0. -1.
         -5    1    4    4    0  502  0.47154069314E+02 -0.52896714810E+01  0.29508428413E+03  0.29890415524E+03  0.41800000000E+01 0. -1.
        -11    1    3    3    0    0 -0.85111436998E+02 -0.15332186731E+03  0.87999905858E+03  0.89730145147E+03  0.00000000000E+00 0.  1.
         11    1    3    3    0    0 -0.30332700351E+02 -0.25533909007E+01  0.66046730636E+02  0.72723882896E+02  0.00000000000E+00 0. -1.
</event>
<event>
 8    1  0.5900800E-006  0.8909027E+02  0.7561462E-02  0.1305070E+00
          2   -1    0    0  501    0  0.00000000000E+00  0.00000000000E+00  0.81615518808E+02  0.81615518808E+02  0.00000000000E+00 0. -1.
         -2   -1    0    0    0  501 -0.00000000000E+00 -0.00000000000E+00 -0.15071444857E+03  0.15071444857E+03  0.00000000000E+00 0.  1.
         23    2    1    2    0    0  0.12288070078E+02 -0.54482939144E+01 -0.47316431643E+02  0.10465661571E+03  0.92376847397E+02 0.  0.
         23    2    1    2    0    0 -0.12288070078E+02  0.54482939144E+01 -0.21782498115E+02  0.12767335167E+03  0.12508128129E+03 0.  0.
          5    1    4    4  502    0 -0.12972438479E+02 -0.39922717328E+02 -0.56411399850E+02  0.70440229642E+02  0.41800000000E+01 0. -1.
         -5    1    4    4    0  502  0.68436840153E+00  0.45371011243E+02  0.34628901735E+02  0.57233122024E+02  0.41800000000E+01 0. -1.
        -11    1    3    3    0    0 -0.33088215134E+02  0.19739476527E+02 -0.33233186232E+02  0.50881446338E+02  0.00000000000E+00 0.  1.
         11    1    3    3    0    0  0.45376285212E+02 -0.25187770442E+02 -0.14083245411E+02  0.53775169370E+02  0.00000000000E+00 0. -1.
</event>
<event>
 8    1  0.5900800E-006  0.1164019E+03  0.7561462E-02  0.1249154E+00
         -2   -1    0    0    0  501 -0.00000000000E+00  0.00000000000E+00  0.16498867598E+03  0.16498867598E+03  0.00000000000E+00 0.  1.
          2   -1    0    0  501    0  0.00000000000E+00 -0.00000000000E+00 -0.17407586987E+03  0.17407586987E+03  0.00000000000E+00 0. -1.
         23    2    1    2    0    0 -0.26958321820E+02  0.93899175549E+02  0.80478306836E+02  0.15682033986E+03  0.92585392149E+02 0.  0.
         23    2    1    2    0    0  0.26958321820E+02 -0.93899175549E+02 -0.89565500723E+02  0.18224420599E+03  0.12508863023E+03 0.  0.
          5    1    4    4  502    0  0.23950129949E+02 -0.68607039274E+02 -0.12122381653E+03  0.14139738561E+03  0.41800000000E+01 0.  1.
         -5    1    4    4    0  502  0.30081918712E+01 -0.25292136275E+02  0.31658315806E+02  0.40846820382E+02  0.41800000000E+01 0.  1.
        -11    1    3    3    0    0 -0.49454414776E+02  0.14288452267E+02  0.25122420097E+02  0.57280319487E+02  0.00000000000E+00 0.  1.
         11    1    3    3    0    0  0.22496092956E+02  0.79610723282E+02  0.55355886739E+02  0.99540020376E+02  0.00000000000E+00 0. -1.
</event>
<event>
 8    1  0.5900800E-006  0.2397155E+03  0.7561462E-02  0.1119983E+00
          1   -1    0    0  501    0  0.00000000000E+00  0.00000000000E+00  0.51857026751E+03  0.51857026751E+03  0.00000000000E+00 0. -1.
         -1   -1    0    0    0  501 -0.00000000000E+00 -0.00000000000E+00 -0.18014385160E+03  0.18014385160E+03  0.00000000000E+00 0.  1.
         23    2    1    2    0    0  0.19380943081E+03  0.11205250505E+03 -0.33992200447E+02  0.24654130943E+03  0.97515579275E+02 0.  0.
         23    2    1    2    0    0 -0.19380943081E+03 -0.11205250505E+03  0.37241861636E+03  0.45217280969E+03  0.12508702831E+03 0.  0.
          5    1    4    4  502    0 -0.16732970375E+03 -0.31059222636E+02  0.22987736776E+03  0.28605066278E+03  0.41800000000E+01 0. -1.
         -5    1    4    4    0  502 -0.26479727062E+02 -0.80993282414E+02  0.14254124860E+03  0.16612214691E+03  0.41800000000E+01 0. -1.
        -11    1    3    3    0    0  0.13975563099E+03  0.81723750458E+02 -0.68282865223E+02  0.17570702167E+03  0.00000000000E+00 0.  1.
         11    1    3    3    0    0  0.54053799824E+02  0.30328754592E+02  0.34290664776E+02  0.70834287752E+02  0.00000000000E+00 0. -1.
</event>
<event>
 8    1  0.5900800E-006  0.9378773E+02  0.7561462E-02  0.1293930E+00
         -2   -1    0    0    0  501 -0.00000000000E+00  0.00000000000E+00  0.36104156348E+02  0.36104156348E+02  0.00000000000E+00 0.  1.
          2   -1    0    0  501    0  0.00000000000E+00 -0.00000000000E+00 -0.42484930390E+03  0.42484930390E+03  0.00000000000E+00 0. -1.
         23    2    1    2    0    0 -0.43106433008E+02  0.21731527628E+01 -0.10209533155E+03  0.14523580106E+03  0.93846118873E+02 0.  0.
         23    2    1    2    0    0  0.43106433008E+02 -0.21731527628E+01 -0.28664981601E+03  0.31571765919E+03  0.12508651464E+03 0.  0.
          5    1    4    4  502    0 -0.21261644930E+02  0.17776921282E+02 -0.21667345604E+03  0.21847868415E+03  0.41800000000E+01 0. -1.
         -5    1    4    4    0  502  0.64368077938E+02 -0.19950074045E+02 -0.69976359970E+02  0.97238975038E+02  0.41800000000E+01 0. -1.
        -11    1    3    3    0    0 -0.22035614988E+01 -0.36008092137E+02 -0.74657190182E+02  0.82916430389E+02  0.00000000000E+00 0. -1.
         11    1    3    3    0    0 -0.40902871509E+02  0.38181244899E+02 -0.27438141364E+02  0.62319370675E+02  0.00000000000E+00 0.  1.
</event>
<event>
 8    1  0.5900800E-006  0.1605170E+03  0.7561462E-02  0.1188114E+00
         -3   -1    0    0    0  501 -0.00000000000E+00  0.00000000000E+00  0.94411753563E+02  0.94411753563E+02  0.00000000000E+00 0.  1.
          3   -1    0    0  501    0  0.00000000000E+00 -0.00000000000E+00 -0.33293074853E+03  0.33293074853E+03  0.00000000000E+00 0. -1.
         23    2    1    2    0    0 -0.11602929296E+03  0.72409510573E+02 -0.85469824928E+02  0.18697427787E+03  0.94595748137E+02 0.  0.
         23    2    1    2    0    0  0.11602929296E+03 -0.72409510573E+02 -0.15304917004E+03  0.24036822422E+03  0.12508757221E+03 0.  0.
          5    1    4    4  502    0  0.30549639419E+02 -0.91387587374E+02 -0.66292266566E+02  0.11703464701E+03  0.41800000000E+01 0. -1.
         -5    1    4    4    0  502  0.85479653538E+02  0.18978076801E+02 -0.86756903471E+02  0.12333357721E+03  0.41800000000E+01 0. -1.
        -11    1    3    3    0    0 -0.29460574713E+02  0.21777396778E+02 -0.78279666047E+02  0.86428505653E+02  0.00000000000E+00 0. -1.
         11    1    3    3    0    0 -0.86568718244E+02  0.50632113795E+02 -0.71901588809E+01  0.10054577222E+03  0.00000000000E+00 0.  1.
</event>
<event>
 8    1  0.5900800E-006  0.1352443E+03  0.7561462E-02  0.1219875E+00
          1   -1    0    0  501    0  0.00000000000E+00  0.00000000000E+00  0.10996699237E+04  0.10996699237E+04  0.00000000000E+00 0. -1.
         -1   -1    0    0    0  501 -0.00000000000E+00 -0.00000000000E+00 -0.23172144100E+02  0.23172144100E+02  0.00000000000E+00 0.  1.
         23    2    1    2    0    0  0.69397749729E+02 -0.63959223956E+02  0.25421356555E+03  0.28575851783E+03  0.90147454778E+02 0.  0.
         23    2    1    2    0    0 -0.69397749729E+02  0.63959223956E+02  0.82228421402E+03  0.83708354995E+03  0.12510280159E+03 0.  0.
          5    1    4    4  502    0 -0.65047203188E+02 -0.12644340738E+02  0.55549229395E+03  0.55944631470E+03  0.41800000000E+01 0. -1.
         -5    1    4    4    0  502 -0.43505465410E+01  0.76603564695E+02  0.26679192008E+03  0.27763723525E+03  0.41800000000E+01 0. -1.
        -11    1    3    3    0    0  0.14897802482E+02 -0.70775870490E+02  0.17508618733E+03  0.18943690601E+03  0.00000000000E+00 0.  1.
         11    1    3    3    0    0  0.54499947247E+02  0.68166465331E+01  0.79127378221E+02  0.96321611822E+02  0.00000000000E+00 0. -1.
</event>
<event>
 8    1  0.5900800E-006  0.1062242E+03  0.7561462E-02  0.1267726E+00
          1   -1    0    0  501    0  0.00000000000E+00  0.00000000000E+00  0.49160583388E+03  0.49160583388E+03  0.00000000000E+00 0.  1.
         -1   -1    0    0    0  501 -0.00000000000E+00 -0.00000000000E+00 -0.37587484923E+02  0.37587484923E+02  0.00000000000E+00 0. -1.
         23    2    1    2    0    0  0.39247951988E+02 -0.68977901578E+02  0.17813330664E+03  0.21605098208E+03  0.92995694967E+02 0.  0.
         23    2    1    2    0    0 -0.39247951988E+02  0.68977901578E+02  0.27588504232E+03  0.31314233673E+03  0.12508882377E+03 0.  0.
          5    1    4    4  502    0  0.13674011493E+02  0.24217263852E+02 -0.54053483697E+00  0.28128615975E+02  0.41800000000E+01 0.  1.
         -5    1    4    4    0  502 -0.52921963481E+02  0.44760637726E+02  0.27642557716E+03  0.28501372075E+03  0.41800000000E+01 0.  1.
        -11    1    3    3    0    0 -0.61350598370E+01 -0.69231421666E+02  0.14179166783E+03  0.15790980265E+03  0.00000000000E+00 0.  1.
         11    1    3    3    0    0  0.45383011825E+02  0.25352008795E+00  0.36341638803E+02  0.58141179431E+02  0.00000000000E+00 0. -1.
</event>
<event>
 8    1  0.5900800E-006  0.1044428E+03  0.7561462E-02  0.1271221E+00
          2   -1    0    0  501    0  0.00000000000E+00  0.00000000000E+00  0.29097056368E+03  0.29097056368E+03  0.00000000000E+00 0.  1.
         -2   -1    0    0    0  501 -0.00000000000E+00 -0.00000000000E+00 -0.47147490057E+02  0.47147490057E+02  0.00000000000E+00 0. -1.
         23    2    1    2    0    0 -0.57731797119E+01 -0.32051409561E+02  0.55039537029E+02  0.10932223356E+03  0.88664410310E+02 0.  0.
         23    2    1    2    0    0  0.57731797119E+01  0.32051409561E+02  0.18878353660E+03  0.22879582018E+03  0.12509069183E+03 0.  0.
          5    1    4    4  502    0  0.57351903527E+02 -0.16899214438E+01  0.13553049991E+03  0.14723479711E+03  0.41800000000E+01 0. -1.
         -5    1    4    4    0  502 -0.51578723815E+02  0.33741331005E+02  0.53253036688E+02  0.81561023074E+02  0.41800000000E+01 0. -1.
        -11    1    3    3    0    0 -0.16744046031E+02 -0.58551825928E+02  0.52717258449E+02  0.80546810833E+02  0.00000000000E+00 0.  1.
         11    1    3    3    0    0  0.10970866319E+02  0.26500416367E+02  0.23222785794E+01  0.28775422728E+02  0.00000000000E+00 0. -1.
</event>
<event>
 8    1  0.5900800E-006  0.1076281E+03  0.7561462E-02  0.1265026E+00
          1   -1    0    0  501    0  0.00000000000E+00  0.00000000000E+00  0.22419693978E+03  0.22419693978E+03  0.00000000000E+00 0. -1.
         -1   -1    0    0    0  501 -0.00000000000E+00 -0.00000000000E+00 -0.60508553309E+02  0.60508553309E+02  0.00000000000E+00 0.  1.
         23    2    1    2    0    0 -0.30886452294E+02  0.24754438750E+02  0.47860579142E+02  0.10968957965E+03  0.90412464156E+02 0.  0.
         23    2    1    2    0    0  0.30886452294E+02 -0.24754438750E+02  0.11582780733E+03  0.17501591344E+03  0.12509090228E+03 0.  0.
          5    1    4    4  502    0 -0.40863071042E+02 -0.15049770823E+01  0.83065345231E+02  0.92678905417E+02  0.41800000000E+01 0.  1.
         -5    1    4    4    0  502  0.71749523337E+02 -0.23249461668E+02  0.32762462095E+02  0.82337008019E+02  0.41800000000E+01 0.  1.
        -11    1    3    3    0    0  0.32285125645E+02  0.83708914832E+01  0.18329930810E+02  0.38057686814E+02  0.00000000000E+00 0.  1.
         11    1    3    3    0    0 -0.63171577939E+02  0.16383547267E+02  0.29530648332E+02  0.71631892836E+02  0.00000000000E+00 0. -1.
</event>
<event>
 8    1  0.5900800E-006  0.1233692E+03  0.7561462E-02  0.1237640E+00
          2   -1    0    0  501    0  0.00000000000E+00  0.00000000000E+00  0.13687728281E+03  0.13687728281E+03  0.00000000000E+00 0. -1.
         -2   -1    0    0    0  501 -0.00000000000E+00 -0.00000000000E+00 -0.12849759274E+03  0.12849759274E+03  0.00000000000E+00 0.  1.
         23    2    1    2    0    0 -0.66002798438E+02 -0.82449083184E+01 -0.34647547978E+02  0.11731009820E+03  0.90204537823E+02 0.  0.
         23    2    1    2    0    0  0.66002798438E+02  0.82449083184E+01  0.43027238046E+02  0.14806477735E+03  0.12508991631E+03 0.  0.
          5    1    4    4  502    0  0.96787645826E+02 -0.16039475698E+02  0.14198155582E+02  0.99217806805E+02  0.41800000000E+01 0.  1.
         -5    1    4    4    0  502 -0.30784847388E+02  0.24284384016E+02  0.28829082464E+02  0.48846970546E+02  0.41800000000E+01 0.  1.
        -11    1    3    3    0    0  0.19462298708E+02  0.97537121653E+01  0.34168336557E+01  0.22036123167E+02  0.00000000000E+00 0. -1.
         11    1    3    3    0    0 -0.85465097145E+02 -0.17998620484E+02 -0.38064381634E+02  0.95273975033E+02  0.00000000000E+00 0.  1.
</event>
<event>
 7    1  0.5900800E-006  0.1132566E+03  0.7561462E-02  0.1254655E+00
         -2   -1    0    0    0  501 -0.00000000000E+00  0.00000000000E+00  0.92934082456E+02  0.92934082456E+02  0.00000000000E+00 0.  1.
          2   -1    0    0  501    0  0.00000000000E+00 -0.00000000000E+00 -0.99575856765E+03  0.99575856765E+03  0.00000000000E+00 0. -1.
         23    2    1    2    0    0  0.28680336071E+02 -0.33057032656E+02  0.55476856220E+02  0.11820493974E+03  0.94759680870E+02 0.  0.
          5    1    1    2  502    0  0.23046429294E+02  0.59505134516E+02 -0.78621073689E+03  0.78880719706E+03  0.41800000000E+01 0. -1.
         -5    1    1    2    0  502 -0.51726765365E+02 -0.26448101859E+02 -0.17209060452E+03  0.18168051330E+03  0.41800000000E+01 0.  1.
        -11    1    3    3    0    0  0.62450656847E+02 -0.32813755761E+02  0.39380741168E+02  0.80793996576E+02  0.00000000000E+00 0.  1.
         11    1    3    3    0    0 -0.33770320776E+02 -0.24327689566E+00  0.16096115053E+02  0.37410943168E+02  0.00000000000E+00 0. -1.
</event>
<event>
 7    1  0.5900800E-006  0.1524878E+03  0.7561462E-02  0.1197449E+00
         -1   -1    0    0    0  501 -0.00000000000E+00  0.00000000000E+00  0.11242390978E+02  0.11242390978E+02  0.00000000000E+00 0.  1.
          1   -1    0    0  501    0  0.00000000000E+00 -0.00000000000E+00 -0.23197865779E+04  0.23197865779E+04  0.00000000000E+00 0. -1.
         23    2    1    2    0    0  0.64350292698E+02  0.45940904774E+01 -0.51125863308E+03  0.52326045358E+03  0.90851783382E+02 0.  0.
          5    1    1    2  502    0 -0.15306310707E+02 -0.92257231956E+02 -0.91268901054E+03  0.91747718357E+03  0.41800000000E+01 0. -1.
         -5    1    1    2    0  502 -0.49043981990E+02  0.87663141478E+02 -0.88459654326E+03  0.89029133169E+03  0.41800000000E+01 0.  1.
        -11    1    3    3    0    0 -0.37553816538E+01  0.35740656570E+02 -0.19215946881E+03  0.19549107110E+03  0.00000000000E+00 0.  1.
         11    1    3    3    0    0  0.68105674352E+02 -0.31146566092E+02 -0.31909916427E+03  0.32776938248E+03  0.00000000000E+00 0. -1.
</event>
<event>
 8    1  0.5900800E-006  0.3466256E+03  0.7561462E-02  0.1064009E+00
         -1   -1    0    0    0  501 -0.00000000000E+00  0.00000000000E+00  0.59723419449E+03  0.59723419449E+03  0.00000000000E+00 0.  1.
          1   -1    0    0  501    0  0.00000000000E+00 -0.00000000000E+00 -0.22309731512E+03  0.22309731512E+03  0.00000000000E+00 0. -1.
         23    2    1    2    0    0 -0.33075980902E+03  0.57548351316E+02  0.28929089921E+03  0.45213785471E+03  0.89585441302E+02 0.  0.
         23    2    1    2    0    0  0.33075980902E+03 -0.57548351316E+02  0.84845980151E+02  0.36819365490E+03  0.12511539937E+03 0.  0.
          5    1    4    4  502    0  0.45092929936E+02 -0.38582160386E+02  0.53760430924E+02  0.80184859939E+02  0.41800000000E+01 0.  1.
         -5    1    4    4    0  502  0.28566687908E+03 -0.18966190930E+02  0.31085549227E+02  0.28800879496E+03  0.41800000000E+01 0.  1.
        -11    1    3    3    0    0 -0.13405804352E+03  0.68265235725E+02  0.12170631620E+03  0.19350485483E+03  0.00000000000E+00 0.  1.
         11    1    3    3    0    0 -0.19670176550E+03 -0.10716884409E+02  0.16758458302E+03  0.25863299988E+03  0.00000000000E+00 0. -1.
</event>
<event>
 8    1  0.5900800E-006  0.1743929E+03  0.7561462E-02  0.1173343E+00
          3   -1    0    0  501    0  0.00000000000E+00  0.00000000000E+00  0.19206413680E+03  0.19206413680E+03  0.00000000000E+00 0. -1.
         -3   -1    0    0    0  501 -0.00000000000E+00 -0.00000000000E+00 -0.18926844850E+03  0.18926844850E+03  0.00000000000E+00 0.  1.
         23    2    1    2    0    0 -0.14350312997E+03  0.59779610326E+02  0.20114995143E+02  0.18104838813E+03  0.90593353464E+02 0.  0.
         23    2    1    2    0    0  0.14350312997E+03 -0.59779610326E+02 -0.17319306849E+02  0.20028419717E+03  0.12508817339E+03 0.  0.
          5    1    4    4  502    0  0.69013023081E+02 -0.87979401336E+02 -0.37499284613E+02  0.11801203820E+03  0.41800000000E+01 0.  1.
         -5    1    4    4    0  502  0.74490106893E+02  0.28199791010E+02  0.20179977764E+02  0.82272158963E+02  0.41800000000E+01 0.  1.
        -11    1    3    3    0    0 -0.10801967821E+03  0.55342386816E+02 -0.24552504607E+02  0.12382994849E+03  0.00000000000E+00 0.  1.
         11    1    3    3    0    0 -0.35483451762E+02  0.44372235098E+01  0.44667499750E+02  0.57218439644E+02  0.00000000000E+00 0. -1.
</event>
<event>
 8    1  0.5900800E-006  0.9271053E+02  0.7561462E-02  0.1296417E+00
          2   -1    0    0  501    0  0.00000000000E+00  0.00000000000E+00  0.68163618996E+02  0.68163618996E+02  0.00000000000E+00 0. -1.
         -2   -1    0    0    0  501 -0.00000000000E+00 -0.00000000000E+00 -0.27473413204E+03  0.27473413204E+03  0.00000000000E+00 0.  1.
         23    2    1    2    0    0 -0.60620808283E+02 -0.54131443210E+02 -0.11275444912E+03  0.16665120420E+03  0.91945432317E+02 0.  0.
         23    2    1    2    0    0  0.60620808283E+02  0.54131443210E+02 -0.93816063932E+02  0.17624654684E+03  0.12512512090E+03 0.  0.
          5    1    4    4  502    0  0.55582833371E+02  0.18464998706E+02  0.15784254540E+02  0.60803146581E+02  0.41800000000E+01 0.  1.
         -5    1    4    4    0  502  0.50379749116E+01  0.35666444504E+02 -0.10960031847E+03  0.11544340026E+03  0.41800000000E+01 0.  1.
        -11    1    3    3    0    0 -0.39242883049E+02 -0.56649765724E+02 -0.12437343157E+03  0.14218983897E+03  0.00000000000E+00 0.  1.
         11    1    3    3    0    0 -0.21377925233E+02  0.25183225134E+01  0.11618982451E+02  0.24461365227E+02  0.00000000000E+00 0. -1.
</event>
<event>
 8    1  0.5900800E-006  0.1278414E+03  0.7561462E-02  0.1230694E+00
          1   -1    0    0  501    0  0.00000000000E+00  0.00000000000E+00  0.49934783025E+03  0.49934783025E+03  0.00000000000E+00 0. -1.
         -1   -1    0    0    0  501 -0.00000000000E+00 -0.00000000000E+00 -0.62551537664E+02  0.62551537664E+02  0.00000000000E+00 0.  1.
         23    2    1    2    0    0 -0.31505127610E+02  0.12330166177E+03  0.11556923651E+03  0.19443521341E+03  0.90845643394E+02 0.  0.
         23    2    1    2    0    0  0.31505127610E+02 -0.12330166177E+03  0.32122705607E+03  0.36746415450E+03  0.12508881018E+03 0.  0.
          5    1    4    4  502    0  0.19521148445E+01 -0.23896909428E+02  0.22377520694E+03  0.22509484373E+03  0.41800000000E+01 0. -1.
         -5    1    4    4    0  502  0.29553012765E+02 -0.99404752341E+02  0.97451849129E+02  0.14236931077E+03  0.41800000000E+01 0. -1.
        -11    1    3    3    0    0 -0.15188605796E+02  0.42747960349E+02 -0.79628896590E+01  0.46059629522E+02  0.00000000000E+00 0.  1.
         11    1    3    3    0    0 -0.16316521814E+02  0.80553701420E+02  0.12353212617E+03  0.14837558388E+03  0.00000000000E+00 0. -1.
</event>
<event>
 8    1  0.5900800E-006  0.2779299E+03  0.7561462E-02  0.1096825E+00
         -1   -1    0    0    0  501 -0.00000000000E+00  0.00000000000E+00  0.16121428161E+03  0.16121428161E+03  0.00000000000E+00 0.  1.
          1   -1    0    0  501    0  0.00000000000E+00 -0.00000000000E+00 -0.50558954842E+03  0.50558954842E+03  0.00000000000E+00 0. -1.
         23    2    1    2    0    0 -0.25521828371E+03 -0.71074888817E+00 -0.13152542096E+03  0.31171297349E+03  0.12136376716E+03 0.  0.
         23    2    1    2    0    0  0.25521828371E+03  0.71074888817E+00 -0.21284984585E+03  0.35509085654E+03  0.12509029546E+03 0.  0.
          5    1    4    4  502    0  0.22404112755E+03  0.36892561956E+02 -0.13658062372E+03  0.26500420211E+03  0.41800000000E+01 0.  1.
         -5    1    4    4    0  502  0.31177156168E+02 -0.36181813068E+02 -0.76269222128E+02  0.90086654437E+02  0.41800000000E+01 0.  1.
        -11    1    3    3    0    0 -0.14864481594E+03  0.57506938409E+02 -0.57196923608E+02  0.16933345015E+03  0.00000000000E+00 0. -1.
         11    1    3    3    0    0 -0.10657346778E+03 -0.58217687297E+02 -0.74328497354E+02  0.14237952334E+03  0.00000000000E+00 0.  1.
</event>
<event>
 8    1  0.5900800E-006  0.9327355E+02  0.7561462E-02  0.1295113E+00
          1   -1    0    0  501    0  0.00000000000E+00  0.00000000000E+00  0.26614207683E+02  0.26614207683E+02  0.00000000000E+00 0. -1.
         -1   -1    0    0    0  501 -0.00000000000E+00 -0.00000000000E+00 -0.68555373271E+03  0.68555373271E+03  0.00000000000E+00 0.  1.
         23    2    1    2    0    0 -0.69778961450E+02 -0.51505520615E+02 -0.25963453016E+03  0.28483404703E+03  0.78730064014E+02 0.  0.
         23    2    1    2    0    0  0.69778961450E+02  0.51505520615E+02 -0.39930499486E+03  0.42733389336E+03  0.12509138811E+03 0.  0.
          5    1    4    4  502    0  0.75765422200E+02  0.51029208234E+02 -0.40674591133E+03  0.41689817471E+03  0.41800000000E+01 0. -1.
         -5    1    4    4    0  502 -0.59864607506E+01  0.47631238141E+00  0.74409164693E+01  0.10435718648E+02  0.41800000000E+01 0. -1.
        -11    1    3    3    0    0 -0.57308495323E+02 -0.35185516186E+02 -0.25508062294E+03  0.26379614930E+03  0.00000000000E+00 0.  1.
         11    1    3    3    0    0 -0.12470466127E+02 -0.16320004429E+02 -0.45539072241E+01  0.21037897732E+02  0.00000000000E+00 0. -1.
</event>
<event>
 8    1  0.5900800E-006  0.1054745E+03  0.7561462E-02  0.1269188E+00
          4   -1    0    0  501    0  0.00000000000E+00  0.00000000000E+00  0.52166674834E+02  0.52166674834E+02  0.00000000000E+00 0. -1.
         -4   -1    0    0    0  501 -0.00000000000E+00 -0.00000000000E+00 -0.23522811260E+03  0.23522811260E+03  0.00000000000E+00 0.  1.
         23    2    1    2    0    0 -0.63160698880E+01  0.25903546221E+02 -0.68576689217E+02  0.11574461368E+03  0.89348569353E+02 0.  0.
         23    2    1    2    0    0  0.63160698880E+01 -0.25903546221E+02 -0.11448474855E+03  0.17165017375E+03  0.12508452364E+03 0.  0.
          5    1    4    4  502    0  0.61251657450E+02  0.54846791081E+01 -0.38459546837E+02  0.72652986093E+02  0.41800000000E+01 0.  1.
         -5    1    4    4    0  502 -0.54935587562E+02 -0.31388225329E+02 -0.76025201709E+02  0.98997187662E+02  0.41800000000E+01 0.  1.
        -11    1    3    3    0    0 -0.33642748507E+02  0.42289455171E+02 -0.63661847598E+02  0.83504870429E+02  0.00000000000E+00 0.  1.
         11    1    3    3    0    0  0.27326678619E+02 -0.16385908950E+02 -0.49148416192E+01  0.32239743247E+02  0.00000000000E+00 0. -1.
</event>
<event>
 8    1  0.5900800E-006  0.9858722E+02  0.7561462E-02  0.1283295E+00
         -2   -1    0    0    0  501 -0.00000000000E+00  0.00000000000E+00  0.13462586909E+03  0.13462586909E+03  0.00000000000E+00 0.  1.
          2   -1    0    0  501    0  0.00000000000E+00 -0.00000000000E+00 -0.92050130646E+02  0.92050130646E+02  0.00000000000E+00 0. -1.
         23    2    1    2    0    0  0.93502569662E+01 -0.12010414851E+02  0.37250493332E+02  0.10055173806E+03  0.92148659262E+02 0.  0.
         23    2    1    2    0    0 -0.93502569662E+01  0.12010414851E+02  0.53252451088E+01  0.12612426167E+03  0.12508914332E+03 0.  0.
          5    1    4    4  502    0  0.29617355633E+02  0.55021069838E+02  0.20666733564E+02  0.65947647092E+02  0.41800000000E+01 0. -1.
         -5    1    4    4    0  502 -0.38967612599E+02 -0.43010654987E+02 -0.15341488455E+02  0.60176614578E+02  0.41800000000E+01 0. -1.
        -11    1    3    3    0    0 -0.31537378613E+02 -0.15844018928E+02 -0.11209669128E+02  0.37031012240E+02  0.00000000000E+00 0. -1.
         11    1    3    3    0    0  0.40887635579E+02  0.38336040778E+01  0.48460162459E+02  0.63520725823E+02  0.00000000000E+00 0.  1.
</event>
<event>
 8    1  0.5900800E-006  0.9630709E+02  0.7561462E-02  0.1288259E+00
          2   -1    0    0  501    0  0.00000000000E+00  0.00000000000E+00  0.85481684295E+02  0.85481684295E+02  0.00000000000E+00 0. -1.
         -2   -1    0    0    0  501 -0.00000000000E+00 -0.00000000000E+00 -0.20098243820E+03  0.20098243820E+03  0.00000000000E+00 0.  1.
         23    2    1    2    0    0  0.38737643801E+02 -0.61743218591E+02 -0.41901911137E+02  0.12405353194E+03  0.91217753427E+02 0.  0.
         23    2    1    2    0    0 -0.38737643801E+02  0.61743218591E+02 -0.73598842765E+02  0.16241059055E+03  0.12509028811E+03 0.  0.
          5    1    4    4  502    0 -0.41372094514E+02  0.58114125930E+02 -0.10688088131E+03  0.12856864714E+03  0.41800000000E+01 0. -1.
         -5    1    4    4    0  502  0.26344507131E+01  0.36290926614E+01  0.33282038548E+02  0.33841943414E+02  0.41800000000E+01 0. -1.
        -11    1    3    3    0    0  0.27462943372E+02  0.19066264608E+02 -0.27256641379E+01  0.33543478498E+02  0.00000000000E+00 0. -1.
         11    1    3    3    0    0  0.11274700429E+02 -0.80809483200E+02 -0.39176246999E+02  0.90510053440E+02  0.00000000000E+00 0.  1.
</event>
<event>
 8    1  0.5900800E-006  0.1020604E+03  0.7561462E-02  0.1276022E+00
          3   -1    0    0  501    0  0.00000000000E+00  0.00000000000E+00  0.59397980289E+02  0.59397980289E+02  0.00000000000E+00 0. -1.
         -3   -1    0    0    0  501 -0.00000000000E+00 -0.00000000000E+00 -0.26982103792E+03  0.26982103792E+03  0.00000000000E+00 0.  1.
         23    2    1    2    0    0  0.65948665952E+02  0.83579419359E+00 -0.82534260564E+02  0.13854737545E+03  0.89630050672E+02 0.  0.
         23    2    1    2    0    0 -0.65948665952E+02 -0.83579419359E+00 -0.12788879707E+03  0.19067164276E+03  0.12510078275E+03 0.  0.
          5    1    4    4  502    0 -0.40475376344E+02  0.48379028291E+02 -0.11850378802E+03  0.13431085825E+03  0.41800000000E+01 0.  1.
         -5    1    4    4    0  502 -0.25473289608E+02 -0.49214822485E+02 -0.93850090429E+01  0.56360784508E+02  0.41800000000E+01 0.  1.
        -11    1    3    3    0    0  0.45037746753E+02  0.26477126469E+02 -0.29131286839E+01  0.52325167724E+02  0.00000000000E+00 0. -1.
         11    1    3    3    0    0  0.20910919199E+02 -0.25641332276E+02 -0.79621131880E+02  0.86222207722E+02  0.00000000000E+00 0.  1.
</event>
<event>
 8    1  0.5900800E-006  0.1055831E+03  0.7561462E-02  0.1268975E+00
         -2   -1    0    0    0  501 -0.00000000000E+00  0.00000000000E+00  0.32067133559E+02  0.32067133559E+02  0.00000000000E+00 0. -1.
          2   -1    0    0  501    0  0.00000000000E+00 -0.00000000000E+00 -0.37507151329E+03  0.37507151329E+03  0.00000000000E+00 0.  1.
         23    2    1    2    0    0  0.11620236660E+01 -0.20778792116E+02 -0.14192503190E+03  0.16941303812E+03  0.90138528412E+02 0.  0.
         23    2    1    2    0    0 -0.11620236660E+01  0.20778792116E+02 -0.20107934783E+03  0.23772560873E+03  0.12508977744E+03 0.  0.
          5    1    4    4  502    0  0.10188535729E+02 -0.51638004224E+02 -0.72967789909E+02  0.90066977881E+02  0.41800000000E+01 0.  1.
         -5    1    4    4    0  502 -0.11350559395E+02  0.72416796340E+02 -0.12811155792E+03  0.14765863085E+03  0.41800000000E+01 0.  1.
        -11    1    3    3    0    0 -0.22192888256E+02 -0.45693165769E+02 -0.11568573686E+03  0.12634705932E+03  0.00000000000E+00 0.  1.
         11    1    3    3    0    0  0.23354911922E+02  0.24914373653E+02 -0.26239295039E+02  0.43065978795E+02  0.00000000000E+00 0. -1.
</event>
<event>
 8    1  0.5900800E-006  0.9728213E+02  0.7561462E-02  0.1286117E+00
          1   -1    0    0  501    0  0.00000000000E+00  0.00000000000E+00  0.24826673605E+03  0.24826673605E+03  0.00000000000E+00 0. -1.
         -1   -1    0    0    0  501 -0.00000000000E+00 -0.00000000000E+00 -0.62150627374E+02  0.62150627374E+02  0.00000000000E+00 0.  1.
         23    2    1    2    0    0 -0.82889798782E+01  0.21888224864E+02  0.12116353977E+02  0.94845541841E+02  0.91110203590E+02 0.  0.
         23    2    1    2    0    0  0.82889798782E+01 -0.21888224864E+02  0.17399975469E+03  0.21557182158E+03  0.12508994384E+03 0.  0.
          5    1    4    4  502    0  0.54248407050E+02  0.22131484213E+02  0.54545727337E+02  0.80158599238E+02  0.41800000000E+01 0.  1.
         -5    1    4    4    0  502 -0.45959427172E+02 -0.44019709077E+02  0.11945402736E+03  0.13541322234E+03  0.41800000000E+01 0.  1.
        -11    1    3    3    0    0 -0.34810134754E+02  0.28186204372E+02 -0.23032304149E+02  0.50365609625E+02  0.00000000000E+00 0.  1.
         11    1    3    3    0    0  0.26521154876E+02 -0.62979795074E+01  0.35148658126E+02  0.44479932216E+02  0.00000000000E+00 0. -1.
</event>
<event>
 8    1  0.5900800E-006  0.1157034E+03  0.7561462E-02  0.1250358E+00
         -2   -1    0    0    0  501 -0.00000000000E+00  0.00000000000E+00  0.10619364234E+03  0.10619364234E+03  0.00000000000E+00 0.  1.
          2   -1    0    0  501    0  0.00000000000E+00 -0.00000000000E+00 -0.24578567780E+03  0.24578567780E+03  0.00000000000E+00 0. -1.
         23    2    1    2    0    0 -0.32097897377E+02  0.79314766796E+00  0.42199547091E+02  0.12898731819E+03  0.11758410769E+03 0.  0.
         23    2    1    2    0    0  0.32097897377E+02 -0.79314766796E+00 -0.18179158256E+03  0.22299200195E+03  0.12508536822E+03 0.  0.
          5    1    4    4  502    0 -0.30045572506E+02  0.38462367566E+02 -0.10880139067E+03  0.11932017917E+03  0.41800000000E+01 0. -1.
         -5    1    4    4    0  502  0.62143469883E+02 -0.39255515234E+02 -0.72990191888E+02  0.10367182277E+03  0.41800000000E+01 0. -1.
        -11    1    3    3    0    0 -0.65555651816E+02 -0.21038104114E+02 -0.26819539076E+01  0.68900930230E+02  0.00000000000E+00 0. -1.
         11    1    3    3    0    0  0.33457754439E+02  0.21831251782E+02  0.44881500999E+02  0.60086387963E+02  0.00000000000E+00 0.  1.
</event>
<event>
 8    1  0.5900800E-006  0.1364191E+03  0.7561462E-02  0.1218230E+00
          1   -1    0    0  501    0  0.00000000000E+00  0.00000000000E+00  0.27004614259E+03  0.27004614259E+03  0.00000000000E+00 0. -1.
         -1   -1    0    0    0  501 -0.00000000000E+00 -0.00000000000E+00 -0.74420778524E+02  0.74420778524E+02  0.00000000000E+00 0.  1.
         23    2    1    2    0    0 -0.76272942965E+02  0.45383397215E+02  0.80544032452E+02  0.15100690744E+03  0.91861473753E+02 0.  0.
         23    2    1    2    0    0  0.76272942965E+02 -0.45383397215E+02  0.11508133162E+03  0.19346001368E+03  0.12769435944E+03 0.  0.
          5    1    4    4  502    0 -0.37858293612E+00 -0.68059226111E+02  0.24202261926E+02  0.72356226175E+02  0.41800000000E+01 0.  1.
         -5    1    4    4    0  502  0.76651525901E+02  0.22675828897E+02  0.90879069692E+02  0.12110378750E+03  0.41800000000E+01 0. -1.
        -11    1    3    3    0    0 -0.55706474725E+02 -0.17542783053E+02  0.21298057230E+02  0.62165648113E+02  0.00000000000E+00 0.  1.
         11    1    3    3    0    0 -0.20566468240E+02  0.62926180268E+02  0.59245975222E+02  0.88841259328E+02  0.00000000000E+00 0. -1.
</event>
<event>
 8    1  0.5900800E-006  0.9842046E+02  0.7561462E-02  0.1283653E+00
          4   -1    0    0  501    0  0.00000000000E+00  0.00000000000E+00  0.25792006484E+02  0.25792006484E+02  0.00000000000E+00 0. -1.
         -4   -1    0    0    0  501 -0.00000000000E+00 -0.00000000000E+00 -0.60490870909E+03  0.60490870909E+03  0.00000000000E+00 0.  1.
         23    2    1    2    0    0  0.19588594364E+02 -0.67820064363E+02 -0.32154755292E+03  0.34089340755E+03  0.88499787360E+02 0.  0.
         23    2    1    2    0    0 -0.19588594364E+02  0.67820064363E+02 -0.25756914968E+03  0.28980730802E+03  0.11253059475E+03 0.  0.
          5    1    4    4  502    0 -0.13638812753E+02 -0.20955736233E+01  0.70227352487E+01  0.16037451558E+02  0.41800000000E+01 0. -1.
         -5    1    4    4    0  502 -0.59497816112E+01  0.69915637986E+02 -0.26459188493E+03  0.27376985647E+03  0.41800000000E+01 0.  1.
        -11    1    3    3    0    0 -0.11310655266E+02  0.17808667901E+02 -0.43963743142E+02  0.48763616416E+02  0.00000000000E+00 0.  1.
         11    1    3    3    0    0  0.30899249630E+02 -0.85628732264E+02 -0.27758380978E+03  0.29212979113E+03  0.00000000000E+00 0. -1.
</event>
<event>
 8    1  0.5900800E-006  0.9318050E+02  0.7561462E-02  0.1295327E+00
         -2   -1    0    0    0  501 -0.00000000000E+00  0.00000000000E+00  0.26384607216E+03  0.26384607216E+03  0.00000000000E+00 0.  1.
          2   -1    0    0  501    0  0.00000000000E+00 -0.00000000000E+00 -0.48180062197E+02  0.48180062197E+02  0.00000000000E+00 0. -1.
         23    2    1    2    0    0  0.18825198384E+02 -0.36946826205E+01  0.12375903294E+03  0.15562062069E+03  0.92376623538E+02 0.  0.
         23    2    1    2    0    0 -0.18825198384E+02  0.36946826205E+01  0.91906977024E+02  0.15640551367E+03  0.12509098091E+03 0.  0.
          5    1    4    4  502    0 -0.22686786473E+02  0.60228020116E+02  0.26396760156E+02  0.69687631861E+02  0.41800000000E+01 0.  1.
         -5    1    4    4    0  502  0.38615880894E+01 -0.56533337496E+02  0.65510216868E+02  0.86717881807E+02  0.41800000000E+01 0.  1.
        -11    1    3    3    0    0  0.16322969239E+02 -0.32375412507E+02  0.12144073410E+03  0.12673775506E+03  0.00000000000E+00 0.  1.
         11    1    3    3    0    0  0.25022291452E+01  0.28680729887E+02  0.23182988430E+01  0.28882865631E+02  0.00000000000E+00 0. -1.
</event>
<event>
 8    1  0.5900800E-006  0.1033839E+03  0.7561462E-02  0.1273337E+00
          2   -1    0    0  501    0  0.00000000000E+00  0.00000000000E+00  0.12995858295E+04  0.12995858295E+04  0.00000000000E+00 0. -1.
         -2   -1    0    0    0  501 -0.00000000000E+00 -0.00000000000E+00 -0.10650910610E+02  0.10650910610E+02  0.00000000000E+00 0.  1.
         23    2    1    2    0    0 -0.11747274087E+02 -0.24902351969E+02  0.34912681859E+03  0.36174074027E+03  0.90601888088E+02 0.  0.
         23    2    1    2    0    0  0.11747274087E+02  0.24902351969E+02  0.93980810034E+03  0.94849599989E+03  0.12508905130E+03 0.  0.
          5    1    4    4  502    0  0.16882162937E+02  0.67453603456E+02  0.33549495608E+03  0.34265045455E+03  0.41800000000E+01 0.  1.
         -5    1    4    4    0  502 -0.51348888509E+01 -0.42551251486E+02  0.60431314426E+03  0.60584554534E+03  0.41800000000E+01 0.  1.
        -11    1    3    3    0    0  0.39235247076E+02 -0.61049048720E+01  0.12690022706E+03  0.13296744753E+03  0.00000000000E+00 0.  1.
         11    1    3    3    0    0 -0.50982521163E+02 -0.18797447097E+02  0.22222659154E+03  0.22877329273E+03  0.00000000000E+00 0. -1.
</event>
<event>
 7    1  0.5900800E-006  0.2323060E+03  0.7561462E-02  0.1125027E+00
         -1   -1    0    0    0  501 -0.00000000000E+00  0.00000000000E+00  0.25914839157E+03  0.25914839157E+03  0.00000000000E+00 0.  1.
          1   -1    0    0  501    0  0.00000000000E+00 -0.00000000000E+00 -0.14015584062E+04  0.14015584062E+04  0.00000000000E+00 0. -1.
         23    2    1    2    0    0 -0.51129698541E+02  0.38439593792E+02  0.11752281973E+03  0.16214803027E+03  0.91588875531E+02 0.  0.
          5    1    1    2  502    0  0.19999665555E+03 -0.55792179057E+02 -0.13205906487E+04  0.13368203183E+04  0.41800000000E+01 0. -1.
         -5    1    1    2    0  502 -0.14886695701E+03  0.17352585266E+02  0.60657814378E+02  0.16173844920E+03  0.41800000000E+01 0.  1.
        -11    1    3    3    0    0 -0.93735951664E+01  0.59502357467E+02  0.88674226234E+02  0.10719847587E+03  0.00000000000E+00 0. -1.
         11    1    3    3    0    0 -0.41756103374E+02 -0.21062763676E+02  0.28848593494E+02  0.54949554404E+02  0.00000000000E+00 0.  1.
</event>
<event>
 8    1  0.5900800E-006  0.6414192E+02  0.7561462E-02  0.1381229E+00
         -2   -1    0    0    0  501 -0.00000000000E+00  0.00000000000E+00  0.32536895811E+02  0.32536895811E+02  0.00000000000E+00 0.  1.
          2   -1    0    0  501    0  0.00000000000E+00 -0.00000000000E+00 -0.15787868689E+04  0.15787868689E+04  0.00000000000E+00 0. -1.
         23    2    1    2    0    0 -0.44863479727E+01  0.50806764260E+02 -0.60925573375E+02  0.12099188289E+03  0.91245030663E+02 0.  0.
         23    2    1    2    0    0  0.44863479727E+01 -0.50806764260E+02 -0.14853243997E+04  0.14903318818E+04  0.11090126683E+03 0.  0.
          5    1    4    4  502    0  0.19811685336E+02 -0.55785438745E+02 -0.14507008241E+04  0.14519142094E+04  0.41800000000E+01 0. -1.
         -5    1    4    4    0  502 -0.15325337363E+02  0.49786744852E+01 -0.34623575577E+02  0.38417672375E+02  0.41800000000E+01 0.  1.
        -11    1    3    3    0    0 -0.84237943956E+01  0.33832409346E+02  0.18643637768E+02  0.39537039133E+02  0.00000000000E+00 0.  1.
         11    1    3    3    0    0  0.39374464229E+01  0.16974354914E+02 -0.79569211143E+02  0.81454843754E+02  0.00000000000E+00 0. -1.
</event>
<event>
 8    1  0.5900800E-006  0.1456479E+03  0.7561462E-02  0.1205925E+00
          1   -1    0    0  501    0  0.00000000000E+00  0.00000000000E+00  0.33182908545E+03  0.33182908545E+03  0.00000000000E+00 0. -1.
         -1   -1    0    0    0  501 -0.00000000000E+00 -0.00000000000E+00 -0.84613030415E+02  0.84613030415E+02  0.00000000000E+00 0.  1.
         23    2    1    2    0    0  0.26305523509E+02  0.11466056769E+03  0.37762825131E+02  0.14559951717E+03  0.77033512749E+02 0.  0.
         23    2    1    2    0    0 -0.26305523509E+02 -0.11466056769E+03  0.20945322990E+03  0.27084259870E+03  0.12508409732E+03 0.  0.
          5    1    4    4  502    0 -0.74859094623E+02 -0.59009133737E+02  0.95578795130E+02  0.13505088075E+03  0.41800000000E+01 0. -1.
         -5    1    4    4    0  502  0.48553571115E+02 -0.55651433954E+02  0.11387443477E+03  0.13579171795E+03  0.41800000000E+01 0. -1.
        -11    1    3    3    0    0  0.28280998559E+02  0.51784057247E+02 -0.17839523474E+02  0.61641317817E+02  0.00000000000E+00 0.  1.
         11    1    3    3    0    0 -0.19754750504E+01  0.62876510445E+02  0.55602348605E+02  0.83958199348E+02  0.00000000000E+00 0. -1.
</event>
<event>
 8    1  0.5900800E-006  0.8985964E+02  0.7561462E-02  0.1303192E+00
          2   -1    0    0  501    0  0.00000000000E+00  0.00000000000E+00  0.86125150506E+03  0.86125150506E+03  0.00000000000E+00 0. -1.
         -2   -1    0    0    0  501 -0.00000000000E+00 -0.00000000000E+00 -0.22991196450E+02  0.22991196450E+02  0.00000000000E+00 0.  1.
         23    2    1    2    0    0 -0.64757486830E+02 -0.76566494585E+01  0.18696518958E+03  0.21784708142E+03  0.90825174855E+02 0.  0.
         23    2    1    2    0    0  0.64757486830E+02  0.76566494585E+01  0.65129511903E+03  0.66639562009E+03  0.12508250885E+03 0.  0.
          5    1    4    4  502    0  0.10054821584E+02  0.91569696380E+01  0.55780662336E+03  0.55798803840E+03  0.41800000000E+01 0.  1.
         -5    1    4    4    0  502  0.54702665246E+02 -0.15003201795E+01  0.93488495664E+02  0.10840758169E+03  0.41800000000E+01 0.  1.
        -11    1    3    3    0    0 -0.83697905763E+01 -0.43167455026E+02  0.59147469070E+02  0.73701463114E+02  0.00000000000E+00 0.  1.
         11    1    3    3    0    0 -0.56387696253E+02  0.35510805567E+02  0.12781772051E+03  0.14414561831E+03  0.00000000000E+00 0. -1.
</event>
<event>
 8    1  0.5900800E-006  0.8978004E+02  0.7561462E-02  0.1303385E+00
         -2   -1    0    0    0  501 -0.00000000000E+00  0.00000000000E+00  0.26047646380E+03  0.26047646380E+03  0.00000000000E+00 0.  1.
          2   -1    0    0  501    0  0.00000000000E+00 -0.00000000000E+00 -0.52305420225E+02  0.52305420225E+02  0.00000000000E+00 0. -1.
         23    2    1    2    0    0  0.82291998197E+01 -0.70770138136E+01  0.15416088983E+03  0.17977749232E+03  0.91850764498E+02 0.  0.
         23    2    1    2    0    0 -0.82291998197E+01  0.70770138136E+01  0.54010153750E+02  0.13300439171E+03  0.12105894288E+03 0.  0.
          5    1    4    4  502    0  0.35177097396E+02 -0.27891824734E+02 -0.11853289347E+02  0.46619254998E+02  0.41800000000E+01 0. -1.
         -5    1    4    4    0  502 -0.43406297216E+02  0.34968838548E+02  0.65863443098E+02  0.86385136708E+02  0.41800000000E+01 0.  1.
        -11    1    3    3    0    0  0.20601853031E+02 -0.39128027190E+02  0.36920766636E+02  0.57607133838E+02  0.00000000000E+00 0.  1.
         11    1    3    3    0    0 -0.12372653211E+02  0.32051013376E+02  0.11724012319E+03  0.12217035849E+03  0.00000000000E+00 0. -1.
</event>
<event>
 8    1  0.5900800E-006  0.1170281E+03  0.7561462E-02  0.1248082E+00
          1   -1    0    0  501    0  0.00000000000E+00  0.00000000000E+00  0.23640536001E+03  0.23640536001E+03  0.00000000000E+00 0. -1.
         -1   -1    0    0    0  501 -0.00000000000E+00 -0.00000000000E+00 -0.71533157451E+02  0.71533157451E+02  0.00000000000E+00 0.  1.
         23    2    1    2    0    0 -0.54490368129E+02 -0.12924271408E+02  0.18506840571E+02  0.10741985222E+03  0.89779087166E+02 0.  0.
         23    2    1    2    0    0  0.54490368129E+02  0.12924271408E+02  0.14636536198E+03  0.20051866524E+03  0.12509467979E+03 0.  0.
          5    1    4    4  502    0  0.76019510164E+02 -0.31951503519E+02  0.11488582987E+03  0.14147823440E+03  0.41800000000E+01 0.  1.
         -5    1    4    4    0  502 -0.21529142034E+02  0.44875774927E+02  0.31479532110E+02  0.59040430841E+02  0.41800000000E+01 0.  1.
        -11    1    3    3    0    0 -0.29509142014E+02  0.36035450315E+02 -0.65115179372E+01  0.47029171879E+02  0.00000000000E+00 0.  1.
         11    1    3    3    0    0 -0.24981226115E+02 -0.48959721722E+02  0.25018358508E+02  0.60390680339E+02  0.00000000000E+00 0. -1.
</event>
<event>
 8    1  0.5900800E-006  0.8548510E+02  0.7561462E-02  0.1314169E+00
          2   -1    0    0  501    0  0.00000000000E+00  0.00000000000E+00  0.86333578528E+02  0.86333578528E+02  0.00000000000E+00 0.  1.
         -2   -1    0    0    0  501 -0.00000000000E+00 -0.00000000000E+00 -0.17266833364E+03  0.17266833364E+03  0.00000000000E+00 0. -1.
         23    2    1    2    0    0  0.44230368102E+02  0.29459759558E+02 -0.19666366202E+02  0.10762117987E+03  0.91495079114E+02 0.  0.
         23    2    1    2    0    0 -0.44230368102E+02 -0.29459759558E+02 -0.66668388910E+02  0.15138073230E+03  0.12508896488E+03 0.  0.
          5    1    4    4  502    0  0.10702342764E+02 -0.15181378339E+02 -0.88425481215E+02  0.90451934844E+02  0.41800000000E+01 0. -1.
         -5    1    4    4    0  502 -0.54932710866E+02 -0.14278381220E+02  0.21757092305E+02  0.60928797452E+02  0.41800000000E+01 0. -1.
        -11    1    3    3    0    0  0.31935619132E+02  0.56732478710E+02 -0.35095862147E+02  0.73960647981E+02  0.00000000000E+00 0. -1.
         11    1    3    3    0    0  0.12294748970E+02 -0.27272719152E+02  0.15429495944E+02  0.33660531892E+02  0.00000000000E+00 0.  1.
</event>
<event>
 8    1  0.5900800E-006  0.1674559E+03  0.7561462E-02  0.1180527E+00
          1   -1    0    0  501    0  0.00000000000E+00  0.00000000000E+00  0.77543133512E+02  0.77543133512E+02  0.00000000000E+00 0. -1.
         -1   -1    0    0    0  501 -0.00000000000E+00 -0.00000000000E+00 -0.49612699954E+03  0.49612699954E+03  0.00000000000E+00 0.  1.
         23    2    1    2    0    0  0.72370565427E+02 -0.14471044059E+03 -0.22614729388E+03  0.29285308377E+03  0.91878832091E+02 0.  0.
         23    2    1    2    0    0 -0.72370565427E+02  0.14471044059E+03 -0.19243657215E+03  0.28081704929E+03  0.12509104889E+03 0.  0.
          5    1    4    4  502    0 -0.76657853447E+02  0.11763311840E+03 -0.73198308317E+02  0.15839647022E+03  0.41800000000E+01 0. -1.
         -5    1    4    4    0  502  0.42872880191E+01  0.27077322195E+02 -0.11923826383E+03  0.12242057906E+03  0.41800000000E+01 0. -1.
        -11    1    3    3    0    0  0.38393329463E+02 -0.35329157257E+02 -0.17852643863E+02  0.55144482885E+02  0.00000000000E+00 0. -1.
         11    1    3    3    0    0  0.33977235964E+02 -0.10938128334E+03 -0.20829465002E+03  0.23770860089E+03  0.00000000000E+00 0.  1.
</event>
<event>
 8    1  0.5900800E-006  0.1674602E+03  0.7561462E-02  0.1180523E+00
          2   -1    0    0  501    0  0.00000000000E+00  0.00000000000E+00  0.91883481934E+03  0.91883481934E+03  0.00000000000E+00 0. -1.
         -2   -1    0    0    0  501 -0.00000000000E+00 -0.00000000000E+00 -0.44296768016E+02  0.44296768016E+02  0.00000000000E+00 0.  1.
         23    2    1    2    0    0 -0.73952599961E+02 -0.12884571252E+03  0.22469143191E+03  0.28488342345E+03  0.92747618315E+02 0.  0.
         23    2    1    2    0    0  0.73952599961E+02  0.12884571252E+03  0.64984661941E+03  0.67824816391E+03  0.12509891451E+03 0.  0.
          5    1    4    4  502    0 -0.11977995295E+02  0.60253471071E+01  0.26269520410E+03  0.26307037050E+03  0.41800000000E+01 0. -1.
         -5    1    4    4    0  502  0.85930595256E+02  0.12282036541E+03  0.38715141532E+03  0.41517779341E+03  0.41800000000E+01 0. -1.
        -11    1    3    3    0    0 -0.19635286721E+02 -0.11249581034E+03  0.17766431972E+03  0.21120005286E+03  0.00000000000E+00 0.  1.
         11    1    3    3    0    0 -0.54317313240E+02 -0.16349902182E+02  0.47027112194E+02  0.73683370581E+02  0.00000000000E+00 0. -1.
</event>
<event>
 8    1  0.5900800E-006  0.7983868E+02  0.7561462E-02  0.1329510E+00
         -2   -1    0    0    0  501 -0.00000000000E+00  0.00000000000E+00  0.44210513538E+02  0.44210513538E+02  0.00000000000E+00 0.  1.
          2   -1    0    0  501    0  0.00000000000E+00 -0.00000000000E+00 -0.31953573906E+03  0.31953573906E+03  0.00000000000E+00 0. -1.
         23    2    1    2    0    0 -0.34786786319E+02 -0.32127668399E+02 -0.10348424071E+03  0.14598972367E+03  0.91442352134E+02 0.  0.
         23    2    1    2    0    0  0.34786786319E+02  0.32127668399E+02 -0.17184098481E+03  0.21775652893E+03  0.12508506805E+03 0.  0.
          5    1    4    4  502    0  0.56979917638E+01  0.30942574577E+02  0.10213076949E+02  0.33342006124E+02  0.41800000000E+01 0. -1.
         -5    1    4    4    0  502  0.29088794555E+02  0.11850938219E+01 -0.18205406176E+03  0.18441452280E+03  0.41800000000E+01 0. -1.
        -11    1    3    3    0    0  0.18671377164E+02 -0.40330380637E+02 -0.68238379689E+02  0.81434859797E+02  0.00000000000E+00 0. -1.
         11    1    3    3    0    0 -0.53458163483E+02  0.82027122379E+01 -0.35245861020E+02  0.64554863876E+02  0.00000000000E+00 0.  1.
</event>
<event>
 8    1  0.5900800E-006  0.9326864E+02  0.7561462E-02  0.1295124E+00
          1   -1    0    0  501    0  0.00000000000E+00  0.00000000000E+00  0.63801796984E+03  0.63801796984E+03  0.00000000000E+00 0. -1.
         -1   -1    0    0    0  501 -0.00000000000E+00 -0.00000000000E+00 -0.36130127118E+02  0.36130127118E+02  0.00000000000E+00 0.  1.
         23    2    1    2    0    0  0.10415918705E+02 -0.44865949932E+02  0.56540414122E+02  0.11544766786E+03  0.89498048921E+02 0.  0.
         23    2    1    2    0    0 -0.10415918705E+02  0.44865949932E+02  0.54534742860E+03  0.55870042909E+03  0.11234280912E+03 0.  0.
          5    1    4    4  502    0 -0.14575780939E+02 -0.17549729917E+02  0.39664207322E+03  0.39731958555E+03  0.41800000000E+01 0. -1.
         -5    1    4    4    0  502  0.41598622341E+01  0.62415679849E+02  0.14870535538E+03  0.16138084354E+03  0.41800000000E+01 0.  1.
        -11    1    3    3    0    0  0.45707017526E+02 -0.28727765899E+01  0.26242045674E+02  0.52782850033E+02  0.00000000000E+00 0.  1.
         11    1    3    3    0    0 -0.35291098821E+02 -0.41993173342E+02  0.30298368448E+02  0.62664817832E+02  0.00000000000E+00 0. -1.
</event>
<event>
 8    1  0.5900800E-006  0.9949606E+02  0.7561462E-02  0.1281359E+00
         -2   -1    0    0    0  501 -0.00000000000E+00  0.00000000000E+00  0.30162490943E+02  0.30162490943E+02  0.00000000000E+00 0.  1.
          2   -1    0    0  501    0  0.00000000000E+00 -0.00000000000E+00 -0.64892738828E+03  0.64892738828E+03  0.00000000000E+00 0. -1.
         23    2    1    2    0    0 -0.55194813269E+02 -0.15429979960E+02 -0.11774333043E+03  0.15951156556E+03  0.91081809350E+02 0.  0.
         23    2    1    2    0    0  0.55194813269E+02  0.15429979960E+02 -0.50102156692E+03  0.51957831367E+03  0.12511779180E+03 0.  0.
          5    1    4    4  502    0  0.51611993428E+02 -0.47728095549E+02 -0.20239861111E+03  0.21429988136E+03  0.41800000000E+01 0.  1.
         -5    1    4    4    0  502  0.35828198408E+01  0.63158075508E+02 -0.29862295581E+03  0.30527843231E+03  0.41800000000E+01 0.  1.
        -11    1    3    3    0    0 -0.24987424903E+02 -0.23075775948E+02 -0.12326027749E+03  0.12786695760E+03  0.00000000000E+00 0. -1.
         11    1    3    3    0    0 -0.30207388366E+02  0.76457959883E+01  0.55169470632E+01  0.31644607962E+02  0.00000000000E+00 0.  1.
</event>
<event>
 8    1  0.5900800E-006  0.1789478E+03  0.7561462E-02  0.1168825E+00
          2   -1    0    0  501    0  0.00000000000E+00  0.00000000000E+00  0.10800177322E+04  0.10800177322E+04  0.00000000000E+00 0. -1.
         -2   -1    0    0    0  501 -0.00000000000E+00 -0.00000000000E+00 -0.44821620850E+02  0.44821620850E+02  0.00000000000E+00 0.  1.
         23    2    1    2    0    0 -0.63897913250E+02  0.15376436324E+03  0.25407429781E+03  0.31643026188E+03  0.88588594678E+02 0.  0.
         23    2    1    2    0    0  0.63897913250E+02 -0.15376436324E+03  0.78112181357E+03  0.80840909120E+03  0.12509016098E+03 0.  0.
          5    1    4    4  502    0  0.54358617074E+02 -0.39132343100E+02  0.50229149138E+03  0.50675478709E+03  0.41800000000E+01 0. -1.
         -5    1    4    4    0  502  0.95392961763E+01 -0.11463202014E+03  0.27883032219E+03  0.30165430411E+03  0.41800000000E+01 0. -1.
        -11    1    3    3    0    0 -0.64558327404E+02  0.84134352899E+02  0.93396069288E+02  0.14131239413E+03  0.00000000000E+00 0.  1.
         11    1    3    3    0    0  0.66041415349E+00  0.69630010342E+02  0.16067822852E+03  0.17511786776E+03  0.00000000000E+00 0. -1.
</event>
<event>
 8    1  0.5900800E-006  0.1095372E+03  0.7561462E-02  0.1261429E+00
         -1   -1    0    0    0  501 -0.00000000000E+00  0.00000000000E+00  0.21728890348E+03  0.21728890348E+03  0.00000000000E+00 0.  1.
          1   -1    0    0  501    0  0.00000000000E+00 -0.00000000000E+00 -0.11079345513E+03  0.11079345513E+03  0.00000000000E+00 0. -1.
         23    2    1    2    0    0 -0.80830415078E+02 -0.92486948388E+01  0.12740232119E+03  0.17741842360E+03  0.92880844262E+02 0.  0.
         23    2    1    2    0    0  0.80830415078E+02  0.92486948388E+01 -0.20906872844E+02  0.15066393500E+03  0.12507369676E+03 0.  0.
          5    1    4    4  502    0  0.47857677140E+02  0.29820546711E+02  0.46190465012E+02  0.73011326008E+02  0.41800000000E+01 0.  1.
         -5    1    4    4    0  502  0.32972737938E+02 -0.20571851872E+02 -0.67097337856E+02  0.77652608997E+02  0.41800000000E+01 0.  1.
        -11    1    3    3    0    0  0.21040437309E+02  0.96003104392E+00  0.20261954920E+02  0.29226160866E+02  0.00000000000E+00 0. -1.
         11    1    3    3    0    0 -0.10187085239E+03 -0.10208725883E+02  0.10714036627E+03  0.14819226274E+03  0.00000000000E+00 0.  1.
</event>
<event>
 8    1  0.5900800E-006  0.1675156E+03  0.7561462E-02  0.1180464E+00
         -1   -1    0    0    0  501 -0.00000000000E+00  0.00000000000E+00  0.10017036643E+03  0.10017036643E+03  0.00000000000E+00 0.  1.
          1   -1    0    0  501    0  0.00000000000E+00 -0.00000000000E+00 -0.29681143260E+03  0.29681143260E+03  0.00000000000E+00 0. -1.
         23    2    1    2    0    0  0.19518249109E+01  0.12740434271E+03 -0.50177909557E+02  0.16603902604E+03  0.93890677917E+02 0.  0.
         23    2    1    2    0    0 -0.19518249109E+01 -0.12740434271E+03 -0.14646315661E+03  0.23094277300E+03  0.12508969579E+03 0.  0.
          5    1    4    4  502    0 -0.57884982413E+02 -0.97180125564E+02 -0.10840005829E+03  0.15672489601E+03  0.41800000000E+01 0.  1.
         -5    1    4    4    0  502  0.55933157502E+02 -0.30224217142E+02 -0.38063098324E+02  0.74217876984E+02  0.41800000000E+01 0.  1.
        -11    1    3    3    0    0 -0.42380295988E+02  0.32598089720E+02 -0.13571828550E+02  0.55162663746E+02  0.00000000000E+00 0.  1.
         11    1    3    3    0    0  0.44332120899E+02  0.94806252986E+02 -0.36606081007E+02  0.11087636229E+03  0.00000000000E+00 0. -1.
</event>
<event>
 8    1  0.5900800E-006  0.1018867E+03  0.7561462E-02  0.1276378E+00
          1   -1    0    0  501    0  0.00000000000E+00  0.00000000000E+00  0.13975039092E+03  0.13975039092E+03  0.00000000000E+00 0. -1.
         -1   -1    0    0    0  501 -0.00000000000E+00 -0.00000000000E+00 -0.86274222111E+02  0.86274222111E+02  0.00000000000E+00 0.  1.
         23    2    1    2    0    0 -0.20049884679E+01  0.73177510768E+01  0.61790731718E+01  0.92071037689E+02  0.91549579880E+02 0.  0.
         23    2    1    2    0    0  0.20049884679E+01 -0.73177510768E+01  0.47297095641E+02  0.13395357535E+03  0.12509586577E+03 0.  0.
          5    1    4    4  502    0 -0.81583612060E+01 -0.62273650477E+02  0.38884191027E+01  0.63064717587E+02  0.41800000000E+01 0.  1.
         -5    1    4    4    0  502  0.10163349674E+02  0.54955899400E+02  0.43408676538E+02  0.70888857758E+02  0.41800000000E+01 0.  1.
        -11    1    3    3    0    0 -0.74653398944E+01  0.45553503224E+02 -0.14337383055E+02  0.48336461482E+02  0.00000000000E+00 0.  1.
         11    1    3    3    0    0  0.54603514265E+01 -0.38235752147E+02  0.20516456227E+02  0.43734576207E+02  0.00000000000E+00 0. -1.
</event>
<event>
 8    1  0.5900800E-006  0.1132630E+03  0.7561462E-02  0.1254644E+00
          2   -1    0    0  501    0  0.00000000000E+00  0.00000000000E+00  0.32394758519E+03  0.32394758519E+03  0.00000000000E+00 0. -1.
         -2   -1    0    0    0  501 -0.00000000000E+00 -0.00000000000E+00 -0.20552504469E+03  0.20552504469E+03  0.00000000000E+00 0.  1.
         23    2    1    2    0    0 -0.43323668652E+02 -0.15996360594E+02 -0.17688732896E+03  0.20410271469E+03  0.90752229625E+02 0.  0.
         23    2    1    2    0    0  0.43323668652E+02  0.15996360594E+02  0.29530986946E+03  0.32536991519E+03  0.12854897470E+03 0.  0.
          5    1    4    4  502    0  0.82348149632E+02  0.36281885444E+02  0.16825405972E+03  0.19085202113E+03  0.41800000000E+01 0. -1.
         -5    1    4    4    0  502 -0.39024480980E+02 -0.20285524850E+02  0.12705580974E+03  0.13451789406E+03  0.41800000000E+01 0.  1.
        -11    1    3    3    0    0 -0.48377475704E+02  0.22557734049E+02 -0.14259249780E+03  0.15225587657E+03  0.00000000000E+00 0.  1.
         11    1    3    3    0    0  0.50538070523E+01 -0.38554094643E+02 -0.34294831159E+02  0.51846838126E+02  0.00000000000E+00 0. -1.
</event>
<event>
 7    1  0.5900800E-006  0.8463322E+02  0.7561462E-02  0.1316395E+00
          1   -1    0    0  501    0  0.00000000000E+00  0.00000000000E+00  0.15364069371E+04  0.15364069371E+04  0.00000000000E+00 0. -1.
         -1   -1    0    0    0  501 -0.00000000000E+00 -0.00000000000E+00 -0.10308002622E+02  0.10308002622E+02  0.00000000000E+00 0.  1.
         23    2    1    2    0    0 -0.10981557631E+02  0.51866556325E+02  0.57615178421E+03  0.58570977666E+03  0.91073210954E+02 0.  0.
          5    1    1    2  502    0  0.15214285192E+02 -0.47509475255E+01  0.85193118584E+03  0.85209052558E+03  0.41800000000E+01 0. -1.
         -5    1    1    2    0  502 -0.42327275608E+01 -0.47115608799E+02  0.98015964429E+02  0.10891463748E+03  0.41800000000E+01 0.  1.
        -11    1    3    3    0    0 -0.28882019441E+02 -0.17425845554E+02  0.19548184131E+03  0.19837081797E+03  0.00000000000E+00 0.  1.
         11    1    3    3    0    0  0.17900461810E+02  0.69292401879E+02  0.38066994290E+03  0.38733895869E+03  0.00000000000E+00 0. -1.
</event>
<event>
 8    1  0.5900800E-006  0.1034014E+03  0.7561462E-02  0.1273302E+00
          1   -1    0    0  501    0  0.00000000000E+00  0.00000000000E+00  0.17478072084E+03  0.17478072084E+03  0.00000000000E+00 0. -1.
         -1   -1    0    0    0  501 -0.00000000000E+00 -0.00000000000E+00 -0.75428905663E+02  0.75428905663E+02  0.00000000000E+00 0.  1.
         23    2    1    2    0    0 -0.18299381737E+02 -0.32606971226E+02  0.37582002994E+02  0.10577655834E+03  0.91532460913E+02 0.  0.
         23    2    1    2    0    0  0.18299381737E+02  0.32606971226E+02  0.61769812185E+02  0.14443306816E+03  0.12508924629E+03 0.  0.
          5    1    4    4  502    0  0.28487011060E+01 -0.47994612955E+02  0.19854050897E+02  0.52184803417E+02  0.41800000000E+01 0. -1.
         -5    1    4    4    0  502  0.15450680632E+02  0.80601584181E+02  0.41915761288E+02  0.92248264747E+02  0.41800000000E+01 0. -1.
        -11    1    3    3    0    0 -0.30946644712E+01 -0.51793618658E+02  0.55091527814E+02  0.75678479892E+02  0.00000000000E+00 0. -1.
         11    1    3    3    0    0 -0.15204717266E+02  0.19186647432E+02 -0.17509524821E+02  0.30098078448E+02  0.00000000000E+00 0.  1.
</event>
<event>
 8    1  0.5900800E-006  0.9573270E+02  0.7561462E-02  0.1289534E+00
          2   -1    0    0  501    0  0.00000000000E+00  0.00000000000E+00  0.74511517004E+03  0.74511517004E+03  0.00000000000E+00 0.  1.
         -2   -1    0    0    0  501 -0.00000000000E+00 -0.00000000000E+00 -0.17265284769E+02  0.17265284769E+02  0.00000000000E+00 0. -1.
         23    2    1    2    0    0 -0.40282871363E+01 -0.24180441752E+02  0.26250228548E+03  0.27989129483E+03  0.93972156399E+02 0.  0.
         23    2    1    2    0    0  0.40282871363E+01  0.24180441752E+02  0.46534759980E+03  0.48248915999E+03  0.12508589052E+03 0.  0.
          5    1    4    4  502    0  0.37223719805E+02  0.54678832645E+02  0.15109881352E+03  0.16499607239E+03  0.41800000000E+01 0.  1.
         -5    1    4    4    0  502 -0.33195432669E+02 -0.30498390893E+02  0.31424878627E+03  0.31749308760E+03  0.41800000000E+01 0.  1.
        -11    1    3    3    0    0  0.27971565921E+02 -0.36186266852E+02  0.65149970321E+02  0.79601338189E+02  0.00000000000E+00 0. -1.
         11    1    3    3    0    0 -0.31999853057E+02  0.12005825100E+02  0.19735231516E+03  0.20028995664E+03  0.00000000000E+00 0.  1.
</event>
<event>
 8    1  0.5900800E-006  0.1016822E+03  0.7561462E-02  0.1276798E+00
         -2   -1    0    0    0  501 -0.00000000000E+00  0.00000000000E+00  0.22710544726E+02  0.22710544726E+02  0.00000000000E+00 0.  1.
          2   -1    0    0  501    0  0.00000000000E+00 -0.00000000000E+00 -0.89622370530E+03  0.89622370530E+03  0.00000000000E+00 0. -1.
         23    2    1    2    0    0  0.68415465049E+02 -0.42796641751E+02 -0.26439426951E+03  0.29188956547E+03  0.93717449170E+02 0.  0.
         23    2    1    2    0    0 -0.68415465049E+02  0.42796641751E+02 -0.60911889107E+03  0.62704468456E+03  0.12508790738E+03 0.  0.
          5    1    4    4  502    0 -0.89397834544E+02  0.46308066726E+02 -0.58870173587E+03  0.59726343943E+03  0.41800000000E+01 0. -1.
         -5    1    4    4    0  502  0.20982369495E+02 -0.35114249754E+01 -0.20417155205E+02  0.29781245133E+02  0.41800000000E+01 0. -1.
        -11    1    3    3    0    0  0.47695042879E+02 -0.26552057044E+02 -0.25941197091E+03  0.26509319022E+03  0.00000000000E+00 0. -1.
         11    1    3    3    0    0  0.20720422170E+02 -0.16244584706E+02 -0.49822985936E+01  0.26796375248E+02  0.00000000000E+00 0.  1.
</event>
<event>
 8    1  0.5900800E-006  0.8338475E+02  0.7561462E-02  0.1319711E+00
         -2   -1    0    0    0  501 -0.00000000000E+00  0.00000000000E+00  0.15360871471E+03  0.15360871471E+03  0.00000000000E+00 0.  1.
          2   -1    0    0  501    0  0.00000000000E+00 -0.00000000000E+00 -0.95417934425E+02  0.95417934425E+02  0.00000000000E+00 0. -1.
         23    2    1    2    0    0  0.89400067324E+01 -0.37333655890E+02  0.67006663256E+02  0.11787869120E+03  0.89060470108E+02 0.  0.
         23    2    1    2    0    0 -0.89400067324E+01  0.37333655890E+02 -0.88158829720E+01  0.13114795793E+03  0.12509333114E+03 0.  0.
          5    1    4    4  502    0 -0.12087241178E+01  0.74664657334E+02  0.26168214974E+02  0.79237112162E+02  0.41800000000E+01 0.  1.
         -5    1    4    4    0  502 -0.77312826146E+01 -0.37331001444E+02 -0.34984097946E+02  0.51910845772E+02  0.41800000000E+01 0.  1.
        -11    1    3    3    0    0  0.22561756106E+02 -0.31645630452E+02  0.85675703913E+02  0.94078717074E+02  0.00000000000E+00 0.  1.
         11    1    3    3    0    0 -0.13621749373E+02 -0.56880254379E+01 -0.18669040657E+02  0.23799974126E+02  0.00000000000E+00 0. -1.
</event>
<event>
 8    1  0.5900800E-006  0.1724671E+03  0.7561462E-02  0.1175299E+00
         -2   -1    0    0    0  501 -0.00000000000E+00  0.00000000000E+00  0.56695352715E+02  0.56695352715E+02  0.00000000000E+00 0.  1.
          2   -1    0    0  501    0  0.00000000000E+00 -0.00000000000E+00 -0.57582224883E+03  0.57582224883E+03  0.00000000000E+00 0. -1.
         23    2    1    2    0    0  0.52809751239E+02 -0.13228076675E+03 -0.20410874292E+03  0.26486306696E+03  0.90581423161E+02 0.  0.
         23    2    1    2    0    0 -0.52809751239E+02  0.13228076675E+03 -0.31501815319E+03  0.36765453459E+03  0.12508536639E+03 0.  0.
          5    1    4    4  502    0  0.39271564241E+02  0.20386084797E+02 -0.67956693439E+02  0.81199955631E+02  0.41800000000E+01 0.  1.
         -5    1    4    4    0  502 -0.92081315480E+02  0.11189468195E+03 -0.24706145975E+03  0.28645457896E+03  0.41800000000E+01 0.  1.
        -11    1    3    3    0    0  0.31917647725E+02 -0.13070074538E+02 -0.96449973216E+01  0.35813252548E+02  0.00000000000E+00 0.  1.
         11    1    3    3    0    0  0.20892103514E+02 -0.11921069221E+03 -0.19446374560E+03  0.22904981441E+03  0.00000000000E+00 0. -1.
</event>
<event>
 8    1  0.5900800E-006  0.1024999E+03  0.7561462E-02  0.1275125E+00
         -3   -1    0    0    0  501 -0.00000000000E+00  0.00000000000E+00  0.10157773217E+03  0.10157773217E+03  0.00000000000E+00 0.  1.
          3   -1    0    0  501    0  0.00000000000E+00 -0.00000000000E+00 -0.13561133600E+03  0.13561133600E+03  0.00000000000E+00 0. -1.
         23    2    1    2    0    0  0.69445282974E+01  0.41069776051E+02  0.22260664164E+01  0.10045119161E+03  0.91381253799E+02 0.  0.
         23    2    1    2    0    0 -0.69445282974E+01 -0.41069776051E+02 -0.36259670243E+02  0.13673787656E+03  0.12509008843E+03 0.  0.
          5    1    4    4  502    0  0.55594319638E+01  0.37493349040E+02 -0.42173283219E+02  0.56856984826E+02  0.41800000000E+01 0. -1.
         -5    1    4    4    0  502 -0.12503960261E+02 -0.78563125091E+02  0.59136129763E+01  0.79880891737E+02  0.41800000000E+01 0. -1.
        -11    1    3    3    0    0 -0.34991227365E+02  0.18955447330E+02  0.25877816052E+02  0.47469530645E+02  0.00000000000E+00 0. -1.
         11    1    3    3    0    0  0.41935755662E+02  0.22114328721E+02 -0.23651749636E+02  0.52981660965E+02  0.00000000000E+00 0.  1.
</event>
<event>
 7    1  0.5900800E-006  0.1521779E+03  0.7561462E-02  0.1197822E+00
          2   -1    0    0  501    0  0.00000000000E+00  0.00000000000E+00  0.45628945957E+03  0.45628945957E+03  0.00000000000E+00 0.  1.
         -2   -1    0    0    0  501 -0.00000000000E+00 -0.00000000000E+00 -0.82549093783E+02  0.82549093783E+02  0.00000000000E+00 0. -1.
         23    2    1    2    0    0 -0.53126950495E+02  0.45652401786E+02  0.31001978107E+03  0.34155627508E+03  0.12506722086E+03 0.  0.
          5    1    3    3  502    0 -0.82243965081E+02  0.41665679132E+02  0.13191207344E+03  0.16099182007E+03  0.41800000000E+01 0.  1.
         -5    1    3    3    0  502  0.29117014586E+02  0.39867226538E+01  0.17810770764E+03  0.18056445502E+03  0.41800000000E+01 0.  1.
        -11    1    1    2    0    0 -0.12997902486E+02 -0.97494008556E+02  0.55301574832E+02  0.11283745545E+03  0.00000000000E+00 0.  1.
         11    1    1    2    0    0  0.66124852981E+02  0.51841606770E+02  0.84190098829E+01  0.84444822824E+02  0.00000000000E+00 0. -1.
</event>
<event>
 8    1  0.5900800E-006  0.1042136E+03  0.7561462E-02  0.1271677E+00
          2   -1    0    0  501    0  0.00000000000E+00  0.00000000000E+00  0.19500339921E+02  0.19500339921E+02  0.00000000000E+00 0. -1.
         -2   -1    0    0    0  501 -0.00000000000E+00 -0.00000000000E+00 -0.67054325170E+03  0.67054325170E+03  0.00000000000E+00 0.  1.
         23    2    1    2    0    0  0.17452444557E+02 -0.31488643864E+02 -0.30644015145E+03  0.32167662395E+03  0.90962417849E+02 0.  0.
         23    2    1    2    0    0 -0.17452444557E+02  0.31488643864E+02 -0.34460276033E+03  0.36836696767E+03  0.12508812067E+03 0.  0.
          5    1    4    4  502    0 -0.26029003173E+02 -0.34787874879E+02 -0.24161034207E+03  0.24552135354E+03  0.41800000000E+01 0.  1.
         -5    1    4    4    0  502  0.85765586154E+01  0.66276518744E+02 -0.10299241825E+03  0.12284561414E+03  0.41800000000E+01 0.  1.
        -11    1    3    3    0    0  0.19843023918E+02 -0.63085160373E+02 -0.20917112739E+03  0.21937648824E+03  0.00000000000E+00 0.  1.
         11    1    3    3    0    0 -0.23905793610E+01  0.31596516508E+02 -0.97269024058E+02  0.10230013571E+03  0.00000000000E+00 0. -1.
</event>
<event>
 8    1  0.5900800E-006  0.1221631E+03  0.7561462E-02  0.1239571E+00
         -1   -1    0    0    0  501 -0.00000000000E+00  0.00000000000E+00  0.77446984819E+03  0.77446984819E+03  0.00000000000E+00 0.  1.
          1   -1    0    0  501    0  0.00000000000E+00 -0.00000000000E+00 -0.25393358632E+02  0.25393358632E+02  0.00000000000E+00 0. -1.
         23    2    1    2    0    0 -0.89333728383E+02 -0.31481477389E+02  0.29640376107E+03  0.32076938347E+03  0.77885873879E+02 0.  0.
         23    2    1    2    0    0  0.89333728383E+02  0.31481477389E+02  0.45267272849E+03  0.47909382336E+03  0.12508674595E+03 0.  0.
          5    1    4    4  502    0  0.72599468283E+02 -0.15524822859E+02  0.10995433765E+03  0.13273707729E+03  0.41800000000E+01 0.  1.
         -5    1    4    4    0  502  0.16734260101E+02  0.47006300249E+02  0.34271839084E+03  0.34635674606E+03  0.41800000000E+01 0.  1.
        -11    1    3    3    0    0 -0.79463437016E+02 -0.53481105771E+02  0.26020750729E+03  0.27727714176E+03  0.00000000000E+00 0.  1.
         11    1    3    3    0    0 -0.98702913675E+01  0.21999628382E+02  0.36196253781E+02  0.43492241704E+02  0.00000000000E+00 0. -1.
</event>
<event>
 8    1  0.5900800E-006  0.1110090E+03  0.7561462E-02  0.1258713E+00
         -1   -1    0    0    0  501 -0.00000000000E+00  0.00000000000E+00  0.10040159667E+02  0.10040159667E+02  0.00000000000E+00 0.  1.
          1   -1    0    0  501    0  0.00000000000E+00 -0.00000000000E+00 -0.13869799035E+04  0.13869799035E+04  0.00000000000E+00 0. -1.
         23    2    1    2    0    0  0.41085084899E+01 -0.18525213814E+02 -0.36607279685E+03  0.37817037741E+03  0.92970309075E+02 0.  0.
         23    2    1    2    0    0 -0.41085084899E+01  0.18525213814E+02 -0.10108669469E+04  0.10188496857E+04  0.12586752667E+03 0.  0.
          5    1    4    4  502    0 -0.52565501539E+02 -0.28128837296E+02 -0.45223461559E+03  0.45616661800E+03  0.41800000000E+01 0. -1.
         -5    1    4    4    0  502  0.48456993050E+02  0.46654051110E+02 -0.55863233136E+03  0.56268306772E+03  0.41800000000E+01 0. -1.
        -11    1    3    3    0    0  0.48046908082E+02 -0.16752136530E+02 -0.20104244661E+03  0.20738178510E+03  0.00000000000E+00 0.  1.
         11    1    3    3    0    0 -0.43938399592E+02 -0.17730772840E+01 -0.16503035024E+03  0.17078859231E+03  0.00000000000E+00 0. -1.
</event>
<event>
 8    1  0.5900800E-006  0.7339197E+02  0.7561462E-02  0.1348924E+00
         -2   -1    0    0    0  501 -0.00000000000E+00  0.00000000000E+00  0.15322180585E+03  0.15322180585E+03  0.00000000000E+00 0.  1.
          2   -1    0    0  501    0  0.00000000000E+00 -0.00000000000E+00 -0.10673820712E+03  0.10673820712E+03  0.00000000000E+00 0. -1.
         23    2    1    2    0    0 -0.25282968846E+02  0.33178114941E+01  0.85577424632E+02  0.12644144100E+03  0.89519305228E+02 0.  0.
         23    2    1    2    0    0  0.25282968846E+02 -0.33178114941E+01 -0.39093825909E+02  0.13351857197E+03  0.12509454604E+03 0.  0.
          5    1    4    4  502    0 -0.59780048901E+01  0.15488782438E+02  0.41533095991E+02  0.44923372385E+02  0.41800000000E+01 0.  1.
         -5    1    4    4    0  502  0.31260973737E+02 -0.18806593932E+02 -0.80626921900E+02  0.88595199584E+02  0.41800000000E+01 0.  1.
        -11    1    3    3    0    0  0.23721308105E+02 -0.26510721351E+02  0.36124632003E+02  0.50700175957E+02  0.00000000000E+00 0. -1.
         11    1    3    3    0    0 -0.49004276952E+02  0.29828532845E+02  0.49452792629E+02  0.75741265041E+02  0.00000000000E+00 0.  1.
</event>
<event>
 8    1  0.5900800E-006  0.1715177E+03  0.7561462E-02  0.1176274E+00
         -1   -1    0    0    0  501 -0.00000000000E+00  0.00000000000E+00  0.32672745808E+02  0.32672745808E+02  0.00000000000E+00 0.  1.
          1   -1    0    0  501    0  0.00000000000E+00 -0.00000000000E+00 -0.13314299765E+04  0.13314299765E+04  0.00000000000E+00 0. -1.
         23    2    1    2    0    0  0.16848857999E+03 -0.11551793231E+02 -0.43961161779E+03  0.47962456840E+03  0.90881827637E+02 0.  0.
         23    2    1    2    0    0 -0.16848857999E+03  0.11551793231E+02 -0.85914561290E+03  0.88447815391E+03  0.12509426475E+03 0.  0.
          5    1    4    4  502    0 -0.98074635494E+02  0.26342564784E+02 -0.72598020670E+03  0.73306022792E+03  0.41800000000E+01 0. -1.
         -5    1    4    4    0  502 -0.70413944496E+02 -0.14790771553E+02 -0.13316540620E+03  0.15141792599E+03  0.41800000000E+01 0. -1.
        -11    1    3    3    0    0  0.90353636378E+02 -0.12308425482E+02 -0.34535596350E+03  0.35719185107E+03  0.00000000000E+00 0. -1.
         11    1    3    3    0    0  0.78134943612E+02  0.75663225055E+00 -0.94255654294E+02  0.12243271733E+03  0.00000000000E+00 0.  1.
</event>
<event>
 8    1  0.5900800E-006  0.1854624E+03  0.7561462E-02  0.1162619E+00
          2   -1    0    0  501    0  0.00000000000E+00  0.00000000000E+00  0.63572780021E+03  0.63572780021E+03  0.00000000000E+00 0. -1.
         -2   -1    0    0    0  501 -0.00000000000E+00 -0.00000000000E+00 -0.32137678171E+03  0.32137678171E+03  0.00000000000E+00 0.  1.
         23    2    1    2    0    0 -0.17159495166E+03  0.60030781898E+02 -0.26798001166E+03  0.33633252756E+03  0.90872219267E+02 0.  0.
         23    2    1    2    0    0  0.17159495166E+03 -0.60030781898E+02  0.58233103016E+03  0.62077205436E+03  0.11489122060E+03 0.  0.
          5    1    4    4  502    0  0.15273441591E+03 -0.59599929359E+02  0.57820360147E+03  0.60101317002E+03  0.41800000000E+01 0. -1.
         -5    1    4    4    0  502  0.18860535749E+02 -0.43085253870E+00  0.41274286911E+01  0.19758884337E+02  0.41800000000E+01 0.  1.
        -11    1    3    3    0    0 -0.66732114651E+02 -0.71005521196E-01 -0.16340662296E+03  0.17650751994E+03  0.00000000000E+00 0.  1.
         11    1    3    3    0    0 -0.10486283701E+03  0.60101787419E+02 -0.10457338870E+03  0.15982500762E+03  0.00000000000E+00 0. -1.
</event>
<event>
 8    1  0.5900800E-006  0.1194969E+03  0.7561462E-02  0.1243929E+00
          1   -1    0    0  501    0  0.00000000000E+00  0.00000000000E+00  0.28333018077E+03  0.28333018077E+03  0.00000000000E+00 0. -1.
         -1   -1    0    0    0  501 -0.00000000000E+00 -0.00000000000E+00 -0.66159278151E+02  0.66159278151E+02  0.00000000000E+00 0.  1.
         23    2    1    2    0    0 -0.22897730236E+02  0.59027965093E+02  0.29538731271E+02  0.11526230057E+03  0.91674721567E+02 0.  0.
         23    2    1    2    0    0  0.22897730236E+02 -0.59027965093E+02  0.18763217134E+03  0.23422715835E+03  0.12509165948E+03 0.  0.
          5    1    4    4  502    0 -0.44889838758E+02 -0.16815367560E+02  0.27963308595E+02  0.55653151191E+02  0.41800000000E+01 0. -1.
         -5    1    4    4    0  502  0.67787568994E+02 -0.42212597532E+02  0.15966886275E+03  0.17857400716E+03  0.41800000000E+01 0. -1.
        -11    1    3    3    0    0  0.22849459481E+02  0.60980921627E+02  0.22707533317E+02  0.68966677971E+02  0.00000000000E+00 0.  1.
         11    1    3    3    0    0 -0.45747189717E+02 -0.19529565343E+01  0.68311979541E+01  0.46295622597E+02  0.00000000000E+00 0. -1.
</event>
<event>
 8    1  0.5900800E-006  0.1522502E+03  0.7561462E-02  0.1197735E+00
          1   -1    0    0  501    0  0.00000000000E+00  0.00000000000E+00  0.74433794727E+03  0.74433794727E+03  0.00000000000E+00 0. -1.
         -1   -1    0    0    0  501 -0.00000000000E+00 -0.00000000000E+00 -0.36070675354E+02  0.36070675354E+02  0.00000000000E+00 0.  1.
         23    2    1    2    0    0 -0.35788864672E+02  0.10657385793E+03  0.24845256064E+03  0.29100119954E+03  0.10155881654E+03 0.  0.
         23    2    1    2    0    0  0.35788864672E+02 -0.10657385793E+03  0.45981471128E+03  0.48940742308E+03  0.12430296471E+03 0.  0.
          5    1    4    4  502    0  0.65549573103E+02 -0.31336940943E+02  0.31668066894E+03  0.32493517643E+03  0.41800000000E+01 0. -1.
         -5    1    4    4    0  502 -0.29760708431E+02 -0.75236916983E+02  0.14313404233E+03  0.16447224665E+03  0.41800000000E+01 0.  1.
        -11    1    3    3    0    0  0.47994067944E+00  0.11373758678E+03  0.17401491397E+03  0.20788857418E+03  0.00000000000E+00 0.  1.
         11    1    3    3    0    0 -0.36268805352E+02 -0.71637288569E+01  0.74437646664E+02  0.83112625356E+02  0.00000000000E+00 0. -1.
</event>
<event>
 8    1  0.5900800E-006  0.8074870E+02  0.7561462E-02  0.1326940E+00
          3   -1    0    0  501    0  0.00000000000E+00  0.00000000000E+00  0.17778327718E+03  0.17778327718E+03  0.00000000000E+00 0. -1.
         -3   -1    0    0    0  501 -0.00000000000E+00 -0.00000000000E+00 -0.16153435571E+03  0.16153435571E+03  0.00000000000E+00 0.  1.
         23    2    1    2    0    0  0.65802572341E+02  0.14787452038E+02 -0.10445896261E+03  0.15285947388E+03  0.88913984398E+02 0.  0.
         23    2    1    2    0    0 -0.65802572341E+02 -0.14787452038E+02  0.12070788408E+03  0.18645815901E+03  0.12509038539E+03 0.  0.
          5    1    4    4  502    0 -0.64908051615E+02  0.26469448337E+01  0.14342404763E+03  0.15750552790E+03  0.41800000000E+01 0. -1.
         -5    1    4    4    0  502 -0.89452072555E+00 -0.17434396872E+02 -0.22716163548E+02  0.28952631106E+02  0.41800000000E+01 0. -1.
        -11    1    3    3    0    0  0.62823423207E+02  0.25148063828E+02 -0.11771127415E+03  0.13577610865E+03  0.00000000000E+00 0.  1.
         11    1    3    3    0    0  0.29791491335E+01 -0.10360611790E+02  0.13252311546E+02  0.17083365229E+02  0.00000000000E+00 0. -1.
</event>
<event>
 8    1  0.5900800E-006  0.1979460E+03  0.7561462E-02  0.1151484E+00
         -2   -1    0    0    0  501 -0.00000000000E+00  0.00000000000E+00  0.65452021154E+02  0.65452021154E+02  0.00000000000E+00 0. -1.
          2   -1    0    0  501    0  0.00000000000E+00 -0.00000000000E+00 -0.88869940559E+03  0.88869940559E+03  0.00000000000E+00 0.  1.
         23    2    1    2    0    0  0.10371146411E+03  0.15825088104E+03 -0.19722599947E+03  0.28829347439E+03  0.91736706788E+02 0.  0.
         23    2    1    2    0    0 -0.10371146411E+03 -0.15825088104E+03 -0.62602138497E+03  0.66585795236E+03  0.12515841619E+03 0.  0.
          5    1    4    4  502    0 -0.45194184813E+02 -0.13157500954E+02 -0.30588620464E+03  0.30951490555E+03  0.41800000000E+01 0. -1.
         -5    1    4    4    0  502 -0.58517279294E+02 -0.14509338008E+03 -0.32013518033E+03  0.35634304680E+03  0.41800000000E+01 0. -1.
        -11    1    3    3    0    0  0.37595642528E+02  0.30995417388E+02 -0.11034097607E+03  0.12062039312E+03  0.00000000000E+00 0.  1.
         11    1    3    3    0    0  0.66115821579E+02  0.12725546365E+03 -0.86885023400E+02  0.16767308127E+03  0.00000000000E+00 0. -1.
</event>
<event>
 8    1  0.5900800E-006  0.8176921E+02  0.7561462E-02  0.1324104E+00
         -2   -1    0    0    0  501 -0.00000000000E+00  0.00000000000E+00  0.46337834509E+02  0.46337834509E+02  0.00000000000E+00 0.  1.
          2   -1    0    0  501    0  0.00000000000E+00 -0.00000000000E+00 -0.61904964427E+03  0.61904964427E+03  0.00000000000E+00 0. -1.
         23    2    1    2    0    0 -0.51767136213E+01  0.55746675653E+01 -0.13370283335E+02  0.92178653374E+02  0.90885996606E+02 0.  0.
         23    2    1    2    0    0  0.51767136213E+01 -0.55746675653E+01 -0.55934152643E+03  0.57320882541E+03  0.12509012373E+03 0.  0.
          5    1    4    4  502    0 -0.31754113309E+02 -0.20996407641E+02 -0.53636384309E+02  0.65905287857E+02  0.41800000000E+01 0.  1.
         -5    1    4    4    0  502  0.36930826930E+02  0.15421740075E+02 -0.50570514212E+03  0.50730353755E+03  0.41800000000E+01 0.  1.
        -11    1    3    3    0    0 -0.37690218453E+02  0.26735137611E+02 -0.23841280783E+02  0.51997373198E+02  0.00000000000E+00 0.  1.
         11    1    3    3    0    0  0.32513504832E+02 -0.21160470046E+02  0.10470997447E+02  0.40181280176E+02  0.00000000000E+00 0. -1.
</event>
<event>
 8    1  0.5900800E-006  0.1141475E+03  0.7561462E-02  0.1253076E+00
         -1   -1    0    0    0  501 -0.00000000000E+00  0.00000000000E+00  0.93398945883E+02  0.93398945883E+02  0.00000000000E+00 0.  1.
          1   -1    0    0  501    0  0.00000000000E+00 -0.00000000000E+00 -0.17704003195E+03  0.17704003195E+03  0.00000000000E+00 0. -1.
         23    2    1    2    0    0 -0.79301540619E+01 -0.58693881465E+02  0.94282394633E+00  0.10823414191E+03  0.90586320670E+02 0.  0.
         23    2    1    2    0    0  0.79301540619E+01  0.58693881465E+02 -0.84583910013E+02  0.16220483593E+03  0.12509241344E+03 0.  0.
          5    1    4    4  502    0 -0.33833366199E+02  0.77768374994E+02 -0.28420154923E+02  0.89542137697E+02  0.41800000000E+01 0.  1.
         -5    1    4    4    0  502  0.41763520261E+02 -0.19074493529E+02 -0.56163755091E+02  0.72662698228E+02  0.41800000000E+01 0.  1.
        -11    1    3    3    0    0 -0.39172565653E+02 -0.11762856780E+02 -0.23065442678E+02  0.46956036304E+02  0.00000000000E+00 0. -1.
         11    1    3    3    0    0  0.31242411591E+02 -0.46931024685E+02  0.24008266624E+02  0.61278105603E+02  0.00000000000E+00 0.  1.
</event>
<event>
 8    1  0.5900800E-006  0.1967684E+03  0.7561462E-02  0.1152495E+00
         -4   -1    0    0    0  501 -0.00000000000E+00  0.00000000000E+00  0.15859807142E+03  0.15859807142E+03  0.00000000000E+00 0.  1.
          4   -1    0    0  501    0  0.00000000000E+00 -0.00000000000E+00 -0.30456703257E+03  0.30456703257E+03  0.00000000000E+00 0. -1.
         23    2    1    2    0    0  0.70247601029E+02  0.17600137989E+03 -0.49606787743E+02  0.21649854456E+03  0.92193140924E+02 0.  0.
         23    2    1    2    0    0 -0.70247601029E+02 -0.17600137989E+03 -0.96362173407E+02  0.24666655942E+03  0.12509001520E+03 0.  0.
          5    1    4    4  502    0 -0.21889649945E+02 -0.88199723913E+00  0.20761595305E+02  0.30470492833E+02  0.41800000000E+01 0. -1.
         -5    1    4    4    0  502 -0.48357951084E+02 -0.17511938265E+03 -0.11712376871E+03  0.21619606659E+03  0.41800000000E+01 0. -1.
        -11    1    3    3    0    0  0.54297371472E+02  0.13818963826E+03  0.45565933299E+01  0.14854407836E+03  0.00000000000E+00 0. -1.
         11    1    3    3    0    0  0.15950229557E+02  0.37811741624E+02 -0.54163381073E+02  0.67954466202E+02  0.00000000000E+00 0.  1.
</event>
<event>
 8    1  0.5900800E-006  0.1175664E+03  0.7561462E-02  0.1247167E+00
          1   -1    0    0  501    0  0.00000000000E+00  0.00000000000E+00  0.79412119973E+02  0.79412119973E+02  0.00000000000E+00 0. -1.
         -1   -1    0    0    0  501 -0.00000000000E+00 -0.00000000000E+00 -0.18977831552E+03  0.18977831552E+03  0.00000000000E+00 0.  1.
         23    2    1    2    0    0 -0.17325028337E+02 -0.52064375465E+02 -0.48023871765E+02  0.11903826537E+03  0.94090172509E+02 0.  0.
         23    2    1    2    0    0  0.17325028337E+02  0.52064375465E+02 -0.62342323785E+02  0.15015217013E+03  0.12509297766E+03 0.  0.
          5    1    4    4  502    0  0.11227744002E+02 -0.36024098906E+02 -0.47024794492E+02  0.60436757312E+02  0.41800000000E+01 0.  1.
         -5    1    4    4    0  502  0.60972843352E+01  0.88088474371E+02 -0.15317529293E+02  0.89715412817E+02  0.41800000000E+01 0.  1.
        -11    1    3    3    0    0 -0.36592399081E+01 -0.78725879551E+02 -0.37561682558E+02  0.87304261891E+02  0.00000000000E+00 0.  1.
         11    1    3    3    0    0 -0.13665788429E+02  0.26661504087E+02 -0.10462189207E+02  0.31734003475E+02  0.00000000000E+00 0. -1.
</event>
<event>
 8    1  0.5900800E-006  0.1108949E+03  0.7561462E-02  0.1258922E+00
         -2   -1    0    0    0  501 -0.00000000000E+00  0.00000000000E+00  0.56218990502E+03  0.56218990502E+03  0.00000000000E+00 0.  1.
          2   -1    0    0  501    0  0.00000000000E+00 -0.00000000000E+00 -0.36175496387E+02  0.36175496387E+02  0.00000000000E+00 0. -1.
         23    2    1    2    0    0 -0.30813382299E+02 -0.33699345307E+02  0.40804266583E+03  0.42046106725E+03  0.90573624934E+02 0.  0.
         23    2    1    2    0    0  0.30813382299E+02  0.33699345307E+02  0.11797174280E+03  0.17790433416E+03  0.12509000603E+03 0.  0.
          5    1    4    4  502    0 -0.39702864293E+02  0.32873809676E+02  0.86021935878E+02  0.10037056664E+03  0.41800000000E+01 0.  1.
         -5    1    4    4    0  502  0.70516246592E+02  0.82553563049E+00  0.31949806927E+02  0.77533767516E+02  0.41800000000E+01 0.  1.
        -11    1    3    3    0    0  0.14816830520E+02 -0.49087117178E+02  0.16861269215E+03  0.17623655550E+03  0.00000000000E+00 0. -1.
         11    1    3    3    0    0 -0.45630212819E+02  0.15387771871E+02  0.23942997367E+03  0.24422451175E+03  0.00000000000E+00 0.  1.
</event>
<event>
 8    1  0.5900800E-006  0.6434692E+02  0.7561462E-02  0.1380445E+00
         -2   -1    0    0    0  501 -0.00000000000E+00  0.00000000000E+00  0.29087063785E+03  0.29087063785E+03  0.00000000000E+00 0. -1.
          2   -1    0    0  501    0  0.00000000000E+00 -0.00000000000E+00 -0.40267981208E+02  0.40267981208E+02  0.00000000000E+00 0.  1.
         23    2    1    2    0    0  0.22413241804E+01  0.90934732614E+01  0.99624288571E+02  0.13484848607E+03  0.90395799305E+02 0.  0.
         23    2    1    2    0    0 -0.22413241804E+01 -0.90934732614E+01  0.15097836807E+03  0.19629013299E+03  0.12509050281E+03 0.  0.
          5    1    4    4  502    0 -0.25982509146E+02  0.27760280448E+01  0.16421721501E+03  0.16633569436E+03  0.41800000000E+01 0. -1.
         -5    1    4    4    0  502  0.23741184966E+02 -0.11869501306E+02 -0.13238846943E+02  0.29954438623E+02  0.41800000000E+01 0. -1.
        -11    1    3    3    0    0 -0.19070366874E+02 -0.27232024139E+02  0.83283390801E+02  0.89673771052E+02  0.00000000000E+00 0. -1.
         11    1    3    3    0    0  0.21311691054E+02  0.36325497401E+02  0.16340897771E+02  0.45174715018E+02  0.00000000000E+00 0.  1.
</event>
<event>
 8    1  0.5900800E-006  0.8425280E+02  0.7561462E-02  0.1317398E+00
         -1   -1    0    0    0  501 -0.00000000000E+00  0.00000000000E+00  0.35698406389E+02  0.35698406389E+02  0.00000000000E+00 0.  1.
          1   -1    0    0  501    0  0.00000000000E+00 -0.00000000000E+00 -0.57069134168E+03  0.57069134168E+03  0.00000000000E+00 0. -1.
         23    2    1    2    0    0  0.33781891504E+02  0.37171130187E+02 -0.76872161722E+02  0.12884843763E+03  0.90386290550E+02 0.  0.
         23    2    1    2    0    0 -0.33781891504E+02 -0.37171130187E+02 -0.45812077357E+03  0.47754131044E+03  0.12509256926E+03 0.  0.
          5    1    4    4  502    0  0.79078279792E+01  0.31764783131E+02 -0.40702893556E+02  0.52399743649E+02  0.41800000000E+01 0.  1.
         -5    1    4    4    0  502 -0.41689719483E+02 -0.68935913318E+02 -0.41741788001E+03  0.42514156679E+03  0.41800000000E+01 0.  1.
        -11    1    3    3    0    0  0.29129339493E+02  0.16152512735E+02 -0.95022191099E+02  0.10069080836E+03  0.00000000000E+00 0. -1.
         11    1    3    3    0    0  0.46525520112E+01  0.21018617452E+02  0.18150029377E+02  0.28157629272E+02  0.00000000000E+00 0.  1.
</event>
<event>
 8    1  0.5900800E-006  0.1055502E+03  0.7561462E-02  0.1269039E+00
          2   -1    0    0  501    0  0.00000000000E+00  0.00000000000E+00  0.50077924735E+03  0.50077924735E+03  0.00000000000E+00 0.  1.
         -2   -1    0    0    0  501 -0.00000000000E+00 -0.00000000000E+00 -0.29807090748E+02  0.29807090748E+02  0.00000000000E+00 0. -1.
         23    2    1    2    0    0  0.39472118675E+02  0.32634983422E+02  0.15820675564E+03  0.18986209547E+03  0.91625037367E+02 0.  0.
         23    2    1    2    0    0 -0.39472118675E+02 -0.32634983422E+02  0.31276540097E+03  0.34072424263E+03  0.12509085968E+03 0.  0.
          5    1    4    4  502    0  0.33238925229E+02 -0.14144062665E+02  0.27127388326E+02  0.45367921007E+02  0.41800000000E+01 0.  1.
         -5    1    4    4    0  502 -0.72711043904E+02 -0.18490920757E+02  0.28563801264E+03  0.29535632162E+03  0.41800000000E+01 0.  1.
        -11    1    3    3    0    0 -0.10513907030E+02  0.46538091365E+02  0.10607998058E+03  0.11631551259E+03  0.00000000000E+00 0. -1.
         11    1    3    3    0    0  0.49986025705E+02 -0.13903107943E+02  0.52126775061E+02  0.73546582888E+02  0.00000000000E+00 0.  1.
</event>
<event>
 8    1  0.5900800E-006  0.1095912E+03  0.7561462E-02  0.1261329E+00
         -1   -1    0    0    0  501 -0.00000000000E+00  0.00000000000E+00  0.11884610015E+02  0.11884610015E+02  0.00000000000E+00 0.  1.
          1   -1    0    0  501    0  0.00000000000E+00 -0.00000000000E+00 -0.13255562016E+04  0.13255562016E+04  0.00000000000E+00 0. -1.
         23    2    1    2    0    0  0.69490495984E+02  0.18447885245E+01 -0.58444102922E+03  0.59506640742E+03  0.87751810983E+02 0.  0.
         23    2    1    2    0    0 -0.69490495984E+02 -0.18447885245E+01 -0.72923056235E+03  0.74237440417E+03  0.12045833568E+03 0.  0.
          5    1    4    4  502    0 -0.63602534530E+02  0.33038072321E+02 -0.66552131155E+03  0.66938246553E+03  0.41800000000E+01 0. -1.
         -5    1    4    4    0  502 -0.58879614540E+01 -0.34882860845E+02 -0.63709250792E+02  0.72991938646E+02  0.41800000000E+01 0.  1.
        -11    1    3    3    0    0  0.22941951552E+02  0.43578822310E+02 -0.24076438905E+03  0.24574974655E+03  0.00000000000E+00 0. -1.
         11    1    3    3    0    0  0.46548544432E+02 -0.41734033785E+02 -0.34367664016E+03  0.34931666087E+03  0.00000000000E+00 0.  1.
</event>
<event>
 8    1  0.5900800E-006  0.1270379E+03  0.7561462E-02  0.1231918E+00
         -2   -1    0    0    0  501 -0.00000000000E+00  0.00000000000E+00  0.20127083106E+02  0.20127083106E+02  0.00000000000E+00 0. -1.
          2   -1    0    0  501    0  0.00000000000E+00 -0.00000000000E+00 -0.15038336207E+04  0.15038336207E+04  0.00000000000E+00 0.  1.
         23    2    1    2    0    0 -0.58587677428E+02  0.77382454356E+02 -0.25407818456E+03  0.28418527162E+03  0.82371017639E+02 0.  0.
         23    2    1    2    0    0  0.58587677428E+02 -0.77382454356E+02 -0.12296283531E+04  0.12397754322E+04  0.12504669322E+03 0.  0.
          5    1    4    4  502    0 -0.18725257723E+02 -0.72237904720E+02 -0.77255683058E+03  0.77616395112E+03  0.41800000000E+01 0.  1.
         -5    1    4    4    0  502  0.77312935151E+02 -0.51445496362E+01 -0.45707152248E+03  0.46361148108E+03  0.41800000000E+01 0.  1.
        -11    1    3    3    0    0 -0.47044367151E+02  0.37335161289E+02 -0.22621402111E+03  0.23405099892E+03  0.00000000000E+00 0.  1.
         11    1    3    3    0    0 -0.11543310277E+02  0.40047293067E+02 -0.27864163450E+02  0.50134272698E+02  0.00000000000E+00 0. -1.
</event>
<event>
 8    1  0.5900800E-006  0.9448597E+02  0.7561462E-02  0.1292338E+00
         -2   -1    0    0    0  501 -0.00000000000E+00  0.00000000000E+00  0.17376671047E+03  0.17376671047E+03  0.00000000000E+00 0.  1.
          2   -1    0    0  501    0  0.00000000000E+00 -0.00000000000E+00 -0.23333037281E+03  0.23333037281E+03  0.00000000000E+00 0. -1.
         23    2    1    2    0    0  0.69614900949E+02 -0.25992362107E+02  0.12521796788E+03  0.17190659452E+03  0.91381072650E+02 0.  0.
         23    2    1    2    0    0 -0.69614900949E+02  0.25992362107E+02 -0.18478163022E+03  0.23519048876E+03  0.12509387602E+03 0.  0.
          5    1    4    4  502    0 -0.10756398745E+01  0.41431617908E+02 -0.47930739945E+01  0.41930679960E+02  0.41800000000E+01 0.  1.
         -5    1    4    4    0  502 -0.68539261075E+02 -0.15439255801E+02 -0.17998855622E+03  0.19325980880E+03  0.41800000000E+01 0.  1.
        -11    1    3    3    0    0  0.42041216298E+02 -0.25866320239E+02  0.62151341741E+01  0.49750962637E+02  0.00000000000E+00 0. -1.
         11    1    3    3    0    0  0.27573684651E+02 -0.12604186801E+00  0.11900283370E+03  0.12215563188E+03  0.00000000000E+00 0.  1.
</event>
<event>
 8    1  0.5900800E-006  0.1165872E+03  0.7561462E-02  0.1248836E+00
         -4   -1    0    0    0  501 -0.00000000000E+00  0.00000000000E+00  0.10126313824E+03  0.10126313824E+03  0.00000000000E+00 0. -1.
          4   -1    0    0  501    0  0.00000000000E+00 -0.00000000000E+00 -0.23617949975E+03  0.23617949975E+03  0.00000000000E+00 0.  1.
         23    2    1    2    0    0  0.10165879634E+03 -0.29369958351E+02 -0.93463649224E+02  0.16843850181E+03  0.91863865796E+02 0.  0.
         23    2    1    2    0    0 -0.10165879634E+03  0.29369958351E+02 -0.41452712288E+02  0.16900413617E+03  0.12508783058E+03 0.  0.
          5    1    4    4  502    0 -0.81234906467E+02 -0.78520918841E+01  0.28939078715E+02  0.86693183425E+02  0.41800000000E+01 0.  1.
         -5    1    4    4    0  502 -0.20423889878E+02  0.37222050235E+02 -0.70391791003E+02  0.82310952746E+02  0.41800000000E+01 0.  1.
        -11    1    3    3    0    0  0.66931418527E+02 -0.65803892700E+01 -0.12100764743E+01  0.67265002743E+02  0.00000000000E+00 0. -1.
         11    1    3    3    0    0  0.34727377817E+02 -0.22789569081E+02 -0.92253572749E+02  0.10117349907E+03  0.00000000000E+00 0.  1.
</event>
<event>
 8    1  0.5900800E-006  0.7617429E+02  0.7561462E-02  0.1340273E+00
         -2   -1    0    0    0  501 -0.00000000000E+00  0.00000000000E+00  0.57686715058E+02  0.57686715058E+02  0.00000000000E+00 0. -1.
          2   -1    0    0  501    0  0.00000000000E+00 -0.00000000000E+00 -0.21592995578E+03  0.21592995578E+03  0.00000000000E+00 0.  1.
         23    2    1    2    0    0 -0.17112318014E+02  0.46744955588E+01 -0.43215422171E+02  0.10276009276E+03  0.91528037317E+02 0.  0.
         23    2    1    2    0    0  0.17112318014E+02 -0.46744955588E+01 -0.11502781855E+03  0.17085657807E+03  0.12508352767E+03 0.  0.
          5    1    4    4  502    0  0.51805690496E+02 -0.30850173399E+02 -0.15835395074E+02  0.62480356143E+02  0.41800000000E+01 0. -1.
         -5    1    4    4    0  502 -0.34693372482E+02  0.26175677840E+02 -0.99192423479E+02  0.10837622193E+03  0.41800000000E+01 0. -1.
        -11    1    3    3    0    0 -0.92976944790E+00  0.23445437942E+02 -0.65409995661E+02  0.69491154573E+02  0.00000000000E+00 0.  1.
         11    1    3    3    0    0 -0.16182548566E+02 -0.18770942383E+02  0.22194573490E+02  0.33268938192E+02  0.00000000000E+00 0. -1.
</event>
<event>
 8    1  0.5900800E-006  0.1554250E+03  0.7561462E-02  0.1193961E+00
         -2   -1    0    0    0  501 -0.00000000000E+00  0.00000000000E+00  0.82230123613E+03  0.82230123613E+03  0.00000000000E+00 0.  1.
          2   -1    0    0  501    0  0.00000000000E+00 -0.00000000000E+00 -0.45708022167E+02  0.45708022167E+02  0.00000000000E+00 0. -1.
         23    2    1    2    0    0  0.10451671081E+03  0.67813007782E+02  0.59623276367E+03  0.61561986345E+03  0.89285838394E+02 0.  0.
         23    2    1    2    0    0 -0.10451671081E+03 -0.67813007782E+02  0.18036045029E+03  0.25238939485E+03  0.12509263662E+03 0.  0.
          5    1    4    4  502    0  0.70782334376E+01  0.16008520543E+02 -0.64895928578E+01  0.19130115891E+02  0.41800000000E+01 0.  1.
         -5    1    4    4    0  502 -0.11159494425E+03 -0.83821528324E+02  0.18685004315E+03  0.23325927895E+03  0.41800000000E+01 0.  1.
        -11    1    3    3    0    0  0.46226660697E+02 -0.17896719022E+02  0.18520469667E+03  0.19172369802E+03  0.00000000000E+00 0. -1.
         11    1    3    3    0    0  0.58290050116E+02  0.85709726804E+02  0.41102806699E+03  0.42389616543E+03  0.00000000000E+00 0.  1.
</event>
<event>
 8    1  0.5900800E-006  0.1154853E+03  0.7561462E-02  0.1250736E+00
         -1   -1    0    0    0  501 -0.00000000000E+00  0.00000000000E+00  0.20456147874E+02  0.20456147874E+02  0.00000000000E+00 0.  1.
          1   -1    0    0  501    0  0.00000000000E+00 -0.00000000000E+00 -0.78215966769E+03  0.78215966769E+03  0.00000000000E+00 0. -1.
         23    2    1    2    0    0  0.50610777546E+02  0.41386322013E+02 -0.33793817653E+03  0.35595940186E+03  0.90722688258E+02 0.  0.
         23    2    1    2    0    0 -0.50610777546E+02 -0.41386322013E+02 -0.42376534329E+03  0.44665641371E+03  0.12510238717E+03 0.  0.
          5    1    4    4  502    0 -0.15666320986E+02 -0.82484932668E+02 -0.30053381941E+03  0.31206929798E+03  0.41800000000E+01 0.  1.
         -5    1    4    4    0  502 -0.34944456560E+02  0.41098610655E+02 -0.12323152388E+03  0.13458711573E+03  0.41800000000E+01 0.  1.
        -11    1    3    3    0    0  0.47911770289E+02 -0.33056875665E+01 -0.27231321808E+03  0.27651573924E+03  0.00000000000E+00 0. -1.
         11    1    3    3    0    0  0.26990072571E+01  0.44692009579E+02 -0.65624958446E+02  0.79443662627E+02  0.00000000000E+00 0.  1.
</event>
<event>
 8    1  0.5900800E-006  0.1436639E+03  0.7561462E-02  0.1208482E+00
         -2   -1    0    0    0  501 -0.00000000000E+00  0.00000000000E+00  0.25779139685E+03  0.25779139685E+03  0.00000000000E+00 0.  1.
          2   -1    0    0  501    0  0.00000000000E+00 -0.00000000000E+00 -0.15144898503E+03  0.15144898503E+03  0.00000000000E+00 0. -1.
         23    2    1    2    0    0 -0.91535744667E+02 -0.69351127615E+02  0.17538057425E+03  0.22593070675E+03  0.84249433099E+02 0.  0.
         23    2    1    2    0    0  0.91535744667E+02  0.69351127615E+02 -0.69038162428E+02  0.18330967513E+03  0.12509115745E+03 0.  0.
          5    1    4    4  502    0  0.11680920763E+03  0.77211109172E+02 -0.44515198384E+02  0.14698646759E+03  0.41800000000E+01 0.  1.
         -5    1    4    4    0  502 -0.25273462966E+02 -0.78599815575E+01 -0.24522964044E+02  0.36323207539E+02  0.41800000000E+01 0.  1.
        -11    1    3    3    0    0 -0.53435536944E+01 -0.20899238258E+02  0.98078093541E+02  0.10042232898E+03  0.00000000000E+00 0.  1.
         11    1    3    3    0    0 -0.86192190973E+02 -0.48451889357E+02  0.77302480704E+02  0.12550837777E+03  0.00000000000E+00 0. -1.
</event>
<event>
 8    1  0.5900800E-006  0.1062176E+03  0.7561462E-02  0.1267739E+00
          2   -1    0    0  501    0  0.00000000000E+00  0.00000000000E+00  0.69744475442E+03  0.69744475442E+03  0.00000000000E+00 0. -1.
         -2   -1    0    0    0  501 -0.00000000000E+00 -0.00000000000E+00 -0.22594062967E+02  0.22594062967E+02  0.00000000000E+00 0.  1.
         23    2    1    2    0    0  0.24015425870E+02 -0.22320035332E+02  0.22513539494E+03  0.25210647586E+03  0.10861309526E+03 0.  0.
         23    2    1    2    0    0 -0.24015425870E+02  0.22320035332E+02  0.44971529651E+03  0.46793234152E+03  0.12506759639E+03 0.  0.
          5    1    4    4  502    0  0.38798661268E+02 -0.21227139734E+02  0.92585695143E+02  0.10269133811E+03  0.41800000000E+01 0. -1.
         -5    1    4    4    0  502 -0.62814087138E+02  0.43547175067E+02  0.35712960137E+03  0.36524100341E+03  0.41800000000E+01 0. -1.
        -11    1    3    3    0    0  0.30290096643E+02 -0.52515460604E+02  0.20835629753E+03  0.21699702827E+03  0.00000000000E+00 0. -1.
         11    1    3    3    0    0 -0.62746707729E+01  0.30195425271E+02  0.16779097408E+02  0.35109447595E+02  0.00000000000E+00 0.  1.
</event>
<event>
 8    1  0.5900800E-006  0.7289763E+02  0.7561462E-02  0.1350508E+00
          2   -1    0    0  501    0  0.00000000000E+00  0.00000000000E+00  0.11302198579E+04  0.11302198579E+04  0.00000000000E+00 0. -1.
         -2   -1    0    0    0  501 -0.00000000000E+00 -0.00000000000E+00 -0.14420012987E+02  0.14420012987E+02  0.00000000000E+00 0.  1.
         23    2    1    2    0    0 -0.23270678647E+02 -0.80509266233E+01  0.24118975741E+03  0.26078635298E+03  0.96076432673E+02 0.  0.
         23    2    1    2    0    0  0.23270678647E+02  0.80509266233E+01  0.87461008745E+03  0.88385351786E+03  0.12509154270E+03 0.  0.
          5    1    4    4  502    0 -0.52617962580E+00  0.19449266682E+02  0.18019154188E+02  0.26846101340E+02  0.41800000000E+01 0. -1.
         -5    1    4    4    0  502  0.23796858273E+02 -0.11398340059E+02  0.85659093327E+03  0.85700741652E+03  0.41800000000E+01 0. -1.
        -11    1    3    3    0    0  0.16926778818E+02  0.35856525115E+02  0.95671921337E+02  0.10356313421E+03  0.00000000000E+00 0. -1.
         11    1    3    3    0    0 -0.40197457466E+02 -0.43907451738E+02  0.14551783607E+03  0.15722321877E+03  0.00000000000E+00 0.  1.
</event>
<event>
 8    1  0.5900800E-006  0.1114566E+03  0.7561462E-02  0.1257896E+00
         -1   -1    0    0    0  501 -0.00000000000E+00  0.00000000000E+00  0.37961272415E+02  0.37961272415E+02  0.00000000000E+00 0.  1.
          1   -1    0    0  501    0  0.00000000000E+00 -0.00000000000E+00 -0.42472831362E+03  0.42472831362E+03  0.00000000000E+00 0. -1.
         23    2    1    2    0    0  0.16722344934E+02  0.24830261468E+02 -0.66586330037E+02  0.11764035157E+03  0.92246052837E+02 0.  0.
         23    2    1    2    0    0 -0.16722344934E+02 -0.24830261468E+02 -0.32018071117E+03  0.34504923447E+03  0.12508839954E+03 0.  0.
          5    1    4    4  502    0  0.44950757570E+02  0.21229756866E+02 -0.99782717941E+02  0.11155866789E+03  0.41800000000E+01 0.  1.
         -5    1    4    4    0  502 -0.61673102504E+02 -0.46060018333E+02 -0.22039799323E+03  0.23349056658E+03  0.41800000000E+01 0.  1.
        -11    1    3    3    0    0  0.27638261752E+02 -0.29557006527E+02 -0.19692577142E+02  0.45003197020E+02  0.00000000000E+00 0.  1.
         11    1    3    3    0    0 -0.10915916818E+02  0.54387267994E+02 -0.46893752895E+02  0.72637154546E+02  0.00000000000E+00 0. -1.
</event>
<event>
 8    1  0.5900800E-006  0.1822373E+03  0.7561462E-02  0.1165655E+00
          2   -1    0    0  501    0  0.00000000000E+00  0.00000000000E+00  0.88973492750E+03  0.88973492750E+03  0.00000000000E+00 0.  1.
         -2   -1    0    0    0  501 -0.00000000000E+00 -0.00000000000E+00 -0.39934863837E+02  0.39934863837E+02  0.00000000000E+00 0. -1.
         23    2    1    2    0    0  0.72957174792E+02  0.13354321775E+03  0.35799634093E+03  0.39988355360E+03  0.92676512448E+02 0.  0.
         23    2    1    2    0    0 -0.72957174792E+02 -0.13354321775E+03  0.49180372273E+03  0.52978623774E+03  0.12508403431E+03 0.  0.
          5    1    4    4  502    0  0.14604126776E+02 -0.85627863930E+02  0.31420226575E+03  0.32601525701E+03  0.41800000000E+01 0.  1.
         -5    1    4    4    0  502 -0.87561301568E+02 -0.47915353821E+02  0.17760145698E+03  0.20377098073E+03  0.41800000000E+01 0.  1.
        -11    1    3    3    0    0  0.89658959505E+02  0.75511593615E+02  0.25098672790E+03  0.27701095172E+03  0.00000000000E+00 0.  1.
         11    1    3    3    0    0 -0.16701784713E+02  0.58031624136E+02  0.10700961303E+03  0.12287260189E+03  0.00000000000E+00 0. -1.
</event>
<event>
 8    1  0.5900800E-006  0.8114064E+02  0.7561462E-02  0.1325845E+00
          1   -1    0    0  501    0  0.00000000000E+00  0.00000000000E+00  0.40646080206E+03  0.40646080206E+03  0.00000000000E+00 0. -1.
         -1   -1    0    0    0  501 -0.00000000000E+00 -0.00000000000E+00 -0.37779096093E+02  0.37779096093E+02  0.00000000000E+00 0.  1.
         23    2    1    2    0    0 -0.41234912118E+02 -0.27616198450E+01  0.80436050834E+02  0.12731578384E+03  0.89618112121E+02 0.  0.
         23    2    1    2    0    0  0.41234912118E+02  0.27616198450E+01  0.28824565514E+03  0.31692411431E+03  0.12508953596E+03 0.  0.
          5    1    4    4  502    0 -0.17270831177E+02 -0.10608164526E+02 -0.17361048859E+01  0.20767792958E+02  0.41800000000E+01 0.  1.
         -5    1    4    4    0  502  0.58505743295E+02  0.13369784371E+02  0.28998176002E+03  0.29615632135E+03  0.41800000000E+01 0.  1.
        -11    1    3    3    0    0  0.78814528962E+01 -0.25943768822E+02 -0.35008994116E+01  0.27339581875E+02  0.00000000000E+00 0.  1.
         11    1    3    3    0    0 -0.49116365014E+02  0.23182148977E+02  0.83936950245E+02  0.99976201967E+02  0.00000000000E+00 0. -1.
</event>
<event>
 8    1  0.5900800E-006  0.1732267E+03  0.7561462E-02  0.1174524E+00
         -3   -1    0    0    0  501 -0.00000000000E+00  0.00000000000E+00  0.25880621320E+03  0.25880621320E+03  0.00000000000E+00 0.  1.
          3   -1    0    0  501    0  0.00000000000E+00 -0.00000000000E+00 -0.17700670615E+03  0.17700670615E+03  0.00000000000E+00 0. -1.
         23    2    1    2    0    0 -0.14452368763E+03 -0.93130556936E+02  0.10434133665E+03  0.22200175951E+03  0.94006753854E+02 0.  0.
         23    2    1    2    0    0  0.14452368763E+03  0.93130556936E+02 -0.22541829603E+02  0.21381115985E+03  0.12508669423E+03 0.  0.
          5    1    4    4  502    0  0.11892190072E+02  0.47569058426E+01 -0.50218939867E+02  0.51994871471E+02  0.41800000000E+01 0.  1.
         -5    1    4    4    0  502  0.13263149756E+03  0.88373651094E+02  0.27677110264E+02  0.16181628838E+03  0.41800000000E+01 0.  1.
        -11    1    3    3    0    0 -0.10638333202E+03 -0.80372484566E+02  0.28776604380E+02  0.13640103580E+03  0.00000000000E+00 0. -1.
         11    1    3    3    0    0 -0.38140355603E+02 -0.12758072371E+02  0.75564732271E+02  0.85600723708E+02  0.00000000000E+00 0.  1.
</event>
<event>
 8    1  0.5900800E-006  0.2284344E+03  0.7561462E-02  0.1127747E+00
          2   -1    0    0  501    0  0.00000000000E+00  0.00000000000E+00  0.65828286959E+03  0.65828286959E+03  0.00000000000E+00 0.  1.
         -2   -1    0    0    0  501 -0.00000000000E+00 -0.00000000000E+00 -0.83077621075E+02  0.83077621075E+02  0.00000000000E+00 0. -1.
         23    2    1    2    0    0 -0.13359965705E+03 -0.15753834902E+03  0.26753730959E+03  0.35024266605E+03  0.91796041995E+02 0.  0.
         23    2    1    2    0    0  0.13359965705E+03  0.15753834902E+03  0.30766793893E+03  0.39111782462E+03  0.12508553999E+03 0.  0.
          5    1    4    4  502    0  0.42183610706E+02 -0.78635131854E+01  0.21559269387E+02  0.48203385237E+02  0.41800000000E+01 0.  1.
         -5    1    4    4    0  502  0.91416046343E+02  0.16540186220E+03  0.28610866954E+03  0.34291443938E+03  0.41800000000E+01 0.  1.
        -11    1    3    3    0    0 -0.78486776642E+02 -0.26951227759E+02  0.80997491870E+02  0.11596178886E+03  0.00000000000E+00 0. -1.
         11    1    3    3    0    0 -0.55112880407E+02 -0.13058712126E+03  0.18653981772E+03  0.23428087719E+03  0.00000000000E+00 0.  1.
</event>
<event>
 8    1  0.5900800E-006  0.1098081E+03  0.7561462E-02  0.1260926E+00
         -1   -1    0    0    0  501 -0.00000000000E+00  0.00000000000E+00  0.10625597731E+03  0.10625597731E+03  0.00000000000E+00 0.  1.
          1   -1    0    0  501    0  0.00000000000E+00 -0.00000000000E+00 -0.12754756316E+03  0.12754756316E+03  0.00000000000E+00 0. -1.
         23    2    1    2    0    0 -0.77973624579E+01  0.41006975345E+02  0.33157144986E+01  0.99656386436E+02  0.90432463787E+02 0.  0.
         23    2    1    2    0    0  0.77973624579E+01 -0.41006975345E+02 -0.24607300347E+02  0.13414715403E+03  0.12509024269E+03 0.  0.
          5    1    4    4  502    0  0.46771674264E+02  0.21565954843E+02  0.99517900882E+01  0.52623098043E+02  0.41800000000E+01 0.  1.
         -5    1    4    4    0  502 -0.38974311806E+02 -0.62572930187E+02 -0.34559090435E+02  0.81524055988E+02  0.41800000000E+01 0.  1.
        -11    1    3    3    0    0 -0.62108185467E+00  0.67070155446E+02 -0.12657410107E+02  0.68256878956E+02  0.00000000000E+00 0. -1.
         11    1    3    3    0    0 -0.71762806032E+01 -0.26063180102E+02  0.15973124606E+02  0.31399507480E+02  0.00000000000E+00 0.  1.
</event>
<event>
 8    1  0.5900800E-006  0.2714997E+03  0.7561462E-02  0.1100424E+00
         -2   -1    0    0    0  501 -0.00000000000E+00  0.00000000000E+00  0.21834037921E+03  0.21834037921E+03  0.00000000000E+00 0.  1.
          2   -1    0    0  501    0  0.00000000000E+00 -0.00000000000E+00 -0.36701532029E+03  0.36701532029E+03  0.00000000000E+00 0. -1.
         23    2    1    2    0    0  0.20555731334E+03 -0.14737875299E+03 -0.72227060430E+01  0.26971290816E+03  0.93373333692E+02 0.  0.
         23    2    1    2    0    0 -0.20555731334E+03  0.14737875299E+03 -0.14145223504E+03  0.31564279134E+03  0.12508929222E+03 0.  0.
          5    1    4    4  502    0 -0.33615794474E+02  0.95989661413E+02 -0.63254330167E+02  0.11984414638E+03  0.41800000000E+01 0.  1.
         -5    1    4    4    0  502 -0.17194151887E+03  0.51389091574E+02 -0.78197904875E+02  0.19579864496E+03  0.41800000000E+01 0.  1.
        -11    1    3    3    0    0  0.56081032550E+02 -0.80105534809E+02  0.28690961079E+02  0.10190755696E+03  0.00000000000E+00 0.  1.
         11    1    3    3    0    0  0.14947628079E+03 -0.67273218178E+02 -0.35913667122E+02  0.16780535119E+03  0.00000000000E+00 0. -1.
</event>
<event>
 8    1  0.5900800E-006  0.3674540E+03  0.7561462E-02  0.1055671E+00
         -1   -1    0    0    0  501 -0.00000000000E+00  0.00000000000E+00  0.25479454897E+03  0.25479454897E+03  0.00000000000E+00 0.  1.
          1   -1    0    0  501    0  0.00000000000E+00 -0.00000000000E+00 -0.86278176702E+03  0.86278176702E+03  0.00000000000E+00 0. -1.
         23    2    1    2    0    0  0.29143919486E+03  0.22190330199E+03  0.22399799009E+02  0.37783858418E+03  0.89901974204E+02 0.  0.
         23    2    1    2    0    0 -0.29143919486E+03 -0.22190330199E+03 -0.63038701706E+03  0.73973773182E+03  0.12508493460E+03 0.  0.
          5    1    4    4  502    0 -0.59972336345E+02 -0.42029774902E+02 -0.47825021443E+02  0.87566478637E+02  0.41800000000E+01 0. -1.
         -5    1    4    4    0  502 -0.23146685851E+03 -0.17987352709E+03 -0.58256199561E+03  0.65217125318E+03  0.41800000000E+01 0. -1.
        -11    1    3    3    0    0  0.10331705200E+03  0.10269248244E+03  0.48657389987E+02  0.15358287920E+03  0.00000000000E+00 0.  1.
         11    1    3    3    0    0  0.18812214286E+03  0.11921081955E+03 -0.26257590978E+02  0.22425570497E+03  0.00000000000E+00 0. -1.
</event>
<event>
 8    1  0.5900800E-006  0.1042324E+03  0.7561462E-02  0.1271639E+00
          2   -1    0    0  501    0  0.00000000000E+00  0.00000000000E+00  0.55891606343E+03  0.55891606343E+03  0.00000000000E+00 0. -1.
         -2   -1    0    0    0  501 -0.00000000000E+00 -0.00000000000E+00 -0.28136012728E+02  0.28136012728E+02  0.00000000000E+00 0.  1.
         23    2    1    2    0    0  0.54089491089E+02  0.34475704448E+02  0.22507150333E+03  0.25057013008E+03  0.89520730765E+02 0.  0.
         23    2    1    2    0    0 -0.54089491089E+02 -0.34475704448E+02  0.30570854737E+03  0.33648194607E+03  0.12509251317E+03 0.  0.
          5    1    4    4  502    0 -0.72337577544E+02 -0.16309294473E+01  0.81317167200E+02  0.10892813749E+03  0.41800000000E+01 0.  1.
         -5    1    4    4    0  502  0.18248086455E+02 -0.32844775001E+02  0.22439138017E+03  0.22755380858E+03  0.41800000000E+01 0.  1.
        -11    1    3    3    0    0  0.71932606952E+02  0.18597370993E+02  0.10800927037E+03  0.13109601305E+03  0.00000000000E+00 0.  1.
         11    1    3    3    0    0 -0.17843115863E+02  0.15878333455E+02  0.11706223296E+03  0.11947411704E+03  0.00000000000E+00 0. -1.
</event>
<event>
 8    1  0.5900800E-006  0.1393855E+03  0.7561462E-02  0.1214158E+00
          2   -1    0    0  501    0  0.00000000000E+00  0.00000000000E+00  0.72282565079E+03  0.72282565079E+03  0.00000000000E+00 0. -1.
         -2   -1    0    0    0  501 -0.00000000000E+00 -0.00000000000E+00 -0.45268936482E+02  0.45268936482E+02  0.00000000000E+00 0.  1.
         23    2    1    2    0    0 -0.11352921529E+03  0.35096675657E+01  0.13140487319E+03  0.19640388024E+03  0.91684475152E+02 0.  0.
         23    2    1    2    0    0  0.11352921529E+03 -0.35096675657E+01  0.54615184111E+03  0.57169070703E+03  0.12508889024E+03 0.  0.
          5    1    4    4  502    0 -0.11623167832E+02 -0.13601635369E+02  0.24087882114E+03  0.24157852013E+03  0.41800000000E+01 0.  1.
         -5    1    4    4    0  502  0.12515238312E+03  0.10091967803E+02  0.30527301997E+03  0.33011218690E+03  0.41800000000E+01 0.  1.
        -11    1    3    3    0    0 -0.47162043538E+02  0.37454399382E+02  0.22209167634E+02  0.64189855201E+02  0.00000000000E+00 0.  1.
         11    1    3    3    0    0 -0.66367171752E+02 -0.33944731817E+02  0.10919570556E+03  0.13221402504E+03  0.00000000000E+00 0. -1.
</event>
<event>
 7    1  0.5900800E-006  0.8229261E+02  0.7561462E-02  0.1322668E+00
         -2   -1    0    0    0  501 -0.00000000000E+00  0.00000000000E+00  0.79402699626E+02  0.79402699626E+02  0.00000000000E+00 0.  1.
          2   -1    0    0  501    0  0.00000000000E+00 -0.00000000000E+00 -0.23010852084E+03  0.23010852084E+03  0.00000000000E+00 0. -1.
         23    2    1    2    0    0 -0.23078534668E+02  0.26479829856E+02 -0.11686242565E+03  0.16810213534E+03  0.11561877539E+03 0.  0.
          5    1    3    3  502    0 -0.22959894118E+02  0.30228619706E+02 -0.13957520082E+03  0.14470533947E+03  0.41800000000E+01 0. -1.
         -5    1    3    3    0  502 -0.11864055060E+00 -0.37487898500E+01  0.22712775167E+02  0.23396795864E+02  0.41800000000E+01 0.  1.
        -11    1    1    2    0    0 -0.42228526922E+02 -0.35093919890E+02 -0.49249603321E+02  0.73758763049E+02  0.00000000000E+00 0. -1.
         11    1    1    2    0    0  0.65307061591E+02  0.86140900342E+01  0.15406207757E+02  0.67650322085E+02  0.00000000000E+00 0.  1.
</event>
<event>
 8    1  0.5900800E-006  0.1605897E+03  0.7561462E-02  0.1188033E+00
          2   -1    0    0  501    0  0.00000000000E+00  0.00000000000E+00  0.48046828717E+03  0.48046828717E+03  0.00000000000E+00 0.  1.
         -2   -1    0    0    0  501 -0.00000000000E+00 -0.00000000000E+00 -0.69573466871E+02  0.69573466871E+02  0.00000000000E+00 0. -1.
         23    2    1    2    0    0  0.25955734724E+02  0.12925711687E+03  0.98117689569E+02  0.18829853624E+03  0.91913847247E+02 0.  0.
         23    2    1    2    0    0 -0.25955734724E+02 -0.12925711687E+03  0.31277713073E+03  0.36174321780E+03  0.12509004633E+03 0.  0.
          5    1    4    4  502    0  0.15063691741E+02  0.20369972898E+02  0.33151671818E+02  0.41932759855E+02  0.41800000000E+01 0.  1.
         -5    1    4    4    0  502 -0.41019426465E+02 -0.14962708977E+03  0.27962545891E+03  0.31981045794E+03  0.41800000000E+01 0.  1.
        -11    1    3    3    0    0 -0.13693833929E+02  0.47487287862E+02  0.82383433436E+02  0.96070774436E+02  0.00000000000E+00 0.  1.
         11    1    3    3    0    0  0.39649568653E+02  0.81769829011E+02  0.15734256133E+02  0.92227761801E+02  0.00000000000E+00 0. -1.
</event>
<event>
 8    1  0.5900800E-006  0.1511213E+03  0.7561462E-02  0.1199102E+00
         -1   -1    0    0    0  501 -0.00000000000E+00  0.00000000000E+00  0.12594044953E+02  0.12594044953E+02  0.00000000000E+00 0.  1.
          1   -1    0    0  501    0  0.00000000000E+00 -0.00000000000E+00 -0.24311614400E+04  0.24311614400E+04  0.00000000000E+00 0. -1.
         23    2    1    2    0    0  0.98849764563E+02  0.36327073609E+02 -0.52101575407E+03  0.53917046719E+03  0.90313035969E+02 0.  0.
         23    2    1    2    0    0 -0.98849764563E+02 -0.36327073609E+02 -0.18975516410E+04  0.19045850178E+04  0.12510366698E+03 0.  0.
          5    1    4    4  502    0  0.29798487064E+02 -0.12610330501E+02 -0.36666043167E+03  0.36810910722E+03  0.41800000000E+01 0. -1.
         -5    1    4    4    0  502 -0.12864825163E+03 -0.23716743107E+02 -0.15308912093E+04  0.15364759106E+04  0.41800000000E+01 0. -1.
        -11    1    3    3    0    0 -0.97204355624E+01  0.28236374959E+02 -0.11298862912E+03  0.11686834494E+03  0.00000000000E+00 0.  1.
         11    1    3    3    0    0  0.10857020013E+03  0.80906986500E+01 -0.40802712495E+03  0.42230212224E+03  0.00000000000E+00 0. -1.
</event>
<event>
 8    1  0.5900800E-006  0.1315398E+03  0.7561462E-02  0.1225189E+00
         -1   -1    0    0    0  501 -0.00000000000E+00  0.00000000000E+00  0.58955829502E+02  0.58955829502E+02  0.00000000000E+00 0.  1.
          1   -1    0    0  501    0  0.00000000000E+00 -0.00000000000E+00 -0.52350941858E+03  0.52350941858E+03  0.00000000000E+00 0. -1.
         23    2    1    2    0    0  0.82637031671E+02 -0.84944948147E+02 -0.98799180976E+02  0.17815183117E+03  0.89063312138E+02 0.  0.
         23    2    1    2    0    0 -0.82637031671E+02  0.84944948147E+02 -0.36575440810E+03  0.40431341691E+03  0.12509407992E+03 0.  0.
          5    1    4    4  502    0  0.72207975862E+00 -0.12732484096E+02  0.30566540096E+01  0.13764195733E+02  0.41800000000E+01 0. -1.
         -5    1    4    4    0  502 -0.83359111429E+02  0.97677432243E+02 -0.36881106211E+03  0.39054922118E+03  0.41800000000E+01 0. -1.
        -11    1    3    3    0    0  0.88574520530E+01 -0.23669398224E+02  0.14952801810E+02  0.29364624144E+02  0.00000000000E+00 0.  1.
         11    1    3    3    0    0  0.73779579618E+02 -0.61275549923E+02 -0.11375198279E+03  0.14878720703E+03  0.00000000000E+00 0. -1.
</event>
<event>
 8    1  0.5900800E-006  0.1620548E+03  0.7561462E-02  0.1186396E+00
         -2   -1    0    0    0  501 -0.00000000000E+00  0.00000000000E+00  0.16880657212E+02  0.16880657212E+02  0.00000000000E+00 0. -1.
          2   -1    0    0  501    0  0.00000000000E+00 -0.00000000000E+00 -0.16533641202E+04  0.16533641202E+04  0.00000000000E+00 0.  1.
         23    2    1    2    0    0 -0.10419743223E+03  0.71085767928E+02 -0.69757593212E+03  0.71467935433E+03  0.90797065764E+02 0.  0.
         23    2    1    2    0    0  0.10419743223E+03 -0.71085767928E+02 -0.93890753089E+03  0.95556542310E+03  0.12509050715E+03 0.  0.
          5    1    4    4  502    0  0.12840145662E+03 -0.73226963724E+02 -0.86770240883E+03  0.88021251126E+03  0.41800000000E+01 0. -1.
         -5    1    4    4    0  502 -0.24204024391E+02  0.21411957960E+01 -0.71205122057E+02  0.75352911844E+02  0.41800000000E+01 0. -1.
        -11    1    3    3    0    0  0.57551649083E+01 -0.12303490549E+02 -0.29179553107E+02  0.32186085850E+02  0.00000000000E+00 0. -1.
         11    1    3    3    0    0 -0.10995259714E+03  0.83389258477E+02 -0.66839637901E+03  0.68249326848E+03  0.00000000000E+00 0.  1.
</event>
<event>
 8    1  0.5900800E-006  0.2159517E+03  0.7561462E-02  0.1136938E+00
          2   -1    0    0  501    0  0.00000000000E+00  0.00000000000E+00  0.16814811514E+04  0.16814811514E+04  0.00000000000E+00 0. -1.
         -2   -1    0    0    0  501 -0.00000000000E+00 -0.00000000000E+00 -0.37539244178E+02  0.37539244178E+02  0.00000000000E+00 0.  1.
         23    2    1    2    0    0  0.68208689860E+02 -0.17707914409E+03  0.38164759802E+03  0.43642773349E+03  0.93834049497E+02 0.  0.
         23    2    1    2    0    0 -0.68208689860E+02  0.17707914409E+03  0.12622943092E+04  0.12825926621E+04  0.12509022802E+03 0.  0.
          5    1    4    4  502    0 -0.89632645262E+02  0.17740788067E+03  0.10116778844E+04  0.10310272457E+04  0.41800000000E+01 0. -1.
         -5    1    4    4    0  502  0.21423955402E+02 -0.32873658194E+00  0.25061642485E+03  0.25156541642E+03  0.41800000000E+01 0. -1.
        -11    1    3    3    0    0 -0.17613531281E+02 -0.78990466287E+02  0.13286644218E+03  0.15557384647E+03  0.00000000000E+00 0. -1.
         11    1    3    3    0    0  0.85822221142E+02 -0.98088677798E+02  0.24878115584E+03  0.28085388702E+03  0.00000000000E+00 0.  1.
</event>
<event>
 8    1  0.5900800E-006  0.1210749E+03  0.7561462E-02  0.1241334E+00
          1   -1    0    0  501    0  0.00000000000E+00  0.00000000000E+00  0.41896887842E+03  0.41896887842E+03  0.00000000000E+00 0. -1.
         -1   -1    0    0    0  501 -0.00000000000E+00 -0.00000000000E+00 -0.63506472294E+02  0.63506472294E+02  0.00000000000E+00 0.  1.
         23    2    1    2    0    0  0.10781734084E+03 -0.87231994997E+01  0.86917804692E+02  0.16709530737E+03  0.93088472857E+02 0.  0.
         23    2    1    2    0    0 -0.10781734084E+03  0.87231994997E+01  0.26854460144E+03  0.31538004334E+03  0.12509074939E+03 0.  0.
          5    1    4    4  502    0 -0.17633651535E+02  0.30786170239E+02  0.19108354639E+03  0.19439425929E+03  0.41800000000E+01 0.  1.
         -5    1    4    4    0  502 -0.90183689302E+02 -0.22062970740E+02  0.77461055049E+02  0.12098578405E+03  0.41800000000E+01 0.  1.
        -11    1    3    3    0    0  0.64407695937E+02 -0.22052671816E+02  0.98960078338E+02  0.12011564734E+03  0.00000000000E+00 0. -1.
         11    1    3    3    0    0  0.43409644901E+02  0.13329472316E+02 -0.12042273647E+02  0.46979660037E+02  0.00000000000E+00 0.  1.
</event>
<event>
 8    1  0.5900800E-006  0.1855368E+03  0.7561462E-02  0.1162550E+00
          2   -1    0    0  501    0  0.00000000000E+00  0.00000000000E+00  0.18574547278E+04  0.18574547278E+04  0.00000000000E+00 0. -1.
         -2   -1    0    0    0  501 -0.00000000000E+00 -0.00000000000E+00 -0.29222595231E+02  0.29222595231E+02  0.00000000000E+00 0.  1.
         23    2    1    2    0    0  0.16306295925E+03  0.31350768830E+02  0.38516853779E+03  0.42871554487E+03  0.88711986354E+02 0.  0.
         23    2    1    2    0    0 -0.16306295925E+03 -0.31350768830E+02  0.14430635947E+04  0.14579617781E+04  0.12509040180E+03 0.  0.
          5    1    4    4  502    0 -0.20728665446E+02  0.23288956120E+02  0.73725081988E+02  0.80155556030E+02  0.41800000000E+01 0.  1.
         -5    1    4    4    0  502 -0.14233429381E+03 -0.54639724951E+02  0.13693385127E+04  0.13778062221E+04  0.41800000000E+01 0.  1.
        -11    1    3    3    0    0  0.52223856599E+02 -0.30188087861E+02  0.14728173595E+03  0.15915577775E+03  0.00000000000E+00 0. -1.
         11    1    3    3    0    0  0.11083910265E+03  0.61538856691E+02  0.23788680184E+03  0.26955976712E+03  0.00000000000E+00 0.  1.
</event>
<event>
 8    1  0.5900800E-006  0.8570116E+02  0.7561462E-02  0.1313609E+00
          2   -1    0    0  501    0  0.00000000000E+00  0.00000000000E+00  0.12249907410E+04  0.12249907410E+04  0.00000000000E+00 0. -1.
         -2   -1    0    0    0  501 -0.00000000000E+00 -0.00000000000E+00 -0.11048771522E+02  0.11048771522E+02  0.00000000000E+00 0.  1.
         23    2    1    2    0    0 -0.40575775613E+01  0.49272735702E+01  0.27104612278E+03  0.28623518118E+03  0.91781459516E+02 0.  0.
         23    2    1    2    0    0  0.40575775613E+01 -0.49272735702E+01  0.94289584669E+03  0.94980433133E+03  0.11417069744E+03 0.  0.
          5    1    4    4  502    0  0.44468521668E+02 -0.18860650174E+02  0.77455470696E+03  0.77607064113E+03  0.41800000000E+01 0. -1.
         -5    1    4    4    0  502 -0.40410944107E+02  0.13933376604E+02  0.16834113973E+03  0.17373369021E+03  0.41800000000E+01 0.  1.
        -11    1    3    3    0    0  0.29802452630E+02  0.26450749765E+02  0.64406920975E+02  0.75736911842E+02  0.00000000000E+00 0.  1.
         11    1    3    3    0    0 -0.33860030191E+02 -0.21523476194E+02  0.20663920181E+03  0.21049826934E+03  0.00000000000E+00 0. -1.
</event>
<event>
 8    1  0.5900800E-006  0.7097465E+02  0.7561462E-02  0.1356810E+00
         -2   -1    0    0    0  501 -0.00000000000E+00  0.00000000000E+00  0.16471526767E+02  0.16471526767E+02  0.00000000000E+00 0.  1.
          2   -1    0    0  501    0  0.00000000000E+00 -0.00000000000E+00 -0.10242916592E+04  0.10242916592E+04  0.00000000000E+00 0. -1.
         23    2    1    2    0    0  0.22258163841E+02 -0.33565439080E+02 -0.20840834859E+03  0.23062155442E+03  0.90167605278E+02 0.  0.
         23    2    1    2    0    0 -0.22258163841E+02  0.33565439080E+02 -0.79941178380E+03  0.81014163151E+03  0.12509275944E+03 0.  0.
          5    1    4    4  502    0 -0.49892625371E+02  0.14840095718E+02 -0.74020311557E+03  0.74204287424E+03  0.41800000000E+01 0.  1.
         -5    1    4    4    0  502  0.27634461529E+02  0.18725343363E+02 -0.59208668232E+02  0.68098757271E+02  0.41800000000E+01 0.  1.
        -11    1    3    3    0    0  0.64325742412E+01 -0.38868002957E+02 -0.21017728222E+03  0.21383776474E+03  0.00000000000E+00 0. -1.
         11    1    3    3    0    0  0.15825589600E+02  0.53025638768E+01  0.17689336320E+01  0.16783789681E+02  0.00000000000E+00 0.  1.
</event>
<event>
 8    1  0.5900800E-006  0.1102681E+03  0.7561462E-02  0.1260074E+00
          1   -1    0    0  501    0  0.00000000000E+00  0.00000000000E+00  0.23304890702E+03  0.23304890702E+03  0.00000000000E+00 0. -1.
         -1   -1    0    0    0  501 -0.00000000000E+00 -0.00000000000E+00 -0.85228087537E+02  0.85228087537E+02  0.00000000000E+00 0.  1.
         23    2    1    2    0    0  0.76206780419E+01 -0.51517376355E+02 -0.15130622223E+02  0.10634897052E+03  0.91482528395E+02 0.  0.
         23    2    1    2    0    0 -0.76206780419E+01  0.51517376355E+02  0.16295144171E+03  0.21192802404E+03  0.12509276645E+03 0.  0.
          5    1    4    4  502    0  0.19828626165E+02 -0.29567635379E+02  0.11040502220E+02  0.37507126880E+02  0.41800000000E+01 0.  1.
         -5    1    4    4    0  502 -0.27449304207E+02  0.81085011735E+02  0.15191093949E+03  0.17442089716E+03  0.41800000000E+01 0.  1.
        -11    1    3    3    0    0  0.43585753737E+02 -0.44597254962E+02  0.82429064004E+01  0.62901340088E+02  0.00000000000E+00 0. -1.
         11    1    3    3    0    0 -0.35965075695E+02 -0.69201213934E+01 -0.23373528623E+02  0.43447630432E+02  0.00000000000E+00 0.  1.
</event>
<event>
 8    1  0.5900800E-006  0.1011588E+03  0.7561462E-02  0.1277878E+00
          1   -1    0    0  501    0  0.00000000000E+00  0.00000000000E+00  0.13190671441E+04  0.13190671441E+04  0.00000000000E+00 0. -1.
         -1   -1    0    0    0  501 -0.00000000000E+00 -0.00000000000E+00 -0.11061473787E+02  0.11061473787E+02  0.00000000000E+00 0.  1.
         23    2    1    2    0    0  0.12977858142E+02 -0.30367715672E+02  0.34034346325E+03  0.35385569884E+03  0.91047018992E+02 0.  0.
         23    2    1    2    0    0 -0.12977858142E+02  0.30367715672E+02  0.96766220707E+03  0.97627291906E+03  0.12509213617E+03 0.  0.
          5    1    4    4  502    0 -0.61599296368E+02  0.40960619049E+02  0.43397577443E+03  0.44025525644E+03  0.41800000000E+01 0.  1.
         -5    1    4    4    0  502  0.48621438226E+02 -0.10592903377E+02  0.53368643264E+03  0.53601766262E+03  0.41800000000E+01 0.  1.
        -11    1    3    3    0    0  0.17782850434E+02 -0.52609050387E+02  0.31474234702E+03  0.31960395329E+03  0.00000000000E+00 0. -1.
         11    1    3    3    0    0 -0.48049922918E+01  0.22241334715E+02  0.25601116229E+02  0.34251745547E+02  0.00000000000E+00 0.  1.
</event>
<event>
 8    1  0.5900800E-006  0.1386868E+03  0.7561462E-02  0.1215107E+00
         -1   -1    0    0    0  501 -0.00000000000E+00  0.00000000000E+00  0.48177180655E+02  0.48177180655E+02  0.00000000000E+00 0.  1.
          1   -1    0    0  501    0  0.00000000000E+00 -0.00000000000E+00 -0.42443139879E+03  0.42443139879E+03  0.00000000000E+00 0. -1.
         23    2    1    2    0    0 -0.44762621714E+02 -0.83679250979E+02 -0.14797515495E+03  0.19554550533E+03  0.85647468299E+02 0.  0.
         23    2    1    2    0    0  0.44762621714E+02  0.83679250979E+02 -0.22827906319E+03  0.27706307411E+03  0.12508679786E+03 0.  0.
          5    1    4    4  502    0 -0.27397124047E+02  0.78078280604E+02 -0.14165220997E+03  0.16410253288E+03  0.41800000000E+01 0.  1.
         -5    1    4    4    0  502  0.72159745761E+02  0.56009703752E+01 -0.86626853215E+02  0.11296054123E+03  0.41800000000E+01 0.  1.
        -11    1    3    3    0    0 -0.19082372646E+02 -0.92824082779E+02 -0.13602632129E+03  0.16578180652E+03  0.00000000000E+00 0.  1.
         11    1    3    3    0    0 -0.25680249069E+02  0.91448318004E+01 -0.11948833651E+02  0.29763698804E+02  0.00000000000E+00 0. -1.
</event>
<event>
 8    1  0.5900800E-006  0.8052374E+02  0.7561462E-02  0.1327572E+00
         -2   -1    0    0    0  501 -0.00000000000E+00  0.00000000000E+00  0.35353306106E+02  0.35353306106E+02  0.00000000000E+00 0.  1.
          2   -1    0    0  501    0  0.00000000000E+00 -0.00000000000E+00 -0.49761860825E+03  0.49761860825E+03  0.00000000000E+00 0. -1.
         23    2    1    2    0    0  0.37065146934E+01 -0.18050508545E+02 -0.57120385493E+02  0.10855653462E+03  0.90455644709E+02 0.  0.
         23    2    1    2    0    0 -0.37065146934E+01  0.18050508545E+02 -0.40514491665E+03  0.42441537974E+03  0.12508577841E+03 0.  0.
          5    1    4    4  502    0 -0.24569522673E+02  0.39906242415E+02 -0.38499256505E+03  0.38785682561E+03  0.41800000000E+01 0.  1.
         -5    1    4    4    0  502  0.20863007979E+02 -0.21855733870E+02 -0.20152351602E+02  0.36558554129E+02  0.41800000000E+01 0.  1.
        -11    1    3    3    0    0  0.38946304976E+02  0.78901534729E+01 -0.43062684290E+01  0.39970153126E+02  0.00000000000E+00 0.  1.
         11    1    3    3    0    0 -0.35239790283E+02 -0.25940662018E+02 -0.52814117064E+02  0.68586381493E+02  0.00000000000E+00 0. -1.
</event>
<event>
 8    1  0.5900800E-006  0.1238747E+03  0.7561462E-02  0.1236838E+00
         -3   -1    0    0    0  501 -0.00000000000E+00  0.00000000000E+00  0.92063426434E+02  0.92063426434E+02  0.00000000000E+00 0.  1.
          3   -1    0    0  501    0  0.00000000000E+00 -0.00000000000E+00 -0.26116160640E+03  0.26116160640E+03  0.00000000000E+00 0. -1.
         23    2    1    2    0    0 -0.92529545497E+02  0.10045299328E+02 -0.32375559321E+01  0.12558666678E+03  0.84254995551E+02 0.  0.
         23    2    1    2    0    0  0.92529545497E+02 -0.10045299328E+02 -0.16586062403E+03  0.22763836605E+03  0.12508738652E+03 0.  0.
          5    1    4    4  502    0 -0.22607933145E+02 -0.23895165982E+02 -0.12760851206E+02  0.35530399968E+02  0.41800000000E+01 0.  1.
         -5    1    4    4    0  502  0.11513747864E+03  0.13849866654E+02 -0.15309977283E+03  0.19210796609E+03  0.41800000000E+01 0.  1.
        -11    1    3    3    0    0 -0.38009175037E+02  0.20269601544E+02 -0.40207177889E+02  0.58925132902E+02  0.00000000000E+00 0. -1.
         11    1    3    3    0    0 -0.54520370460E+02 -0.10224302216E+02  0.36969621957E+02  0.66661533875E+02  0.00000000000E+00 0.  1.
</event>
<event>
 8    1  0.5900800E-006  0.9595456E+02  0.7561462E-02  0.1289041E+00
         -1   -1    0    0    0  501 -0.00000000000E+00  0.00000000000E+00  0.85956196791E+02  0.85956196791E+02  0.00000000000E+00 0.  1.
          1   -1    0    0  501    0  0.00000000000E+00 -0.00000000000E+00 -0.16561474483E+03  0.16561474483E+03  0.00000000000E+00 0. -1.
         23    2    1    2    0    0  0.33512314933E+02 -0.34842741984E+02 -0.30566683252E+02  0.10876102098E+03  0.92507003182E+02 0.  0.
         23    2    1    2    0    0 -0.33512314933E+02  0.34842741984E+02 -0.49091864791E+02  0.14280992065E+03  0.12509024872E+03 0.  0.
          5    1    4    4  502    0  0.44505563896E+02  0.13089459485E+02 -0.39633749489E+02  0.61158692480E+02  0.41800000000E+01 0.  1.
         -5    1    4    4    0  502 -0.78017878828E+02  0.21753282499E+02 -0.94581153019E+01  0.81651228169E+02  0.41800000000E+01 0.  1.
        -11    1    3    3    0    0  0.11358856351E+02  0.94038515257E+01 -0.52575608318E+02  0.54604492775E+02  0.00000000000E+00 0. -1.
         11    1    3    3    0    0  0.22153458582E+02 -0.44246593509E+02  0.22008925067E+02  0.54156528202E+02  0.00000000000E+00 0.  1.
</event>
<event>
 8    1  0.5900800E-006  0.1345656E+03  0.7561462E-02  0.1220834E+00
         -1   -1    0    0    0  501 -0.00000000000E+00  0.00000000000E+00  0.15224080329E+03  0.15224080329E+03  0.00000000000E+00 0.  1.
          1   -1    0    0  501    0  0.00000000000E+00 -0.00000000000E+00 -0.17892329197E+03  0.17892329197E+03  0.00000000000E+00 0. -1.
         23    2    1    2    0    0  0.12312232101E+03 -0.16771446940E+02 -0.95218200221E+01  0.15401627299E+03  0.90498397355E+02 0.  0.
         23    2    1    2    0    0 -0.12312232101E+03  0.16771446940E+02 -0.17160668651E+02  0.17714782228E+03  0.12508587060E+03 0.  0.
          5    1    4    4  502    0 -0.82773541359E+02  0.29038172084E+02 -0.67922793742E+02  0.11102095702E+03  0.41800000000E+01 0.  1.
         -5    1    4    4    0  502 -0.40348779654E+02 -0.12266725145E+02  0.50762125091E+02  0.66126865260E+02  0.41800000000E+01 0.  1.
        -11    1    3    3    0    0  0.70745077718E+01  0.16715362640E+02  0.22647024397E+02  0.29023089471E+02  0.00000000000E+00 0.  1.
         11    1    3    3    0    0  0.11604781324E+03 -0.33486809580E+02 -0.32168844419E+02  0.12499318351E+03  0.00000000000E+00 0. -1.
</event>
<event>
 8    1  0.5900800E-006  0.8008068E+02  0.7561462E-02  0.1328823E+00
          1   -1    0    0  501    0  0.00000000000E+00  0.00000000000E+00  0.42062893563E+03  0.42062893563E+03  0.00000000000E+00 0. -1.
         -1   -1    0    0    0  501 -0.00000000000E+00 -0.00000000000E+00 -0.38115819126E+02  0.38115819126E+02  0.00000000000E+00 0.  1.
         23    2    1    2    0    0  0.41424815610E+02  0.43653854359E+02  0.81742924819E+02  0.13153317573E+03  0.83650440590E+02 0.  0.
         23    2    1    2    0    0 -0.41424815610E+02 -0.43653854359E+02  0.30077019168E+03  0.32721157903E+03  0.11394312131E+03 0.  0.
          5    1    4    4  502    0 -0.18111487413E+02 -0.60934162666E+02  0.28846387053E+03  0.29541475109E+03  0.41800000000E+01 0. -1.
         -5    1    4    4    0  502 -0.23313328197E+02  0.17280308307E+02  0.12306321151E+02  0.31796827941E+02  0.41800000000E+01 0.  1.
        -11    1    3    3    0    0  0.22008821032E+02  0.42287988688E+02  0.17256853134E+00  0.47672759207E+02  0.00000000000E+00 0.  1.
         11    1    3    3    0    0  0.19415994578E+02  0.13658656710E+01  0.81570356288E+02  0.83860416523E+02  0.00000000000E+00 0. -1.
</event>
<event>
 8    1  0.5900800E-006  0.1402394E+03  0.7561462E-02  0.1213007E+00
         -2   -1    0    0    0  501 -0.00000000000E+00  0.00000000000E+00  0.37482721878E+03  0.37482721878E+03  0.00000000000E+00 0.  1.
          2   -1    0    0  501    0  0.00000000000E+00 -0.00000000000E+00 -0.69398841813E+02  0.69398841813E+02  0.00000000000E+00 0. -1.
         23    2    1    2    0    0  0.77696329137E+02 -0.72364315791E+02  0.21360132360E+03  0.25619943680E+03  0.93484288579E+02 0.  0.
         23    2    1    2    0    0 -0.77696329137E+02  0.72364315791E+02  0.91827053366E+02  0.18802662379E+03  0.12509392377E+03 0.  0.
          5    1    4    4  502    0 -0.65620273501E+02 -0.98562726800E+00  0.92591591329E+02  0.11356789573E+03  0.41800000000E+01 0. -1.
         -5    1    4    4    0  502 -0.12076055636E+02  0.73349943059E+02 -0.76453796335E+00  0.74458728063E+02  0.41800000000E+01 0. -1.
        -11    1    3    3    0    0 -0.17960306261E+02 -0.31464906845E+02  0.70675351045E+02  0.79420515039E+02  0.00000000000E+00 0.  1.
         11    1    3    3    0    0  0.95656635397E+02 -0.40899408946E+02  0.14292597255E+03  0.17677892176E+03  0.00000000000E+00 0. -1.
</event>
<event>
 8    1  0.5900800E-006  0.1084465E+03  0.7561462E-02  0.1263474E+00
          2   -1    0    0  501    0  0.00000000000E+00  0.00000000000E+00  0.28523767014E+03  0.28523767014E+03  0.00000000000E+00 0.  1.
         -2   -1    0    0    0  501 -0.00000000000E+00 -0.00000000000E+00 -0.52832182489E+02  0.52832182489E+02  0.00000000000E+00 0. -1.
         23    2    1    2    0    0 -0.12422770135E+02 -0.25269284076E+01  0.25958342169E+02  0.96352297206E+02  0.91919633722E+02 0.  0.
         23    2    1    2    0    0  0.12422770135E+02  0.25269284076E+01  0.20644714548E+03  0.24171755542E+03  0.12508493969E+03 0.  0.
          5    1    4    4  502    0 -0.35215309061E+02 -0.45329314889E+02  0.10589592528E+03  0.12052503546E+03  0.41800000000E+01 0.  1.
         -5    1    4    4    0  502  0.47638079197E+02  0.47856243297E+02  0.10055122020E+03  0.12119251996E+03  0.41800000000E+01 0.  1.
        -11    1    3    3    0    0 -0.25146352278E+02  0.40027012450E+02  0.59684953678E+01  0.47645815089E+02  0.00000000000E+00 0.  1.
         11    1    3    3    0    0  0.12723582143E+02 -0.42553940857E+02  0.19989846801E+02  0.48706482117E+02  0.00000000000E+00 0. -1.
</event>
<event>
 8    1  0.5900800E-006  0.1331989E+03  0.7561462E-02  0.1222785E+00
          2   -1    0    0  501    0  0.00000000000E+00  0.00000000000E+00  0.14291783688E+04  0.14291783688E+04  0.00000000000E+00 0. -1.
         -2   -1    0    0    0  501 -0.00000000000E+00 -0.00000000000E+00 -0.14645598989E+02  0.14645598989E+02  0.00000000000E+00 0.  1.
         23    2    1    2    0    0 -0.34941345210E+02  0.84677338034E+02  0.51324630641E+03  0.52929914031E+03  0.91349108959E+02 0.  0.
         23    2    1    2    0    0  0.34941345210E+02 -0.84677338034E+02  0.90128646336E+03  0.91452482744E+03  0.12508885555E+03 0.  0.
          5    1    4    4  502    0  0.77856683444E+02 -0.27849277739E+02  0.43427496584E+03  0.44209666792E+03  0.41800000000E+01 0. -1.
         -5    1    4    4    0  502 -0.42915338235E+02 -0.56828060294E+02  0.46701149752E+03  0.47242815952E+03  0.41800000000E+01 0. -1.
        -11    1    3    3    0    0  0.95368836564E+01 -0.60029547870E+01  0.74309341848E+01  0.13498385048E+02  0.00000000000E+00 0.  1.
         11    1    3    3    0    0 -0.44478228866E+02  0.90680292821E+02  0.50581537223E+03  0.51580075526E+03  0.00000000000E+00 0. -1.
</event>
<event>
 8    1  0.5900800E-006  0.1196462E+03  0.7561462E-02  0.1243682E+00
         -4   -1    0    0    0  501 -0.00000000000E+00  0.00000000000E+00  0.56264396315E+02  0.56264396315E+02  0.00000000000E+00 0. -1.
          4   -1    0    0  501    0  0.00000000000E+00 -0.00000000000E+00 -0.32279208434E+03  0.32279208434E+03  0.00000000000E+00 0.  1.
         23    2    1    2    0    0  0.79942111004E+01  0.58805686729E+02 -0.42779765985E+02  0.11593472191E+03  0.89937395808E+02 0.  0.
         23    2    1    2    0    0 -0.79942111004E+01 -0.58805686729E+02 -0.22374792204E+03  0.26312175875E+03  0.12509161084E+03 0.  0.
          5    1    4    4  502    0  0.48826759084E+02 -0.57555688629E+02 -0.16384175809E+03  0.18043919693E+03  0.41800000000E+01 0. -1.
         -5    1    4    4    0  502 -0.56820970185E+02 -0.12499981001E+01 -0.59906163958E+02  0.82682561814E+02  0.41800000000E+01 0. -1.
        -11    1    3    3    0    0 -0.18786379721E+02 -0.17603803058E+02 -0.17436756015E+02  0.31094411161E+02  0.00000000000E+00 0.  1.
         11    1    3    3    0    0  0.26780590821E+02  0.76409489787E+02 -0.25343009970E+02  0.84840310753E+02  0.00000000000E+00 0. -1.
</event>
<event>
 7    1  0.5900800E-006  0.1134248E+03  0.7561462E-02  0.1254356E+00
          2   -1    0    0  501    0  0.00000000000E+00  0.00000000000E+00  0.72434044877E+02  0.72434044877E+02  0.00000000000E+00 0. -1.
         -2   -1    0    0    0  501 -0.00000000000E+00 -0.00000000000E+00 -0.22175983246E+03  0.22175983246E+03  0.00000000000E+00 0.  1.
         23    2    1    2    0    0  0.20304790342E+02  0.36477736897E+02 -0.66411719982E+02  0.11990951861E+03  0.90691048637E+02 0.  0.
          5    1    1    2  502    0 -0.83549004349E+02 -0.23694070957E+02 -0.34630993850E+02  0.93587516589E+02  0.41800000000E+01 0. -1.
         -5    1    1    2    0  502  0.63244214007E+02 -0.12783665940E+02 -0.48283073755E+02  0.80696842141E+02  0.41800000000E+01 0.  1.
        -11    1    3    3    0    0  0.43022729631E+02  0.25545556838E+02 -0.77595590841E+02  0.92328795384E+02  0.00000000000E+00 0.  1.
         11    1    3    3    0    0 -0.22717939290E+02  0.10932180059E+02  0.11183870859E+02  0.27580723228E+02  0.00000000000E+00 0. -1.
</event>
<event>
 8    1  0.5900800E-006  0.2480251E+03  0.7561462E-02  0.1114559E+00
          2   -1    0    0  501    0  0.00000000000E+00  0.00000000000E+00  0.96510829050E+03  0.96510829050E+03  0.00000000000E+00 0.  1.
         -2   -1    0    0    0  501 -0.00000000000E+00 -0.00000000000E+00 -0.72571409702E+02  0.72571409702E+02  0.00000000000E+00 0. -1.
         23    2    1    2    0    0  0.23177082476E+03  0.65296095291E+01  0.30087780121E+03  0.39001619515E+03  0.88458070337E+02 0.  0.
         23    2    1    2    0    0 -0.23177082476E+03 -0.65296095291E+01  0.59165907959E+03  0.64766350505E+03  0.12508876170E+03 0.  0.
          5    1    4    4  502    0 -0.21460401927E+03 -0.37380334286E+02  0.55664109325E+03  0.59776161936E+03  0.41800000000E+01 0.  1.
         -5    1    4    4    0  502 -0.17166805491E+02  0.30850724757E+02  0.35017986339E+02  0.49901885697E+02  0.41800000000E+01 0.  1.
        -11    1    3    3    0    0  0.18024593139E+03  0.35211254156E+02  0.25976513321E+03  0.31812945892E+03  0.00000000000E+00 0.  1.
         11    1    3    3    0    0  0.51524893377E+02 -0.28681644627E+02  0.41112667998E+02  0.71886736231E+02  0.00000000000E+00 0. -1.
</event>
<event>
 7    1  0.5900800E-006  0.2545000E+03  0.7561462E-02  0.1110493E+00
          2   -1    0    0  501    0  0.00000000000E+00  0.00000000000E+00  0.13916702655E+04  0.13916702655E+04  0.00000000000E+00 0. -1.
         -2   -1    0    0    0  501 -0.00000000000E+00 -0.00000000000E+00 -0.89286653400E+02  0.89286653400E+02  0.00000000000E+00 0.  1.
         23    2    1    2    0    0 -0.16742332775E+03 -0.16657970281E+03  0.11304483341E+04  0.11616113836E+04  0.12509277543E+03 0.  0.
          5    1    3    3  502    0 -0.28933594003E+02 -0.81670859410E+02  0.21478505593E+03  0.23164061559E+03  0.41800000000E+01 0.  1.
         -5    1    3    3    0  502 -0.13848973374E+03 -0.84908843403E+02  0.91566327813E+03  0.92997076801E+03  0.41800000000E+01 0.  1.
        -11    1    1    2    0    0  0.31368498767E+02  0.10650201796E+03  0.11566500296E+03  0.16032796218E+03  0.00000000000E+00 0. -1.
         11    1    1    2    0    0  0.13605482898E+03  0.60077684849E+02  0.56270275077E+02  0.15901757313E+03  0.00000000000E+00 0.  1.
</event>
<event>
 8    1  0.5900800E-006  0.1578965E+03  0.7561462E-02  0.1191092E+00
          2   -1    0    0  501    0  0.00000000000E+00  0.00000000000E+00  0.26103319644E+03  0.26103319644E+03  0.00000000000E+00 0. -1.
         -2   -1    0    0    0  501 -0.00000000000E+00 -0.00000000000E+00 -0.12102378217E+03  0.12102378217E+03  0.00000000000E+00 0.  1.
         23    2    1    2    0    0  0.42344694860E+02  0.12692440715E+03  0.22757149910E+02  0.16457965746E+03  0.93089728031E+02 0.  0.
         23    2    1    2    0    0 -0.42344694860E+02 -0.12692440715E+03  0.11725226436E+03  0.21747732115E+03  0.12508162697E+03 0.  0.
          5    1    4    4  502    0  0.42289174974E+02 -0.53782555464E+02  0.26937490728E+02  0.73648071251E+02  0.41800000000E+01 0. -1.
         -5    1    4    4    0  502 -0.84633869834E+02 -0.73141851684E+02  0.90314773629E+02  0.14382924990E+03  0.41800000000E+01 0. -1.
        -11    1    3    3    0    0  0.17162914736E+02  0.25022914874E+02  0.47845721968E+02  0.56656200205E+02  0.00000000000E+00 0. -1.
         11    1    3    3    0    0  0.25181780124E+02  0.10190149227E+03 -0.25088572058E+02  0.10792345726E+03  0.00000000000E+00 0.  1.
</event>
<event>
 8    1  0.5900800E-006  0.1111796E+03  0.7561462E-02  0.1258401E+00
         -2   -1    0    0    0  501 -0.00000000000E+00  0.00000000000E+00  0.57644030458E+02  0.57644030458E+02  0.00000000000E+00 0.  1.
          2   -1    0    0  501    0  0.00000000000E+00 -0.00000000000E+00 -0.32517728650E+03  0.32517728650E+03  0.00000000000E+00 0. -1.
         23    2    1    2    0    0  0.68352410919E+02  0.29962942324E+02 -0.69635705402E+02  0.13709711498E+03  0.91524081415E+02 0.  0.
         23    2    1    2    0    0 -0.68352410919E+02 -0.29962942324E+02 -0.19789755064E+03  0.24572420198E+03  0.12508842031E+03 0.  0.
          5    1    4    4  502    0  0.21887045985E+01 -0.45778972065E+02 -0.14032303566E+02  0.48113227438E+02  0.41800000000E+01 0.  1.
         -5    1    4    4    0  502 -0.70541115518E+02  0.15816029742E+02 -0.18386524708E+03  0.19761097454E+03  0.41800000000E+01 0.  1.
        -11    1    3    3    0    0  0.44513915464E+02 -0.19821008966E+02 -0.63014069908E+00  0.48731490267E+02  0.00000000000E+00 0.  1.
         11    1    3    3    0    0  0.23838495455E+02  0.49783951290E+02 -0.69005564703E+02  0.88365624717E+02  0.00000000000E+00 0. -1.
</event>
<event>
 8    1  0.5900800E-006  0.1091868E+03  0.7561462E-02  0.1262083E+00
          3   -1    0    0  501    0  0.00000000000E+00  0.00000000000E+00  0.48735290877E+02  0.48735290877E+02  0.00000000000E+00 0.  1.
         -3   -1    0    0    0  501 -0.00000000000E+00 -0.00000000000E+00 -0.32089142686E+03  0.32089142686E+03  0.00000000000E+00 0. -1.
         23    2    1    2    0    0 -0.63033320548E+02  0.16573306755E+01 -0.14457018655E+03  0.18014915684E+03  0.87047306833E+02 0.  0.
         23    2    1    2    0    0  0.63033320548E+02 -0.16573306755E+01 -0.12758594943E+03  0.18947756089E+03  0.12509046865E+03 0.  0.
          5    1    4    4  502    0  0.88651535669E+02 -0.30367818271E+02 -0.11578610896E+03  0.14901407514E+03  0.41800000000E+01 0. -1.
         -5    1    4    4    0  502 -0.25618215120E+02  0.28710487595E+02 -0.11799840471E+02  0.40463485750E+02  0.41800000000E+01 0. -1.
        -11    1    3    3    0    0 -0.65768255148E+02 -0.16254909788E+02 -0.14700677806E+03  0.16186623574E+03  0.00000000000E+00 0. -1.
         11    1    3    3    0    0  0.27349345994E+01  0.17912240463E+02  0.24365915109E+01  0.18282921098E+02  0.00000000000E+00 0.  1.
</event>
<event>
 8    1  0.5900800E-006  0.1418954E+03  0.7561462E-02  0.1210801E+00
          2   -1    0    0  501    0  0.00000000000E+00  0.00000000000E+00  0.95203177475E+03  0.95203177475E+03  0.00000000000E+00 0. -1.
         -2   -1    0    0    0  501 -0.00000000000E+00 -0.00000000000E+00 -0.25211263131E+02  0.25211263131E+02  0.00000000000E+00 0.  1.
         23    2    1    2    0    0  0.94759110417E+02  0.46559413699E+02  0.29604681969E+03  0.32826604641E+03  0.94698520378E+02 0.  0.
         23    2    1    2    0    0 -0.94759110417E+02 -0.46559413699E+02  0.63077369193E+03  0.64897699148E+03  0.11022076495E+03 0.  0.
          5    1    4    4  502    0  0.17099424007E+02  0.14892236952E+02  0.64896422957E+02  0.68870800310E+02  0.41800000000E+01 0. -1.
         -5    1    4    4    0  502 -0.11185853442E+03 -0.61451650650E+02  0.56587726897E+03  0.58010619117E+03  0.41800000000E+01 0.  1.
        -11    1    3    3    0    0 -0.11084606799E+02  0.21619797612E+02  0.11104792337E+03  0.11367464731E+03  0.00000000000E+00 0.  1.
         11    1    3    3    0    0  0.10584371722E+03  0.24939616087E+02  0.18499889633E+03  0.21459139910E+03  0.00000000000E+00 0. -1.
</event>
<event>
 8    1  0.5900800E-006  0.7180790E+02  0.7561462E-02  0.1354051E+00
         -2   -1    0    0    0  501 -0.00000000000E+00  0.00000000000E+00  0.28492749636E+02  0.28492749636E+02  0.00000000000E+00 0.  1.
          2   -1    0    0  501    0  0.00000000000E+00 -0.00000000000E+00 -0.97153408483E+03  0.97153408483E+03  0.00000000000E+00 0. -1.
         23    2    1    2    0    0  0.89486547406E+01 -0.52439357502E+02 -0.87201475210E+02  0.13345880466E+03  0.85890573559E+02 0.  0.
         23    2    1    2    0    0 -0.89486547406E+01  0.52439357502E+02 -0.85583985998E+03  0.86656802980E+03  0.12509324404E+03 0.  0.
          5    1    4    4  502    0 -0.11636892506E+02  0.42348431989E+02 -0.85403747468E+03  0.85517617338E+03  0.41800000000E+01 0.  1.
         -5    1    4    4    0  502  0.26882377650E+01  0.10090925512E+02 -0.18023853030E+01  0.11391856423E+02  0.41800000000E+01 0.  1.
        -11    1    3    3    0    0 -0.12581158138E+02 -0.63018576223E+02 -0.28990554077E+02  0.70498785202E+02  0.00000000000E+00 0.  1.
         11    1    3    3    0    0  0.21529812879E+02  0.10579218721E+02 -0.58210921133E+02  0.62960019461E+02  0.00000000000E+00 0. -1.
</event>
<event>
 8    1  0.5900800E-006  0.9175595E+02  0.7561462E-02  0.1298654E+00
          2   -1    0    0  501    0  0.00000000000E+00  0.00000000000E+00  0.28604577359E+03  0.28604577359E+03  0.00000000000E+00 0. -1.
         -2   -1    0    0    0  501 -0.00000000000E+00 -0.00000000000E+00 -0.66416847943E+02  0.66416847943E+02  0.00000000000E+00 0.  1.
         23    2    1    2    0    0 -0.38253482238E+02 -0.41450130074E+02  0.18303508969E+02  0.10882409779E+03  0.91248143170E+02 0.  0.
         23    2    1    2    0    0  0.38253482238E+02  0.41450130074E+02  0.20132541668E+03  0.24363852375E+03  0.12508542947E+03 0.  0.
          5    1    4    4  502    0 -0.11760054679E+02  0.18855460818E+02 -0.10390728701E+02  0.24885074475E+02  0.41800000000E+01 0. -1.
         -5    1    4    4    0  502  0.50013536918E+02  0.22594669257E+02  0.21171614538E+03  0.21875344927E+03  0.41800000000E+01 0. -1.
        -11    1    3    3    0    0 -0.20927096347E+02 -0.69670512689E+02  0.20668782057E+02  0.75624878522E+02  0.00000000000E+00 0. -1.
         11    1    3    3    0    0 -0.17326385892E+02  0.28220382614E+02 -0.23652730878E+01  0.33199219264E+02  0.00000000000E+00 0.  1.
</event>
<event>
 8    1  0.5900800E-006  0.1127646E+03  0.7561462E-02  0.1255534E+00
          4   -1    0    0  501    0  0.00000000000E+00  0.00000000000E+00  0.31726247065E+03  0.31726247065E+03  0.00000000000E+00 0. -1.
         -4   -1    0    0    0  501 -0.00000000000E+00 -0.00000000000E+00 -0.52130410624E+02  0.52130410624E+02  0.00000000000E+00 0.  1.
         23    2    1    2    0    0  0.33831363405E+02 -0.58139714268E+02  0.95830406361E+02  0.14840760789E+03  0.91195195980E+02 0.  0.
         23    2    1    2    0    0 -0.33831363405E+02  0.58139714268E+02  0.16930165367E+03  0.22098527339E+03  0.12508658440E+03 0.  0.
          5    1    4    4  502    0 -0.52516357622E+02 -0.12690250138E+02  0.12251790159E+03  0.13396685738E+03  0.41800000000E+01 0. -1.
         -5    1    4    4    0  502  0.18684994217E+02  0.70829964406E+02  0.46783752077E+02  0.87018416010E+02  0.41800000000E+01 0. -1.
        -11    1    3    3    0    0  0.12955173125E+02  0.16205284185E+02 -0.50615488811E+01  0.21355725773E+02  0.00000000000E+00 0.  1.
         11    1    3    3    0    0  0.20876190280E+02 -0.74344998453E+02  0.10089195524E+03  0.12705188211E+03  0.00000000000E+00 0. -1.
</event>
<event>
 8    1  0.5900800E-006  0.1485222E+03  0.7561462E-02  0.1202301E+00
          1   -1    0    0  501    0  0.00000000000E+00  0.00000000000E+00  0.12058415426E+03  0.12058415426E+03  0.00000000000E+00 0. -1.
         -1   -1    0    0    0  501 -0.00000000000E+00 -0.00000000000E+00 -0.23119396581E+03  0.23119396581E+03  0.00000000000E+00 0.  1.
         23    2    1    2    0    0 -0.12412608683E+03 -0.21463124072E+02 -0.49128253880E+02  0.16391398261E+03  0.92662059332E+02 0.  0.
         23    2    1    2    0    0  0.12412608683E+03  0.21463124072E+02 -0.61481557675E+02  0.18786413746E+03  0.12507997875E+03 0.  0.
          5    1    4    4  502    0  0.13987124639E+03  0.20643800440E+02 -0.19450783090E+02  0.14277933123E+03  0.41800000000E+01 0.  1.
         -5    1    4    4    0  502 -0.15745159560E+02  0.81932363184E+00 -0.42030774585E+02  0.45084806232E+02  0.41800000000E+01 0.  1.
        -11    1    3    3    0    0 -0.11213158366E+03 -0.38405839225E+02 -0.67321618060E+02  0.13631104430E+03  0.00000000000E+00 0.  1.
         11    1    3    3    0    0 -0.11994503168E+02  0.16942715153E+02  0.18193364180E+02  0.27602938307E+02  0.00000000000E+00 0. -1.
</event>
<event>
 8    1  0.5900800E-006  0.8611953E+02  0.7561462E-02  0.1312531E+00
          2   -1    0    0  501    0  0.00000000000E+00  0.00000000000E+00  0.57763984381E+02  0.57763984381E+02  0.00000000000E+00 0. -1.
         -2   -1    0    0    0  501 -0.00000000000E+00 -0.00000000000E+00 -0.29123630811E+03  0.29123630811E+03  0.00000000000E+00 0.  1.
         23    2    1    2    0    0  0.42251414960E+02 -0.54483808353E+02 -0.88161120102E+02  0.14524222396E+03  0.92570260258E+02 0.  0.
         23    2    1    2    0    0 -0.42251414960E+02  0.54483808353E+02 -0.14531120362E+03  0.20375806853E+03  0.12509331378E+03 0.  0.
          5    1    4    4  502    0  0.38205906037E+01  0.31688663758E+00 -0.13097360515E+03  0.13109635760E+03  0.41800000000E+01 0.  1.
         -5    1    4    4    0  502 -0.46072005563E+02  0.54166921715E+02 -0.14337598471E+02  0.72661710926E+02  0.41800000000E+01 0.  1.
        -11    1    3    3    0    0  0.26998359234E+02  0.10211550174E+02  0.64878204683E+01  0.29585114040E+02  0.00000000000E+00 0. -1.
         11    1    3    3    0    0  0.15253055725E+02 -0.64695358527E+02 -0.94648940570E+02  0.11565710992E+03  0.00000000000E+00 0.  1.
</event>
<event>
 8    1  0.5900800E-006  0.2158230E+03  0.7561462E-02  0.1137036E+00
          1   -1    0    0  501    0  0.00000000000E+00  0.00000000000E+00  0.45121589952E+03  0.45121589952E+03  0.00000000000E+00 0. -1.
         -1   -1    0    0    0  501 -0.00000000000E+00 -0.00000000000E+00 -0.10696037909E+03  0.10696037909E+03  0.00000000000E+00 0.  1.
         23    2    1    2    0    0  0.68962081768E+02 -0.17740054221E+03  0.15077152323E+03  0.25932698100E+03  0.91058825811E+02 0.  0.
         23    2    1    2    0    0 -0.68962081768E+02  0.17740054221E+03  0.19348399719E+03  0.29884929762E+03  0.12509246348E+03 0.  0.
          5    1    4    4  502    0 -0.99102997306E+02  0.89133529138E+02  0.12769322205E+03  0.18463266626E+03  0.41800000000E+01 0. -1.
         -5    1    4    4    0  502  0.30140915538E+02  0.88267013068E+02  0.65790775143E+02  0.11421663136E+03  0.41800000000E+01 0. -1.
        -11    1    3    3    0    0  0.11062015972E+02 -0.12896281413E+03  0.12395331447E+03  0.17921551215E+03  0.00000000000E+00 0. -1.
         11    1    3    3    0    0  0.57900065795E+02 -0.48437728072E+02  0.26818208766E+02  0.80111468850E+02  0.00000000000E+00 0.  1.
</event>
<event>
 8    1  0.8054151E-006  0.1563210E+03  0.7561462E-02  0.1192914E+00
          2   -1    0    0  501    0  0.00000000000E+00  0.00000000000E+00  0.10179467569E+04  0.10179467569E+04  0.00000000000E+00 0. -1.
         -2   -1    0    0    0  501 -0.00000000000E+00 -0.00000000000E+00 -0.29372618992E+02  0.29372618992E+02  0.00000000000E+00 0.  1.
         23    2    1    2    0    0  0.13459071060E+03  0.63744687099E+01  0.46575938785E+03  0.49311931748E+03  0.89886376445E+02 0.  0.
         23    2    1    2    0    0 -0.13459071060E+03 -0.63744687099E+01  0.52281475009E+03  0.55420005844E+03  0.12508856318E+03 0.  0.
          5    1    4    4  502    0 -0.10434271671E+03  0.38631673673E+02  0.22033848405E+03  0.24687310241E+03  0.41800000000E+01 0. -1.
         -5    1    4    4    0  502 -0.30247993890E+02 -0.45006142383E+02  0.30247626604E+03  0.30732695603E+03  0.41800000000E+01 0. -1.
        -11    1    3    3    0    0  0.38506877129E+02  0.28993243719E+02  0.68365788850E+02  0.83649679334E+02  0.00000000000E+00 0.  1.
         11    1    3    3    0    0  0.96083833471E+02 -0.22618775009E+02  0.39739359900E+03  0.40946963814E+03  0.00000000000E+00 0. -1.
</event>
<event>
 8    1  0.5900800E-006  0.9220641E+02  0.7561462E-02  0.1297595E+00
         -2   -1    0    0    0  501 -0.00000000000E+00  0.00000000000E+00  0.23925054606E+02  0.23925054606E+02  0.00000000000E+00 0.  1.
          2   -1    0    0  501    0  0.00000000000E+00 -0.00000000000E+00 -0.67583833828E+03  0.67583833828E+03  0.00000000000E+00 0. -1.
         23    2    1    2    0    0  0.60005592442E+02 -0.23538044720E+02 -0.20862460567E+03  0.23467541155E+03  0.85986115296E+02 0.  0.
         23    2    1    2    0    0 -0.60005592442E+02  0.23538044720E+02 -0.44328867800E+03  0.46508798133E+03  0.12508903892E+03 0.  0.
          5    1    4    4  502    0 -0.70639566350E+02  0.23015566927E+02 -0.44693163402E+03  0.45308390232E+03  0.41800000000E+01 0. -1.
         -5    1    4    4    0  502  0.10633973908E+02  0.52247779245E+00  0.36429560224E+01  0.12004079003E+02  0.41800000000E+01 0. -1.
        -11    1    3    3    0    0  0.24813504939E+02 -0.49135918927E+02 -0.68089952168E+02  0.87557353446E+02  0.00000000000E+00 0.  1.
         11    1    3    3    0    0  0.35192087503E+02  0.25597874207E+02 -0.14053465350E+03  0.14711805811E+03  0.00000000000E+00 0. -1.
</event>
<event>
 8    1  0.5900800E-006  0.1040802E+03  0.7561462E-02  0.1271943E+00
          2   -1    0    0  501    0  0.00000000000E+00  0.00000000000E+00  0.24649071254E+03  0.24649071254E+03  0.00000000000E+00 0. -1.
         -2   -1    0    0    0  501 -0.00000000000E+00 -0.00000000000E+00 -0.92266443837E+02  0.92266443837E+02  0.00000000000E+00 0.  1.
         23    2    1    2    0    0 -0.49147531927E+02 -0.39577109562E+01 -0.32742158002E+02  0.10846475037E+03  0.90892297759E+02 0.  0.
         23    2    1    2    0    0  0.49147531927E+02  0.39577109562E+01  0.18696642670E+03  0.23029240600E+03  0.12508798575E+03 0.  0.
          5    1    4    4  502    0  0.18562613904E+02  0.57769109139E+02  0.13948951742E+03  0.15217305437E+03  0.41800000000E+01 0.  1.
         -5    1    4    4    0  502  0.30584918023E+02 -0.53811398183E+02  0.47476909279E+02  0.78119351633E+02  0.41800000000E+01 0.  1.
        -11    1    3    3    0    0  0.60188569311E+01 -0.25408309728E+02  0.16992508081E+02  0.31153718444E+02  0.00000000000E+00 0.  1.
         11    1    3    3    0    0 -0.55166388858E+02  0.21450598771E+02 -0.49734666083E+02  0.77311031927E+02  0.00000000000E+00 0. -1.
</event>
<event>
 8    1  0.5900800E-006  0.2301053E+03  0.7561462E-02  0.1126566E+00
         -2   -1    0    0    0  501 -0.00000000000E+00  0.00000000000E+00  0.92071268313E+03  0.92071268313E+03  0.00000000000E+00 0.  1.
          2   -1    0    0  501    0  0.00000000000E+00 -0.00000000000E+00 -0.63680765089E+02  0.63680765089E+02  0.00000000000E+00 0. -1.
         23    2    1    2    0    0 -0.18730476846E+03 -0.10146917518E+03  0.49102042259E+03  0.54281373017E+03  0.90369355788E+02 0.  0.
         23    2    1    2    0    0  0.18730476846E+03  0.10146917518E+03  0.36601149545E+03  0.44157971804E+03  0.12509661381E+03 0.  0.
          5    1    4    4  502    0  0.13978616682E+03  0.61598793808E+01  0.19415255896E+03  0.23935497718E+03  0.41800000000E+01 0. -1.
         -5    1    4    4    0  502  0.47518601641E+02  0.95309295801E+02  0.17185893649E+03  0.20222474087E+03  0.41800000000E+01 0. -1.
        -11    1    3    3    0    0 -0.55509704238E+02 -0.21763545669E+02  0.57852873688E+02  0.83077880201E+02  0.00000000000E+00 0. -1.
         11    1    3    3    0    0 -0.13179506422E+03 -0.79705629512E+02  0.43316754890E+03  0.45973584997E+03  0.00000000000E+00 0.  1.
</event>
<event>
 8    1  0.5900800E-006  0.1191632E+03  0.7561462E-02  0.1244484E+00
         -2   -1    0    0    0  501 -0.00000000000E+00  0.00000000000E+00  0.28662824740E+03  0.28662824740E+03  0.00000000000E+00 0. -1.
          2   -1    0    0  501    0  0.00000000000E+00 -0.00000000000E+00 -0.15180494174E+03  0.15180494174E+03  0.00000000000E+00 0.  1.
         23    2    1    2    0    0  0.56035614023E+02  0.45429625422E+02  0.23519644665E+03  0.26258075483E+03  0.91801107748E+02 0.  0.
         23    2    1    2    0    0 -0.56035614023E+02 -0.45429625422E+02 -0.10037314100E+03  0.17585243431E+03  0.12508185445E+03 0.  0.
          5    1    4    4  502    0 -0.20872955546E+02  0.35974972975E+02 -0.70917684411E+02  0.82320527914E+02  0.41800000000E+01 0.  1.
         -5    1    4    4    0  502 -0.35162658477E+02 -0.81404598397E+02 -0.29455456591E+02  0.93531906397E+02  0.41800000000E+01 0.  1.
        -11    1    3    3    0    0 -0.18943490406E+01  0.49633988489E+02  0.16019617960E+03  0.16771981794E+03  0.00000000000E+00 0. -1.
         11    1    3    3    0    0  0.57929963064E+02 -0.42043630668E+01  0.75000267052E+02  0.94860936888E+02  0.00000000000E+00 0.  1.
</event>
<event>
 8    1  0.5900800E-006  0.1231257E+03  0.7561462E-02  0.1238028E+00
         -3   -1    0    0    0  501 -0.00000000000E+00  0.00000000000E+00  0.34997132615E+02  0.34997132615E+02  0.00000000000E+00 0.  1.
          3   -1    0    0  501    0  0.00000000000E+00 -0.00000000000E+00 -0.53046935110E+03  0.53046935110E+03  0.00000000000E+00 0. -1.
         23    2    1    2    0    0  0.39888195202E+02  0.44134288276E+02 -0.10698493034E+03  0.15302356211E+03  0.91823372424E+02 0.  0.
         23    2    1    2    0    0 -0.39888195202E+02 -0.44134288276E+02 -0.38848728815E+03  0.41244292161E+03  0.12509151455E+03 0.  0.
          5    1    4    4  502    0 -0.53082477095E+02  0.31233481557E+02 -0.18313692956E+03  0.19326118884E+03  0.41800000000E+01 0. -1.
         -5    1    4    4    0  502  0.13194281894E+02 -0.75367769834E+02 -0.20535035859E+03  0.21918173276E+03  0.41800000000E+01 0. -1.
        -11    1    3    3    0    0  0.64905993590E+02  0.50312356681E+02 -0.91547633322E+02  0.12298410631E+03  0.00000000000E+00 0.  1.
         11    1    3    3    0    0 -0.25017798389E+02 -0.61780684046E+01 -0.15437297016E+02  0.30039455797E+02  0.00000000000E+00 0. -1.
</event>
<event>
 7    1  0.5900800E-006  0.9272928E+02  0.7561462E-02  0.1296374E+00
          1   -1    0    0  501    0  0.00000000000E+00  0.00000000000E+00  0.89187190052E+03  0.89187190052E+03  0.00000000000E+00 0. -1.
         -1   -1    0    0    0  501 -0.00000000000E+00 -0.00000000000E+00 -0.25066172886E+02  0.25066172886E+02  0.00000000000E+00 0.  1.
         23    2    1    2    0    0 -0.28130683621E+02  0.36058536909E+02  0.15040735947E+03  0.18036625972E+03  0.88419796518E+02 0.  0.
          5    1    1    2  502    0  0.48547141231E+02 -0.69277335227E+02  0.67207587078E+03  0.67739177924E+03  0.41800000000E+01 0. -1.
         -5    1    1    2    0  502 -0.20416457610E+02  0.33218798319E+02  0.44322497377E+02  0.59180034444E+02  0.41800000000E+01 0.  1.
        -11    1    3    3    0    0 -0.37222732310E+02  0.18039838029E+02  0.15435495091E+03  0.15980118406E+03  0.00000000000E+00 0. -1.
         11    1    3    3    0    0  0.90920486896E+01  0.18018698880E+02 -0.39475914362E+01  0.20565075659E+02  0.00000000000E+00 0.  1.
</event>
<event>
 8    1  0.5900800E-006  0.1325945E+03  0.7561462E-02  0.1223656E+00
         -1   -1    0    0    0  501 -0.00000000000E+00  0.00000000000E+00  0.62810200077E+02  0.62810200077E+02  0.00000000000E+00 0.  1.
          1   -1    0    0  501    0  0.00000000000E+00 -0.00000000000E+00 -0.65470338150E+03  0.65470338150E+03  0.00000000000E+00 0. -1.
         23    2    1    2    0    0  0.10916980945E+03  0.22753940474E+02 -0.53199195970E+02  0.15335526051E+03  0.90839927199E+02 0.  0.
         23    2    1    2    0    0 -0.10916980945E+03 -0.22753940474E+02 -0.53869398546E+03  0.56415832107E+03  0.12509041593E+03 0.  0.
          5    1    4    4  502    0 -0.76678851923E+02 -0.59932613186E+02 -0.20690036307E+03  0.22868492975E+03  0.41800000000E+01 0.  1.
         -5    1    4    4    0  502 -0.32490957525E+02  0.37178672711E+02 -0.33179362239E+03  0.33547339132E+03  0.41800000000E+01 0.  1.
        -11    1    3    3    0    0  0.68604584208E+02 -0.54471945728E+01 -0.72821793305E+02  0.10019617998E+03  0.00000000000E+00 0. -1.
         11    1    3    3    0    0  0.40565225240E+02  0.28201135047E+02  0.19622597335E+02  0.53159080531E+02  0.00000000000E+00 0.  1.
</event>
<event>
 8    1  0.5900800E-006  0.1286777E+03  0.7561462E-02  0.1229431E+00
          1   -1    0    0  501    0  0.00000000000E+00  0.00000000000E+00  0.27803643178E+03  0.27803643178E+03  0.00000000000E+00 0. -1.
         -1   -1    0    0    0  501 -0.00000000000E+00 -0.00000000000E+00 -0.12407150179E+03  0.12407150179E+03  0.00000000000E+00 0.  1.
         23    2    1    2    0    0 -0.79355728099E+02 -0.10146511567E+01 -0.65938710532E+02  0.13695979036E+03  0.90065029443E+02 0.  0.
         23    2    1    2    0    0  0.79355728099E+02  0.10146511567E+01  0.21990364052E+03  0.26514814321E+03  0.12509022997E+03 0.  0.
          5    1    4    4  502    0  0.25792246606E+02 -0.56167631950E+02  0.14034036187E+03  0.15340447332E+03  0.41800000000E+01 0.  1.
         -5    1    4    4    0  502  0.53563481492E+02  0.57182283107E+02  0.79563278648E+02  0.11174366989E+03  0.41800000000E+01 0.  1.
        -11    1    3    3    0    0 -0.74720257423E+02 -0.35094752877E+02 -0.31699137100E+02  0.88428467372E+02  0.00000000000E+00 0.  1.
         11    1    3    3    0    0 -0.46354706756E+01  0.34080101721E+02 -0.34239573432E+02  0.48531322983E+02  0.00000000000E+00 0. -1.
</event>
<event>
 8    1  0.5900800E-006  0.1061984E+03  0.7561462E-02  0.1267776E+00
          3   -1    0    0  501    0  0.00000000000E+00  0.00000000000E+00  0.30581117228E+03  0.30581117228E+03  0.00000000000E+00 0. -1.
         -3   -1    0    0    0  501 -0.00000000000E+00 -0.00000000000E+00 -0.47827771846E+02  0.47827771846E+02  0.00000000000E+00 0.  1.
         23    2    1    2    0    0 -0.12617701774E+02 -0.73037484507E+01  0.37021056109E+02  0.99307594865E+02  0.90988398507E+02 0.  0.
         23    2    1    2    0    0  0.12617701774E+02  0.73037484507E+01  0.22096234432E+03  0.25433134926E+03  0.12509007342E+03 0.  0.
          5    1    4    4  502    0  0.67103091044E+02 -0.37493487239E+01  0.93642390599E+02  0.11533972499E+03  0.41800000000E+01 0.  1.
         -5    1    4    4    0  502 -0.54485389270E+02  0.11053097175E+02  0.12731995372E+03  0.13899162427E+03  0.41800000000E+01 0.  1.
        -11    1    3    3    0    0 -0.49643682514E+02 -0.14220917627E+02  0.91358023020E+01  0.52442278702E+02  0.00000000000E+00 0.  1.
         11    1    3    3    0    0  0.37025980740E+02  0.69171691764E+01  0.27885253807E+02  0.46865316163E+02  0.00000000000E+00 0. -1.
</event>
<event>
 8    1  0.5900800E-006  0.1088825E+03  0.7561462E-02  0.1262653E+00
          2   -1    0    0  501    0  0.00000000000E+00  0.00000000000E+00  0.10756534703E+03  0.10756534703E+03  0.00000000000E+00 0. -1.
         -2   -1    0    0    0  501 -0.00000000000E+00 -0.00000000000E+00 -0.14270484193E+03  0.14270484193E+03  0.00000000000E+00 0.  1.
         23    2    1    2    0    0  0.42428392203E+02  0.30221407420E+02 -0.43762585656E+02  0.11449231407E+03  0.92085960640E+02 0.  0.
         23    2    1    2    0    0 -0.42428392203E+02 -0.30221407420E+02  0.86230907589E+01  0.13577787488E+03  0.12509105357E+03 0.  0.
          5    1    4    4  502    0  0.10651415183E+02 -0.53802840132E+02 -0.33048811780E+02  0.64170823679E+02  0.41800000000E+01 0.  1.
         -5    1    4    4    0  502 -0.53079807387E+02  0.23581432712E+02  0.41671902539E+02  0.71607051204E+02  0.41800000000E+01 0.  1.
        -11    1    3    3    0    0  0.24958936524E+02  0.62789873321E+02 -0.36607827463E+02  0.76848225325E+02  0.00000000000E+00 0.  1.
         11    1    3    3    0    0  0.17469455679E+02 -0.32568465901E+02 -0.71547581931E+01  0.37644088748E+02  0.00000000000E+00 0. -1.
</event>
<event>
 8    1  0.5900800E-006  0.1077911E+03  0.7561462E-02  0.1264716E+00
          1   -1    0    0  501    0  0.00000000000E+00  0.00000000000E+00  0.12596529781E+03  0.12596529781E+03  0.00000000000E+00 0. -1.
         -1   -1    0    0    0  501 -0.00000000000E+00 -0.00000000000E+00 -0.98054341516E+02  0.98054341516E+02  0.00000000000E+00 0.  1.
         23    2    1    2    0    0 -0.10360899912E+02 -0.15707619180E+02 -0.89197890575E+01  0.92275888126E+02  0.89895491240E+02 0.  0.
         23    2    1    2    0    0  0.10360899912E+02  0.15707619180E+02  0.36830745349E+02  0.13174375120E+03  0.12508331075E+03 0.  0.
          5    1    4    4  502    0  0.39894273495E+02 -0.44056479152E+02  0.20168565773E+02  0.62902860493E+02  0.41800000000E+01 0. -1.
         -5    1    4    4    0  502 -0.29533373583E+02  0.59764098332E+02  0.16662179576E+02  0.68840890703E+02  0.41800000000E+01 0. -1.
        -11    1    3    3    0    0  0.34008384975E+02  0.12945938975E+02 -0.14485376309E+02  0.39166231774E+02  0.00000000000E+00 0.  1.
         11    1    3    3    0    0 -0.44369284887E+02 -0.28653558155E+02  0.55655872515E+01  0.53109656352E+02  0.00000000000E+00 0. -1.
</event>
<event>
 8    1  0.5900800E-006  0.1065166E+03  0.7561462E-02  0.1267160E+00
         -4   -1    0    0    0  501 -0.00000000000E+00  0.00000000000E+00  0.75165092971E+02  0.75165092971E+02  0.00000000000E+00 0.  1.
          4   -1    0    0  501    0  0.00000000000E+00 -0.00000000000E+00 -0.19394938296E+03  0.19394938296E+03  0.00000000000E+00 0. -1.
         23    2    1    2    0    0 -0.15392235499E+02 -0.52526635761E+02 -0.43475969114E+02  0.11319066864E+03  0.89028080951E+02 0.  0.
         23    2    1    2    0    0  0.15392235499E+02  0.52526635761E+02 -0.75308320879E+02  0.15592380730E+03  0.12507966306E+03 0.  0.
          5    1    4    4  502    0  0.69095800322E+02  0.25086382497E+02 -0.26583795152E+02  0.78279797992E+02  0.41800000000E+01 0. -1.
         -5    1    4    4    0  502 -0.53703564823E+02  0.27440253264E+02 -0.48724525727E+02  0.77644009307E+02  0.41800000000E+01 0. -1.
        -11    1    3    3    0    0 -0.32505085873E+02 -0.11464513026E+02  0.16745684353E+02  0.38320146281E+02  0.00000000000E+00 0.  1.
         11    1    3    3    0    0  0.17112850374E+02 -0.41062122735E+02 -0.60221653467E+02  0.74870522355E+02  0.00000000000E+00 0. -1.
</event>
<event>
 8    1  0.5900800E-006  0.9448911E+02  0.7561462E-02  0.1292331E+00
          4   -1    0    0  501    0  0.00000000000E+00  0.00000000000E+00  0.94399039172E+02  0.94399039172E+02  0.00000000000E+00 0. -1.
         -4   -1    0    0    0  501 -0.00000000000E+00 -0.00000000000E+00 -0.13941229137E+03  0.13941229137E+03  0.00000000000E+00 0.  1.
         23    2    1    2    0    0 -0.24769046715E+02 -0.71900555892E+01 -0.44833468317E+02  0.10609226736E+03  0.92630053100E+02 0.  0.
         23    2    1    2    0    0  0.24769046715E+02  0.71900555892E+01 -0.17978388546E+00  0.12771906319E+03  0.12508766608E+03 0.  0.
          5    1    4    4  502    0  0.55035831302E+01  0.49237168921E+02  0.41923069791E+02  0.65035408904E+02  0.41800000000E+01 0. -1.
         -5    1    4    4    0  502  0.19265463585E+02 -0.42047113332E+02 -0.42102853677E+02  0.62683654284E+02  0.41800000000E+01 0. -1.
        -11    1    3    3    0    0  0.17036064202E+02 -0.37496112974E+02 -0.33831236528E+02  0.53298579124E+02  0.00000000000E+00 0.  1.
         11    1    3    3    0    0 -0.41805110917E+02  0.30306057385E+02 -0.11002231789E+02  0.52793688234E+02  0.00000000000E+00 0. -1.
</event>
<event>
 8    1  0.5900800E-006  0.8693018E+02  0.7561462E-02  0.1310461E+00
          2   -1    0    0  501    0  0.00000000000E+00  0.00000000000E+00  0.17295491038E+04  0.17295491038E+04  0.00000000000E+00 0. -1.
         -2   -1    0    0    0  501 -0.00000000000E+00 -0.00000000000E+00 -0.88330634533E+01  0.88330634533E+01  0.00000000000E+00 0.  1.
         23    2    1    2    0    0  0.21831586355E+02 -0.96455342600E+01  0.38351043376E+03  0.39512633829E+03  0.92059306511E+02 0.  0.
         23    2    1    2    0    0 -0.21831586355E+02  0.96455342600E+01  0.13372056066E+04  0.13432558290E+04  0.12509089998E+03 0.  0.
          5    1    4    4  502    0  0.25258874122E+02  0.17675821770E+02  0.11355886955E+04  0.11360147900E+04  0.41800000000E+01 0.  1.
         -5    1    4    4    0  502 -0.47090460477E+02 -0.80302875096E+01  0.20161691110E+03  0.20724103895E+03  0.41800000000E+01 0.  1.
        -11    1    3    3    0    0  0.53157987723E+02 -0.26310565821E+02  0.22429864530E+03  0.23200840463E+03  0.00000000000E+00 0. -1.
         11    1    3    3    0    0 -0.31326401368E+02  0.16665031561E+02  0.15921178845E+03  0.16311793366E+03  0.00000000000E+00 0.  1.
</event>
<event>
 8    1  0.5900800E-006  0.9033277E+02  0.7561462E-02  0.1302048E+00
         -2   -1    0    0    0  501 -0.00000000000E+00  0.00000000000E+00  0.79141941635E+02  0.79141941635E+02  0.00000000000E+00 0.  1.
          2   -1    0    0  501    0  0.00000000000E+00 -0.00000000000E+00 -0.16742390335E+03  0.16742390335E+03  0.00000000000E+00 0. -1.
         23    2    1    2    0    0 -0.46784476701E+01  0.40104939558E+02 -0.36510485739E+02  0.10529211608E+03  0.90128353421E+02 0.  0.
         23    2    1    2    0    0  0.46784476701E+01 -0.40104939558E+02 -0.51771475974E+02  0.14127372890E+03  0.12509071390E+03 0.  0.
          5    1    4    4  502    0 -0.28214555997E+02  0.20784729395E+01  0.31289703819E+02  0.42389847664E+02  0.41800000000E+01 0. -1.
         -5    1    4    4    0  502  0.32893003667E+02 -0.42183412497E+02 -0.83061179793E+02  0.98883881238E+02  0.41800000000E+01 0. -1.
        -11    1    3    3    0    0 -0.41591285632E+02  0.44883848292E+02 -0.18392957539E+02  0.63895976125E+02  0.00000000000E+00 0.  1.
         11    1    3    3    0    0  0.36912837962E+02 -0.47789087340E+01 -0.18117528201E+02  0.41396139956E+02  0.00000000000E+00 0. -1.
</event>
<event>
 8    1  0.5900800E-006  0.8982780E+02  0.7561462E-02  0.1303269E+00
          2   -1    0    0  501    0  0.00000000000E+00  0.00000000000E+00  0.98005004985E+02  0.98005004985E+02  0.00000000000E+00 0. -1.
         -2   -1    0    0    0  501 -0.00000000000E+00 -0.00000000000E+00 -0.14672454228E+03  0.14672454228E+03  0.00000000000E+00 0.  1.
         23    2    1    2    0    0 -0.33413492230E+02 -0.60703060195E+01 -0.60271331467E+02  0.11459733884E+03  0.91359764640E+02 0.  0.
         23    2    1    2    0    0  0.33413492230E+02  0.60703060195E+01  0.11551794170E+02  0.13013220842E+03  0.12509051780E+03 0.  0.
          5    1    4    4  502    0 -0.12000518004E+02 -0.24569698895E+02 -0.44017260789E+02  0.51987250201E+02  0.41800000000E+01 0.  1.
         -5    1    4    4    0  502  0.45414010234E+02  0.30640004914E+02  0.55569054959E+02  0.78144958223E+02  0.41800000000E+01 0.  1.
        -11    1    3    3    0    0  0.10967141489E+02 -0.39815602549E+02 -0.30916568062E+02  0.51588705929E+02  0.00000000000E+00 0.  1.
         11    1    3    3    0    0 -0.44380633718E+02  0.33745296529E+02 -0.29354763405E+02  0.63008632914E+02  0.00000000000E+00 0. -1.
</event>
<event>
 7    1  0.5900800E-006  0.9075748E+02  0.7561462E-02  0.1301028E+00
          2   -1    0    0  501    0  0.00000000000E+00  0.00000000000E+00  0.62953043765E+03  0.62953043765E+03  0.00000000000E+00 0. -1.
         -2   -1    0    0    0  501 -0.00000000000E+00 -0.00000000000E+00 -0.60501077452E+02  0.60501077452E+02  0.00000000000E+00 0.  1.
         23    2    1    2    0    0  0.57795504505E+01  0.64639210170E+02  0.11458472882E+02  0.11414810598E+03  0.93203341157E+02 0.  0.
          5    1    1    2  502    0 -0.49045512765E+02 -0.50999861613E+02  0.48532226031E+03  0.49047081153E+03  0.41800000000E+01 0. -1.
         -5    1    1    2    0  502  0.43265962314E+02 -0.13639348557E+02  0.72248627004E+02  0.85412597595E+02  0.41800000000E+01 0.  1.
        -11    1    3    3    0    0  0.29276394284E+01  0.11645110127E+02 -0.39068052895E+02  0.40871657900E+02  0.00000000000E+00 0.  1.
         11    1    3    3    0    0  0.28519110221E+01  0.52994100043E+02  0.50526525777E+02  0.73276448078E+02  0.00000000000E+00 0. -1.
</event>
<event>
 8    1  0.5900800E-006  0.7482682E+02  0.7561462E-02  0.1344408E+00
          2   -1    0    0  501    0  0.00000000000E+00  0.00000000000E+00  0.48203713427E+02  0.48203713427E+02  0.00000000000E+00 0. -1.
         -2   -1    0    0    0  501 -0.00000000000E+00 -0.00000000000E+00 -0.31209141752E+03  0.31209141752E+03  0.00000000000E+00 0.  1.
         23    2    1    2    0    0  0.37666362210E+02  0.15838206298E+02 -0.17105961303E+03  0.19925546431E+03  0.93657595672E+02 0.  0.
         23    2    1    2    0    0 -0.37666362210E+02 -0.15838206298E+02 -0.92828091061E+02  0.16103966663E+03  0.12508843319E+03 0.  0.
          5    1    4    4  502    0 -0.43844930861E+02 -0.33228537264E+02 -0.11758134438E+03  0.12988209498E+03  0.41800000000E+01 0. -1.
         -5    1    4    4    0  502  0.61785686505E+01  0.17390330966E+02  0.24753253316E+02  0.31157571654E+02  0.41800000000E+01 0. -1.
        -11    1    3    3    0    0  0.45226057275E+02 -0.11935434455E+02 -0.16268814275E+03  0.16927871290E+03  0.00000000000E+00 0.  1.
         11    1    3    3    0    0 -0.75596950641E+01  0.27773640754E+02 -0.83714702827E+01  0.29976751406E+02  0.00000000000E+00 0. -1.
</event>
<event>
 8    1  0.5900800E-006  0.1026725E+03  0.7561462E-02  0.1274774E+00
         -2   -1    0    0    0  501 -0.00000000000E+00  0.00000000000E+00  0.23846724005E+02  0.23846724005E+02  0.00000000000E+00 0.  1.
          2   -1    0    0  501    0  0.00000000000E+00 -0.00000000000E+00 -0.66424896397E+03  0.66424896397E+03  0.00000000000E+00 0. -1.
         23    2    1    2    0    0  0.59592319182E+02  0.14472649103E+02 -0.24167220550E+03  0.26572833276E+03  0.91898802183E+02 0.  0.
         23    2    1    2    0    0 -0.59592319182E+02 -0.14472649103E+02 -0.39873003447E+03  0.42236735522E+03  0.12509132779E+03 0.  0.
          5    1    4    4  502    0 -0.48715262174E+02 -0.68433170097E+02 -0.23904088817E+03  0.25340539489E+03  0.41800000000E+01 0. -1.
         -5    1    4    4    0  502 -0.10877057007E+02  0.53960520994E+02 -0.15968914629E+03  0.16896196033E+03  0.41800000000E+01 0. -1.
        -11    1    3    3    0    0  0.46743703045E+02  0.82689536094E-01 -0.24196098661E+03  0.24643477768E+03  0.00000000000E+00 0. -1.
         11    1    3    3    0    0  0.12848616137E+02  0.14389959567E+02  0.28878110708E+00  0.19293555077E+02  0.00000000000E+00 0.  1.
</event>
<event>
 8    1  0.5900800E-006  0.8546297E+02  0.7561462E-02  0.1314226E+00
         -1   -1    0    0    0  501 -0.00000000000E+00  0.00000000000E+00  0.34723708508E+02  0.34723708508E+02  0.00000000000E+00 0.  1.
          1   -1    0    0  501    0  0.00000000000E+00 -0.00000000000E+00 -0.48917729912E+03  0.48917729912E+03  0.00000000000E+00 0. -1.
         23    2    1    2    0    0 -0.17134582853E+02  0.54021498806E+02 -0.11358914703E+03  0.15641302132E+03  0.91381741366E+02 0.  0.
         23    2    1    2    0    0  0.17134582853E+02 -0.54021498806E+02 -0.34086444359E+03  0.36748798630E+03  0.12508770888E+03 0.  0.
          5    1    4    4  502    0  0.30891321531E+02 -0.97080456992E+01 -0.11153699248E+02  0.34502134777E+02  0.41800000000E+01 0.  1.
         -5    1    4    4    0  502 -0.13756738678E+02 -0.44313453107E+02 -0.32971074434E+03  0.33298585153E+03  0.41800000000E+01 0.  1.
        -11    1    3    3    0    0 -0.45607357344E+02  0.32770607143E+02 -0.10618392275E+03  0.12012064430E+03  0.00000000000E+00 0. -1.
         11    1    3    3    0    0  0.28472774491E+02  0.21250891663E+02 -0.74052242781E+01  0.36292377027E+02  0.00000000000E+00 0.  1.
</event>
<event>
 7    1  0.5900800E-006  0.6634601E+02  0.7561462E-02  0.1372979E+00
         -2   -1    0    0    0  501 -0.00000000000E+00  0.00000000000E+00  0.69112720396E+01  0.69112720396E+01  0.00000000000E+00 0.  1.
          2   -1    0    0  501    0  0.00000000000E+00 -0.00000000000E+00 -0.11143408786E+04  0.11143408786E+04  0.00000000000E+00 0. -1.
         23    2    1    2    0    0 -0.44166624705E+02  0.11184141283E+02 -0.91603936743E+03  0.92425953473E+03  0.11424442707E+03 0.  0.
          5    1    3    3  502    0 -0.64281061589E+02  0.12215411056E+02 -0.88237884795E+03  0.88481137812E+03  0.41800000000E+01 0. -1.
         -5    1    3    3    0  502  0.20114436884E+02 -0.10312697735E+01 -0.33660519474E+02  0.39448156608E+02  0.41800000000E+01 0.  1.
        -11    1    1    2    0    0  0.12711155452E+02 -0.78159853011E+01 -0.67150950503E+02  0.68788903557E+02  0.00000000000E+00 0. -1.
         11    1    1    2    0    0  0.31455469253E+02 -0.33681559819E+01 -0.12423928864E+03  0.12820371236E+03  0.00000000000E+00 0.  1.
</event>
<event>
 8    1  0.5900800E-006  0.8348097E+02  0.7561462E-02  0.1319453E+00
         -2   -1    0    0    0  501 -0.00000000000E+00  0.00000000000E+00  0.30857998027E+02  0.30857998027E+02  0.00000000000E+00 0.  1.
          2   -1    0    0  501    0  0.00000000000E+00 -0.00000000000E+00 -0.43103252143E+03  0.43103252143E+03  0.00000000000E+00 0. -1.
         23    2    1    2    0    0  0.21281360742E+02 -0.13734242430E+02 -0.11339756449E+03  0.14798694400E+03  0.91649343870E+02 0.  0.
         23    2    1    2    0    0 -0.21281360742E+02  0.13734242430E+02 -0.28677695891E+03  0.31390357546E+03  0.12511156937E+03 0.  0.
          5    1    4    4  502    0 -0.17383998258E+02 -0.34901274463E+02 -0.22671501522E+02  0.45296487014E+02  0.41800000000E+01 0.  1.
         -5    1    4    4    0  502 -0.38973624847E+01  0.48635516893E+02 -0.26410545739E+03  0.26860708844E+03  0.41800000000E+01 0.  1.
        -11    1    3    3    0    0  0.40314194856E+02 -0.32699557476E+02 -0.29095630493E+02  0.59506731382E+02  0.00000000000E+00 0.  1.
         11    1    3    3    0    0 -0.19032834114E+02  0.18965315046E+02 -0.84301933995E+02  0.88480212615E+02  0.00000000000E+00 0. -1.
</event>
<event>
 8    1  0.5900800E-006  0.7186745E+02  0.7561462E-02  0.1353855E+00
         -1   -1    0    0    0  501 -0.00000000000E+00  0.00000000000E+00  0.15671100625E+02  0.15671100625E+02  0.00000000000E+00 0.  1.
          1   -1    0    0  501    0  0.00000000000E+00 -0.00000000000E+00 -0.82806660412E+03  0.82806660412E+03  0.00000000000E+00 0. -1.
         23    2    1    2    0    0 -0.37033210632E+02 -0.40942377434E+01 -0.37793103044E+03  0.39009159913E+03  0.89170457343E+02 0.  0.
         23    2    1    2    0    0  0.37033210632E+02  0.40942377434E+01 -0.43446447305E+03  0.45364610562E+03  0.12508872582E+03 0.  0.
          5    1    4    4  502    0  0.19447527822E+02  0.17559233506E+02 -0.96490104977E+01  0.28233115721E+02  0.41800000000E+01 0.  1.
         -5    1    4    4    0  502  0.17585682810E+02 -0.13464995763E+02 -0.42481546255E+03  0.42541298990E+03  0.41800000000E+01 0.  1.
        -11    1    3    3    0    0  0.25194737461E+02  0.15306734953E+02 -0.15708131127E+03  0.15982368185E+03  0.00000000000E+00 0. -1.
         11    1    3    3    0    0 -0.62227948093E+02 -0.19400972697E+02 -0.22084971917E+03  0.23026791727E+03  0.00000000000E+00 0.  1.
</event>
<event>
 8    1  0.5900800E-006  0.7566798E+02  0.7561462E-02  0.1341815E+00
          1   -1    0    0  501    0  0.00000000000E+00  0.00000000000E+00  0.91709654318E+02  0.91709654318E+02  0.00000000000E+00 0. -1.
         -1   -1    0    0    0  501 -0.00000000000E+00 -0.00000000000E+00 -0.14183299523E+03  0.14183299523E+03  0.00000000000E+00 0.  1.
         23    2    1    2    0    0  0.13260557222E+02 -0.39188412158E+02 -0.46808995897E+02  0.11095463871E+03  0.91696650594E+02 0.  0.
         23    2    1    2    0    0 -0.13260557222E+02  0.39188412158E+02 -0.33143450204E+01  0.12258801084E+03  0.11534843516E+03 0.  0.
          5    1    4    4  502    0  0.25765261204E+02 -0.16538767070E+02  0.33122624511E+02  0.45298566816E+02  0.41800000000E+01 0. -1.
         -5    1    4    4    0  502 -0.39025818425E+02  0.55727179229E+02 -0.36436969531E+02  0.77289444022E+02  0.41800000000E+01 0.  1.
        -11    1    3    3    0    0 -0.10505665850E+02 -0.15444670607E+02 -0.68476646812E+02  0.70978574399E+02  0.00000000000E+00 0.  1.
         11    1    3    3    0    0  0.23766223072E+02 -0.23743741552E+02  0.21667650915E+02  0.39976064315E+02  0.00000000000E+00 0. -1.
</event>
<event>
 8    1  0.5900800E-006  0.9216220E+02  0.7561462E-02  0.1297699E+00
         -1   -1    0    0    0  501 -0.00000000000E+00  0.00000000000E+00  0.46438619036E+02  0.46438619036E+02  0.00000000000E+00 0.  1.
          1   -1    0    0  501    0  0.00000000000E+00 -0.00000000000E+00 -0.41970310807E+03  0.41970310807E+03  0.00000000000E+00 0. -1.
         23    2    1    2    0    0 -0.90002719330E+01 -0.41301506130E+02 -0.42654866287E+02  0.11013462706E+03  0.92322148789E+02 0.  0.
         23    2    1    2    0    0  0.90002719330E+01  0.41301506130E+02 -0.33060962275E+03  0.35600710005E+03  0.12510600835E+03 0.  0.
          5    1    4    4  502    0  0.21081228525E+02  0.69085861148E+02 -0.31183862496E+03  0.32012196867E+03  0.41800000000E+01 0.  1.
         -5    1    4    4    0  502 -0.12080956592E+02 -0.27784355018E+02 -0.18770997789E+02  0.35885131377E+02  0.41800000000E+01 0.  1.
        -11    1    3    3    0    0  0.40045553014E+01 -0.59160779061E+02  0.30455684685E+01  0.59374318772E+02  0.00000000000E+00 0.  1.
         11    1    3    3    0    0 -0.13004827234E+02  0.17859272932E+02 -0.45700434755E+02  0.50760308292E+02  0.00000000000E+00 0. -1.
</event>
<event>
 8    1  0.5900800E-006  0.1071229E+03  0.7561462E-02  0.1265992E+00
         -2   -1    0    0    0  501 -0.00000000000E+00  0.00000000000E+00  0.54906932572E+02  0.54906932572E+02  0.00000000000E+00 0.  1.
          2   -1    0    0  501    0  0.00000000000E+00 -0.00000000000E+00 -0.28361130159E+03  0.28361130159E+03  0.00000000000E+00 0. -1.
         23    2    1    2    0    0  0.14545522029E+02  0.55569728685E+02 -0.70508038639E+02  0.12884771494E+03  0.91273124057E+02 0.  0.
         23    2    1    2    0    0 -0.14545522029E+02 -0.55569728685E+02 -0.15819633038E+03  0.20967051922E+03  0.12504431506E+03 0.  0.
          5    1    4    4  502    0 -0.33116405393E+02  0.12785777842E+02 -0.12739962552E+03  0.13231896842E+03  0.41800000000E+01 0. -1.
         -5    1    4    4    0  502  0.18570883364E+02 -0.68355506528E+02 -0.30796704861E+02  0.77351550805E+02  0.41800000000E+01 0. -1.
        -11    1    3    3    0    0  0.36279507454E+02 -0.10682173060E+02 -0.29431359405E+02  0.47921982417E+02  0.00000000000E+00 0.  1.
         11    1    3    3    0    0 -0.21733985425E+02  0.66251901746E+02 -0.41076679234E+02  0.80925732522E+02  0.00000000000E+00 0. -1.
</event>
<event>
 8    1  0.5900800E-006  0.1287047E+03  0.7561462E-02  0.1229391E+00
          2   -1    0    0  501    0  0.00000000000E+00  0.00000000000E+00  0.26957265097E+03  0.26957265097E+03  0.00000000000E+00 0. -1.
         -2   -1    0    0    0  501 -0.00000000000E+00 -0.00000000000E+00 -0.74534299680E+02  0.74534299680E+02  0.00000000000E+00 0.  1.
         23    2    1    2    0    0 -0.47821549253E+02 -0.65018546391E+02  0.34493541252E+02  0.12517109746E+03  0.89239494074E+02 0.  0.
         23    2    1    2    0    0  0.47821549253E+02  0.65018546391E+02  0.16054481004E+03  0.21893585319E+03  0.12507581635E+03 0.  0.
          5    1    4    4  502    0  0.49782130433E+02 -0.21031142689E+02  0.99583391057E+02  0.11337942339E+03  0.41800000000E+01 0.  1.
         -5    1    4    4    0  502 -0.19605811799E+01  0.86049689080E+02  0.60961418980E+02  0.10555642981E+03  0.41800000000E+01 0.  1.
        -11    1    3    3    0    0  0.24672132218E+02 -0.13788901874E+02 -0.37566975170E+01  0.28512465682E+02  0.00000000000E+00 0.  1.
         11    1    3    3    0    0 -0.72493681471E+02 -0.51229644518E+02  0.38250238769E+02  0.96658631774E+02  0.00000000000E+00 0. -1.
</event>
<event>
 8    1  0.5900800E-006  0.1121044E+03  0.7561462E-02  0.1256722E+00
          2   -1    0    0  501    0  0.00000000000E+00  0.00000000000E+00  0.10412284068E+03  0.10412284068E+03  0.00000000000E+00 0. -1.
         -2   -1    0    0    0  501 -0.00000000000E+00 -0.00000000000E+00 -0.17036701009E+03  0.17036701009E+03  0.00000000000E+00 0.  1.
         23    2    1    2    0    0 -0.51736961897E+02  0.33311659481E+02 -0.74953959159E+02  0.13481162810E+03  0.93646672086E+02 0.  0.
         23    2    1    2    0    0  0.51736961897E+02 -0.33311659481E+02  0.87097897427E+01  0.13967822267E+03  0.12509102913E+03 0.  0.
          5    1    4    4  502    0  0.91933262886E+02 -0.35086649561E+02  0.11340845186E+02  0.99140733162E+02  0.41800000000E+01 0.  1.
         -5    1    4    4    0  502 -0.40196300989E+02  0.17749900801E+01 -0.26310554437E+01  0.40537489510E+02  0.41800000000E+01 0.  1.
        -11    1    3    3    0    0 -0.51510305506E+02 -0.44226247560E+00 -0.85177629206E+02  0.99542632508E+02  0.00000000000E+00 0.  1.
         11    1    3    3    0    0 -0.22665639027E+00  0.33753921957E+02  0.10223670048E+02  0.35268995588E+02  0.00000000000E+00 0. -1.
</event>
<event>
 8    1  0.5900800E-006  0.1072656E+03  0.7561462E-02  0.1265719E+00
         -3   -1    0    0    0  501 -0.00000000000E+00  0.00000000000E+00  0.26566690431E+03  0.26566690431E+03  0.00000000000E+00 0.  1.
          3   -1    0    0  501    0  0.00000000000E+00 -0.00000000000E+00 -0.47824026288E+02  0.47824026288E+02  0.00000000000E+00 0. -1.
         23    2    1    2    0    0 -0.19063645671E+02 -0.33642553931E+01  0.12938710597E+03  0.15907375854E+03  0.90491417627E+02 0.  0.
         23    2    1    2    0    0  0.19063645671E+02  0.33642553931E+01  0.88455772048E+02  0.15441717205E+03  0.12508196759E+03 0.  0.
          5    1    4    4  502    0  0.47586601862E+02  0.51637792191E+02  0.49084968082E+02  0.85777344041E+02  0.41800000000E+01 0. -1.
         -5    1    4    4    0  502 -0.28522956191E+02 -0.48273536797E+02  0.39370803966E+02  0.68639828014E+02  0.41800000000E+01 0. -1.
        -11    1    3    3    0    0 -0.53455209597E+02 -0.34803167964E+01  0.10160903675E+03  0.11486500071E+03  0.00000000000E+00 0.  1.
         11    1    3    3    0    0  0.34391563926E+02  0.11606140327E+00  0.27778069216E+02  0.44208757830E+02  0.00000000000E+00 0. -1.
</event>
<event>
 8    1  0.5900800E-006  0.7457218E+02  0.7561462E-02  0.1345201E+00
         -2   -1    0    0    0  501 -0.00000000000E+00  0.00000000000E+00  0.49231467622E+02  0.49231467622E+02  0.00000000000E+00 0.  1.
          2   -1    0    0  501    0  0.00000000000E+00 -0.00000000000E+00 -0.34162904551E+03  0.34162904551E+03  0.00000000000E+00 0. -1.
         23    2    1    2    0    0  0.30615215440E+02 -0.26908694714E+02 -0.43695607252E+02  0.10950802413E+03  0.91767815642E+02 0.  0.
         23    2    1    2    0    0 -0.30615215440E+02  0.26908694714E+02 -0.24870197064E+03  0.28135248900E+03  0.12508070836E+03 0.  0.
          5    1    4    4  502    0 -0.27073547881E+02  0.45031652029E+02 -0.25576883457E+03  0.26114363063E+03  0.41800000000E+01 0. -1.
         -5    1    4    4    0  502 -0.35416675593E+01 -0.18122957314E+02  0.70668639371E+01  0.20208858375E+02  0.41800000000E+01 0. -1.
        -11    1    3    3    0    0 -0.57819956112E+01 -0.38786841722E+02  0.12808656482E+02  0.41254239114E+02  0.00000000000E+00 0.  1.
         11    1    3    3    0    0  0.36397211051E+02  0.11878147007E+02 -0.56504263734E+02  0.68253785014E+02  0.00000000000E+00 0. -1.
</event>
<event>
 8    1  0.5900800E-006  0.9973446E+02  0.7561462E-02  0.1280855E+00
         -1   -1    0    0    0  501 -0.00000000000E+00  0.00000000000E+00  0.27216194584E+03  0.27216194584E+03  0.00000000000E+00 0.  1.
          1   -1    0    0  501    0  0.00000000000E+00 -0.00000000000E+00 -0.51978204113E+02  0.51978204113E+02  0.00000000000E+00 0. -1.
         23    2    1    2    0    0  0.46138120908E+02 -0.25556402615E+01  0.11630970837E+03  0.15510912781E+03  0.91627701983E+02 0.  0.
         23    2    1    2    0    0 -0.46138120908E+02  0.25556402615E+01  0.10387403337E+03  0.16903102215E+03  0.12508562725E+03 0.  0.
          5    1    4    4  502    0 -0.68735894738E+02  0.16071677055E+02  0.11896545840E+03  0.13839499528E+03  0.41800000000E+01 0.  1.
         -5    1    4    4    0  502  0.22597773829E+02 -0.13516036793E+02 -0.15091425030E+02  0.30636026865E+02  0.41800000000E+01 0.  1.
        -11    1    3    3    0    0  0.46018465469E+02 -0.42206872053E+02  0.78649593337E+02  0.10042349200E+03  0.00000000000E+00 0. -1.
         11    1    3    3    0    0  0.11965543946E+00  0.39651231792E+02  0.37660115029E+02  0.54685635811E+02  0.00000000000E+00 0.  1.
</event>
<event>
 7    1  0.5900800E-006  0.3463900E+03  0.7561462E-02  0.1064107E+00
          1   -1    0    0  501    0  0.00000000000E+00  0.00000000000E+00  0.22708578774E+03  0.22708578774E+03  0.00000000000E+00 0. -1.
         -1   -1    0    0    0  501 -0.00000000000E+00 -0.00000000000E+00 -0.58355767991E+03  0.58355767991E+03  0.00000000000E+00 0.  1.
         23    2    1    2    0    0  0.30672849071E+02  0.33034357260E+03 -0.20589974819E+03  0.41001160283E+03  0.12508840281E+03 0.  0.
          5    1    3    3  502    0  0.61883496165E+02  0.78770798356E+02 -0.46381259168E+02  0.11046763948E+03  0.41800000000E+01 0. -1.
         -5    1    3    3    0  502 -0.31210647093E+02  0.25157277425E+03 -0.15951848902E+03  0.29954396334E+03  0.41800000000E+01 0. -1.
        -11    1    1    2    0    0 -0.14837937646E+01 -0.28534377955E+03 -0.18201617881E+03  0.33845703349E+03  0.00000000000E+00 0.  1.
         11    1    1    2    0    0 -0.29189055307E+02 -0.44999793051E+02  0.31444034829E+02  0.62174831328E+02  0.00000000000E+00 0. -1.
</event>
<event>
 8    1  0.5900800E-006  0.9098362E+02  0.7561462E-02  0.1300487E+00
         -1   -1    0    0    0  501 -0.00000000000E+00  0.00000000000E+00  0.69667514359E+02  0.69667514359E+02  0.00000000000E+00 0.  1.
          1   -1    0    0  501    0  0.00000000000E+00 -0.00000000000E+00 -0.29733846106E+03  0.29733846106E+03  0.00000000000E+00 0. -1.
         23    2    1    2    0    0 -0.12905561604E+02  0.25221063662E+02  0.14511317228E+02  0.94295944987E+02  0.88760866043E+02 0.  0.
         23    2    1    2    0    0  0.12905561604E+02 -0.25221063662E+02 -0.24218226393E+03  0.27271003044E+03  0.12213048827E+03 0.  0.
          5    1    4    4  502    0  0.39570489263E+02 -0.46011567896E+02 -0.22770809748E+03  0.23569331357E+03  0.41800000000E+01 0. -1.
         -5    1    4    4    0  502 -0.26664927659E+02  0.20790504233E+02 -0.14474166450E+02  0.37016716869E+02  0.41800000000E+01 0.  1.
        -11    1    3    3    0    0 -0.43481313687E+02 -0.53747526395E+01  0.24082562467E+02  0.49994823940E+02  0.00000000000E+00 0. -1.
         11    1    3    3    0    0  0.30575752083E+02  0.30595816302E+02 -0.95712452383E+01  0.44301121047E+02  0.00000000000E+00 0.  1.
</event>
<event>
 8    1  0.5900800E-006  0.6607050E+02  0.7561462E-02  0.1373989E+00
         -2   -1    0    0    0  501 -0.00000000000E+00  0.00000000000E+00  0.24186353934E+02  0.24186353934E+02  0.00000000000E+00 0.  1.
          2   -1    0    0  501    0  0.00000000000E+00 -0.00000000000E+00 -0.44970852155E+03  0.44970852155E+03  0.00000000000E+00 0. -1.
         23    2    1    2    0    0  0.14288378028E+01  0.14730867841E+02 -0.16163161823E+03  0.18148014965E+03  0.81186357590E+02 0.  0.
         23    2    1    2    0    0 -0.14288378028E+01 -0.14730867841E+02 -0.26389054939E+03  0.29241472584E+03  0.12509640198E+03 0.  0.
          5    1    4    4  502    0  0.24081914447E+02 -0.32458959481E+02 -0.17841347208E+02  0.44376894035E+02  0.41800000000E+01 0. -1.
         -5    1    4    4    0  502 -0.25510752249E+02  0.17728091640E+02 -0.24604920218E+03  0.24803783181E+03  0.41800000000E+01 0. -1.
        -11    1    3    3    0    0  0.62926426623E+01 -0.22117286652E+02 -0.95103546219E+01  0.24884102667E+02  0.00000000000E+00 0.  1.
         11    1    3    3    0    0 -0.48638048595E+01  0.36848154493E+02 -0.15212126361E+03  0.15659604698E+03  0.00000000000E+00 0. -1.
</event>
<event>
 8    1  0.5900800E-006  0.1077024E+03  0.7561462E-02  0.1264885E+00
         -2   -1    0    0    0  501 -0.00000000000E+00  0.00000000000E+00  0.85509705241E+02  0.85509705241E+02  0.00000000000E+00 0.  1.
          2   -1    0    0  501    0  0.00000000000E+00 -0.00000000000E+00 -0.19361107500E+03  0.19361107500E+03  0.00000000000E+00 0. -1.
         23    2    1    2    0    0 -0.48310089871E+02 -0.45558911266E+02 -0.31201409718E+02  0.11796596742E+03  0.92374034884E+02 0.  0.
         23    2    1    2    0    0  0.48310089871E+02  0.45558911266E+02 -0.76899960046E+02  0.16115481283E+03  0.12509112944E+03 0.  0.
          5    1    4    4  502    0 -0.12849096463E+02 -0.13938327822E+02  0.22745264413E+02  0.29903105451E+02  0.41800000000E+01 0. -1.
         -5    1    4    4    0  502  0.61159186334E+02  0.59497239089E+02 -0.99645224459E+02  0.13125170738E+03  0.41800000000E+01 0. -1.
        -11    1    3    3    0    0 -0.69843615240E+02 -0.12262306451E+02 -0.33123194758E+02  0.78266472900E+02  0.00000000000E+00 0.  1.
         11    1    3    3    0    0  0.21533525369E+02 -0.33296604815E+02  0.19217850396E+01  0.39699494515E+02  0.00000000000E+00 0. -1.
</event>
<event>
 8    1  0.5900800E-006  0.1279737E+03  0.7561462E-02  0.1230494E+00
          2   -1    0    0  501    0  0.00000000000E+00  0.00000000000E+00  0.28388804483E+03  0.28388804483E+03  0.00000000000E+00 0. -1.
         -2   -1    0    0    0  501 -0.00000000000E+00 -0.00000000000E+00 -0.15203259411E+03  0.15203259411E+03  0.00000000000E+00 0.  1.
         23    2    1    2    0    0  0.36670166465E+02 -0.10752994807E+03 -0.78174628012E+02  0.16539008668E+03  0.91297412165E+02 0.  0.
         23    2    1    2    0    0 -0.36670166465E+02  0.10752994807E+03  0.21003007873E+03  0.27053055225E+03  0.12714855442E+03 0.  0.
          5    1    4    4  502    0 -0.36288872707E+02  0.93210026815E+02  0.22690220426E+03  0.24800619766E+03  0.41800000000E+01 0. -1.
         -5    1    4    4    0  502 -0.38129375774E+00  0.14319921257E+02 -0.16872125532E+02  0.22524354590E+02  0.41800000000E+01 0.  1.
        -11    1    3    3    0    0  0.63614609057E+02 -0.68471275874E+02 -0.71061641537E+02  0.11740907547E+03  0.00000000000E+00 0.  1.
         11    1    3    3    0    0 -0.26944442592E+02 -0.39058672197E+02 -0.71129864749E+01  0.47981011212E+02  0.00000000000E+00 0. -1.
</event>
<event>
 8    1  0.5900800E-006  0.2340414E+03  0.7561462E-02  0.1123827E+00
          2   -1    0    0  501    0  0.00000000000E+00  0.00000000000E+00  0.12578389640E+04  0.12578389640E+04  0.00000000000E+00 0. -1.
         -2   -1    0    0    0  501 -0.00000000000E+00 -0.00000000000E+00 -0.48600374253E+02  0.48600374253E+02  0.00000000000E+00 0.  1.
         23    2    1    2    0    0  0.19117578767E+03 -0.11291975084E+03  0.61079358524E+03  0.65599174347E+03  0.89203765625E+02 0.  0.
         23    2    1    2    0    0 -0.19117578767E+03  0.11291975084E+03  0.59844500455E+03  0.65044759483E+03  0.12508636308E+03 0.  0.
          5    1    4    4  502    0  0.10433977213E+02  0.13985160233E+02  0.98887304694E+01  0.20486873298E+02  0.41800000000E+01 0. -1.
         -5    1    4    4    0  502 -0.20160976488E+03  0.98934590611E+02  0.58855627408E+03  0.62996072153E+03  0.41800000000E+01 0. -1.
        -11    1    3    3    0    0  0.33365313079E+02 -0.38807095804E+02  0.63258055863E+02  0.81368399475E+02  0.00000000000E+00 0.  1.
         11    1    3    3    0    0  0.15781047459E+03 -0.74112655041E+02  0.54753552938E+03  0.57462334399E+03  0.00000000000E+00 0. -1.
</event>
<event>
 8    1  0.5900800E-006  0.1549300E+03  0.7561462E-02  0.1194543E+00
         -1   -1    0    0    0  501 -0.00000000000E+00  0.00000000000E+00  0.47423930212E+02  0.47423930212E+02  0.00000000000E+00 0.  1.
          1   -1    0    0  501    0  0.00000000000E+00 -0.00000000000E+00 -0.82048138227E+03  0.82048138227E+03  0.00000000000E+00 0. -1.
         23    2    1    2    0    0 -0.12154134805E+03 -0.22302047235E+02 -0.12928434546E+03  0.20055182655E+03  0.90757438004E+02 0.  0.
         23    2    1    2    0    0  0.12154134805E+03  0.22302047235E+02 -0.64377310659E+03  0.66735348593E+03  0.12508869580E+03 0.  0.
          5    1    4    4  502    0  0.27177516812E+02  0.66178560404E+02 -0.25766474493E+03  0.26744497090E+03  0.41800000000E+01 0. -1.
         -5    1    4    4    0  502  0.94363831237E+02 -0.43876513168E+02 -0.38610836166E+03  0.39990851504E+03  0.41800000000E+01 0. -1.
        -11    1    3    3    0    0 -0.14538637765E+02  0.14845831668E+02  0.82700940528E+01  0.22364372596E+02  0.00000000000E+00 0.  1.
         11    1    3    3    0    0 -0.10700271028E+03 -0.37147878903E+02 -0.13755443951E+03  0.17818745395E+03  0.00000000000E+00 0. -1.
</event>
<event>
 8    1  0.5900800E-006  0.3225295E+03  0.7561462E-02  0.1074491E+00
         -2   -1    0    0    0  501 -0.00000000000E+00  0.00000000000E+00  0.35274409844E+03  0.35274409844E+03  0.00000000000E+00 0.  1.
          2   -1    0    0  501    0  0.00000000000E+00 -0.00000000000E+00 -0.30880673978E+03  0.30880673978E+03  0.00000000000E+00 0. -1.
         23    2    1    2    0    0  0.30069392235E+03  0.51122123610E+02  0.84859826871E+02  0.32935895380E+03  0.90806518342E+02 0.  0.
         23    2    1    2    0    0 -0.30069392235E+03 -0.51122123610E+02 -0.40922468208E+02  0.33219188441E+03  0.12508594328E+03 0.  0.
          5    1    4    4  502    0 -0.82196809227E+02  0.38552690487E+02 -0.30040345434E+02  0.95721053822E+02  0.41800000000E+01 0. -1.
         -5    1    4    4    0  502 -0.21849711312E+03 -0.89674814097E+02 -0.10882122774E+02  0.23647083059E+03  0.41800000000E+01 0. -1.
        -11    1    3    3    0    0  0.28025435881E+02  0.34959983942E+02  0.71554190470E+01  0.45374282973E+02  0.00000000000E+00 0.  1.
         11    1    3    3    0    0  0.27266848646E+03  0.16162139668E+02  0.77704407824E+02  0.28398467083E+03  0.00000000000E+00 0. -1.
</event>
<event>
 8    1  0.5900800E-006  0.1279681E+03  0.7561462E-02  0.1230502E+00
         -4   -1    0    0    0  501 -0.00000000000E+00  0.00000000000E+00  0.18227745819E+03  0.18227745819E+03  0.00000000000E+00 0.  1.
          4   -1    0    0  501    0  0.00000000000E+00 -0.00000000000E+00 -0.13760808592E+03  0.13760808592E+03  0.00000000000E+00 0. -1.
         23    2    1    2    0    0 -0.55580586730E+02  0.89062060292E+02  0.67592842503E+02  0.15501743317E+03  0.91871432035E+02 0.  0.
         23    2    1    2    0    0  0.55580586730E+02 -0.89062060292E+02 -0.22923470229E+02  0.16486811094E+03  0.12503901916E+03 0.  0.
          5    1    4    4  502    0  0.32849422437E+02  0.16119687145E+02  0.27493342179E+02  0.45959603265E+02  0.41800000000E+01 0.  1.
         -5    1    4    4    0  502  0.22731164293E+02 -0.10518174744E+03 -0.50416812408E+02  0.11890850767E+03  0.41800000000E+01 0.  1.
        -11    1    3    3    0    0 -0.41737336594E+02  0.88162756110E+02  0.12661555095E+02  0.98361536224E+02  0.00000000000E+00 0. -1.
         11    1    3    3    0    0 -0.13843250136E+02  0.89930418154E+00  0.54931287408E+02  0.56655896945E+02  0.00000000000E+00 0.  1.
</event>
<event>
 8    1  0.5900800E-006  0.7805704E+02  0.7561462E-02  0.1334657E+00
         -2   -1    0    0    0  501 -0.00000000000E+00  0.00000000000E+00  0.16359447048E+03  0.16359447048E+03  0.00000000000E+00 0.  1.
          2   -1    0    0  501    0  0.00000000000E+00 -0.00000000000E+00 -0.81542958325E+02  0.81542958325E+02  0.00000000000E+00 0. -1.
         23    2    1    2    0    0  0.22952161325E+02 -0.25386417154E+02  0.12367336062E+02  0.97915401151E+02  0.90902161117E+02 0.  0.
         23    2    1    2    0    0 -0.22952161325E+02  0.25386417154E+02  0.69684176092E+02  0.14722202765E+03  0.12508864514E+03 0.  0.
          5    1    4    4  502    0 -0.26569434525E+02  0.69778693135E+02  0.70076668289E+02  0.10248518286E+03  0.41800000000E+01 0. -1.
         -5    1    4    4    0  502  0.36172731991E+01 -0.44392275981E+02 -0.39249219735E+00  0.44736844796E+02  0.41800000000E+01 0. -1.
        -11    1    3    3    0    0  0.18916636986E+02 -0.11506273616E+02 -0.38839607840E+02  0.44707366558E+02  0.00000000000E+00 0. -1.
         11    1    3    3    0    0  0.40355243396E+01 -0.13880143538E+02  0.51206943903E+02  0.53208034592E+02  0.00000000000E+00 0.  1.
</event>
<event>
 8    1  0.5900800E-006  0.9129716E+02  0.7561462E-02  0.1299741E+00
          1   -1    0    0  501    0  0.00000000000E+00  0.00000000000E+00  0.44722269690E+02  0.44722269690E+02  0.00000000000E+00 0. -1.
         -1   -1    0    0    0  501 -0.00000000000E+00 -0.00000000000E+00 -0.36676509021E+03  0.36676509021E+03  0.00000000000E+00 0.  1.
         23    2    1    2    0    0  0.23278434737E+01 -0.40168884358E+02 -0.23132358373E+03  0.25181113666E+03  0.90990604070E+02 0.  0.
         23    2    1    2    0    0 -0.23278434737E+01  0.40168884358E+02 -0.90719236787E+02  0.15967622324E+03  0.12509020033E+03 0.  0.
          5    1    4    4  502    0 -0.46986190758E+02  0.34939616995E+02 -0.40712597400E+00  0.58703637956E+02  0.41800000000E+01 0.  1.
         -5    1    4    4    0  502  0.44658347284E+02  0.52292673632E+01 -0.90312110813E+02  0.10097258528E+03  0.41800000000E+01 0.  1.
        -11    1    3    3    0    0  0.31083465439E+02 -0.22765188680E+01 -0.17648766509E+03  0.17921847084E+03  0.00000000000E+00 0.  1.
         11    1    3    3    0    0 -0.28755621965E+02 -0.37892365490E+02 -0.54835918638E+02  0.72592665813E+02  0.00000000000E+00 0. -1.
</event>
<event>
 8    1  0.5900800E-006  0.1108208E+03  0.7561462E-02  0.1259057E+00
          2   -1    0    0  501    0  0.00000000000E+00  0.00000000000E+00  0.10220908849E+03  0.10220908849E+03  0.00000000000E+00 0. -1.
         -2   -1    0    0    0  501 -0.00000000000E+00 -0.00000000000E+00 -0.18399293884E+03  0.18399293884E+03  0.00000000000E+00 0.  1.
         23    2    1    2    0    0 -0.42297392436E+02 -0.61656315529E+02 -0.88210894967E+02  0.14914887505E+03  0.94200075827E+02 0.  0.
         23    2    1    2    0    0  0.42297392436E+02  0.61656315529E+02  0.64270446203E+01  0.13705315228E+03  0.11468081355E+03 0.  0.
          5    1    4    4  502    0  0.73137866146E+02  0.31902917082E+02  0.33008653330E+02  0.86452224826E+02  0.41800000000E+01 0. -1.
         -5    1    4    4    0  502 -0.30840473710E+02  0.29753398447E+02 -0.26581608709E+02  0.50600927456E+02  0.41800000000E+01 0.  1.
        -11    1    3    3    0    0 -0.39175766137E+02 -0.22991445250E+01 -0.80050438413E+02  0.89152113873E+02  0.00000000000E+00 0.  1.
         11    1    3    3    0    0 -0.31216262996E+01 -0.59357171004E+02 -0.81604565540E+01  0.59996761175E+02  0.00000000000E+00 0. -1.
</event>
<event>
 8    1  0.5900800E-006  0.6648142E+02  0.7561462E-02  0.1372484E+00
         -1   -1    0    0    0  501 -0.00000000000E+00  0.00000000000E+00  0.39007935238E+02  0.39007935238E+02  0.00000000000E+00 0.  1.
          1   -1    0    0  501    0  0.00000000000E+00 -0.00000000000E+00 -0.41523126653E+03  0.41523126653E+03  0.00000000000E+00 0. -1.
         23    2    1    2    0    0  0.48243897821E+02 -0.93123521536E+01 -0.89685775917E+02  0.13774973069E+03  0.92288982681E+02 0.  0.
         23    2    1    2    0    0 -0.48243897821E+02  0.93123521536E+01 -0.28653755537E+03  0.31648947107E+03  0.12509045160E+03 0.  0.
          5    1    4    4  502    0  0.12563958345E+02 -0.52468097505E+01 -0.23478355310E+03  0.23521515952E+03  0.41800000000E+01 0. -1.
         -5    1    4    4    0  502 -0.60807856166E+02  0.14559161904E+02 -0.51754002269E+02  0.81274311549E+02  0.41800000000E+01 0. -1.
        -11    1    3    3    0    0  0.18836631539E+02 -0.17306112866E+02 -0.10179345310E+03  0.10495821704E+03  0.00000000000E+00 0. -1.
         11    1    3    3    0    0  0.29407266282E+02  0.79937607126E+01  0.12107677186E+02  0.32791513649E+02  0.00000000000E+00 0.  1.
</event>
<event>
 8    1  0.5900800E-006  0.1023409E+03  0.7561462E-02  0.1275449E+00
         -1   -1    0    0    0  501 -0.00000000000E+00  0.00000000000E+00  0.16719035479E+03  0.16719035479E+03  0.00000000000E+00 0.  1.
          1   -1    0    0  501    0  0.00000000000E+00 -0.00000000000E+00 -0.14908408307E+03  0.14908408307E+03  0.00000000000E+00 0. -1.
         23    2    1    2    0    0 -0.93045019187E+01 -0.66657970588E+02  0.10728978537E+03  0.15801988762E+03  0.94495121775E+02 0.  0.
         23    2    1    2    0    0  0.93045019187E+01  0.66657970588E+02 -0.89183513646E+02  0.15825455025E+03  0.11207562076E+03 0.  0.
          5    1    4    4  502    0 -0.48539448880E+02  0.49745044297E+02 -0.55834060988E+02  0.89249998858E+02  0.41800000000E+01 0. -1.
         -5    1    4    4    0  502  0.57843950799E+02  0.16912926291E+02 -0.33349452658E+02  0.69004551388E+02  0.41800000000E+01 0.  1.
        -11    1    3    3    0    0 -0.19719134313E+02 -0.25768767693E+02 -0.95257766867E+01  0.33817363409E+02  0.00000000000E+00 0. -1.
         11    1    3    3    0    0  0.10414632394E+02 -0.40889202895E+02  0.11681556206E+03  0.12420252421E+03  0.00000000000E+00 0.  1.
</event>
<event>
 8    1  0.5900800E-006  0.2780412E+03  0.7561462E-02  0.1096764E+00
         -1   -1    0    0    0  501 -0.00000000000E+00  0.00000000000E+00  0.21266939656E+03  0.21266939656E+03  0.00000000000E+00 0.  1.
          1   -1    0    0  501    0  0.00000000000E+00 -0.00000000000E+00 -0.40349053723E+03  0.40349053723E+03  0.00000000000E+00 0. -1.
         23    2    1    2    0    0 -0.26191739012E+03  0.75695449664E+02 -0.11262541568E+03  0.30617109493E+03  0.82010577158E+02 0.  0.
         23    2    1    2    0    0  0.26191739012E+03 -0.75695449664E+02 -0.78195724976E+02  0.30998883886E+03  0.12509192008E+03 0.  0.
          5    1    4    4  502    0  0.42198218513E+02  0.15755470579E+02 -0.54434556114E+02  0.70777947118E+02  0.41800000000E+01 0.  1.
         -5    1    4    4    0  502  0.21971917160E+03 -0.91450920243E+02 -0.23761168862E+02  0.23921089174E+03  0.41800000000E+01 0.  1.
        -11    1    3    3    0    0 -0.11921725000E+03  0.39612859803E+02 -0.85791667951E+01  0.12591875739E+03  0.00000000000E+00 0.  1.
         11    1    3    3    0    0 -0.14270014011E+03  0.36082589861E+02 -0.10404624889E+03  0.18025233754E+03  0.00000000000E+00 0. -1.
</event>
<event>
 8    1  0.5900800E-006  0.8053018E+02  0.7561462E-02  0.1327554E+00
         -2   -1    0    0    0  501 -0.00000000000E+00  0.00000000000E+00  0.45370551064E+02  0.45370551064E+02  0.00000000000E+00 0. -1.
          2   -1    0    0  501    0  0.00000000000E+00 -0.00000000000E+00 -0.32834311433E+03  0.32834311433E+03  0.00000000000E+00 0.  1.
         23    2    1    2    0    0  0.15278646989E+02  0.53392350498E+01 -0.47157257591E+02  0.10628383069E+03  0.93864270296E+02 0.  0.
         23    2    1    2    0    0 -0.15278646989E+02 -0.53392350498E+01 -0.23581530567E+03  0.26742983470E+03  0.12509162087E+03 0.  0.
          5    1    4    4  502    0 -0.37888499009E+02 -0.53435761882E+02 -0.84500119969E+02  0.10699841905E+03  0.41800000000E+01 0.  1.
         -5    1    4    4    0  502  0.22609852020E+02  0.48096526833E+02 -0.15131518570E+03  0.16043141564E+03  0.41800000000E+01 0.  1.
        -11    1    3    3    0    0  0.66607980126E+01  0.22199380995E+02 -0.71661467182E+02  0.75316297210E+02  0.00000000000E+00 0.  1.
         11    1    3    3    0    0  0.86178489769E+01 -0.16860145946E+02  0.24504209590E+02  0.30967533482E+02  0.00000000000E+00 0. -1.
</event>
<event>
 8    1  0.5900800E-006  0.1936711E+03  0.7561462E-02  0.1155191E+00
          2   -1    0    0  501    0  0.00000000000E+00  0.00000000000E+00  0.84151730614E+03  0.84151730614E+03  0.00000000000E+00 0. -1.
         -2   -1    0    0    0  501 -0.00000000000E+00 -0.00000000000E+00 -0.54201262036E+02  0.54201262036E+02  0.00000000000E+00 0.  1.
         23    2    1    2    0    0 -0.11623065976E+03  0.13141495415E+03  0.25671081575E+03  0.32303278021E+03  0.87580121744E+02 0.  0.
         23    2    1    2    0    0  0.11623065976E+03 -0.13141495415E+03  0.53060522835E+03  0.57268578796E+03  0.12509055494E+03 0.  0.
          5    1    4    4  502    0  0.91482089984E+02 -0.15081876715E+03  0.49220746980E+03  0.52287755645E+03  0.41800000000E+01 0. -1.
         -5    1    4    4    0  502  0.24748569777E+02  0.19403812991E+02  0.38397758552E+02  0.49808231513E+02  0.41800000000E+01 0. -1.
        -11    1    3    3    0    0 -0.10227589651E+03  0.92757834795E+02  0.12932319182E+03  0.18917944620E+03  0.00000000000E+00 0.  1.
         11    1    3    3    0    0 -0.13954763248E+02  0.38657119360E+02  0.12738762393E+03  0.13385333401E+03  0.00000000000E+00 0. -1.
</event>
<event>
 8    1  0.5900800E-006  0.1053615E+03  0.7561462E-02  0.1269409E+00
         -3   -1    0    0    0  501 -0.00000000000E+00  0.00000000000E+00  0.87048221875E+01  0.87048221875E+01  0.00000000000E+00 0.  1.
          3   -1    0    0  501    0  0.00000000000E+00 -0.00000000000E+00 -0.22980191714E+04  0.22980191714E+04  0.00000000000E+00 0. -1.
         23    2    1    2    0    0  0.37251178289E+02 -0.17519069881E+02 -0.34943612295E+03  0.36238100609E+03  0.86716904110E+02 0.  0.
         23    2    1    2    0    0 -0.37251178289E+02  0.17519069881E+02 -0.19398782263E+04  0.19443429875E+04  0.12509017633E+03 0.  0.
          5    1    4    4  502    0 -0.11191322955E+02 -0.49718867275E+02 -0.11601034994E+04  0.11612298709E+04  0.41800000000E+01 0.  1.
         -5    1    4    4    0  502 -0.26059855333E+02  0.67237937156E+02 -0.77977472694E+03  0.78311311662E+03  0.41800000000E+01 0.  1.
        -11    1    3    3    0    0 -0.14651264083E+02 -0.30516590598E+02 -0.68649122337E+02  0.76541647739E+02  0.00000000000E+00 0.  1.
         11    1    3    3    0    0  0.51902442371E+02  0.12997520716E+02 -0.28078700061E+03  0.28583935835E+03  0.00000000000E+00 0. -1.
</event>
<event>
 8    1  0.5900800E-006  0.1035370E+03  0.7561462E-02  0.1273029E+00
          1   -1    0    0  501    0  0.00000000000E+00  0.00000000000E+00  0.76598922987E+03  0.76598922987E+03  0.00000000000E+00 0. -1.
         -1   -1    0    0    0  501 -0.00000000000E+00 -0.00000000000E+00 -0.53685683779E+02  0.53685683779E+02  0.00000000000E+00 0.  1.
         23    2    1    2    0    0  0.12515509132E+02 -0.26893601537E+02  0.15061343359E+00  0.96011998935E+02  0.91314716681E+02 0.  0.
         23    2    1    2    0    0 -0.12515509132E+02  0.26893601537E+02  0.71215293266E+03  0.72366291472E+03  0.12508521443E+03 0.  0.
          5    1    4    4  502    0 -0.25080504053E+02 -0.45139393230E+02  0.21557612601E+03  0.22171408392E+03  0.41800000000E+01 0. -1.
         -5    1    4    4    0  502  0.12564994921E+02  0.72032994767E+02  0.49657680665E+03  0.50194883079E+03  0.41800000000E+01 0. -1.
        -11    1    3    3    0    0 -0.17160160094E+02  0.20111172167E+02 -0.23716536237E+02  0.35516255876E+02  0.00000000000E+00 0.  1.
         11    1    3    3    0    0  0.29675669225E+02 -0.47004773703E+02  0.23867149670E+02  0.60495743059E+02  0.00000000000E+00 0. -1.
</event>
<event>
 8    1  0.5900800E-006  0.7864052E+02  0.7561462E-02  0.1332954E+00
          2   -1    0    0  501    0  0.00000000000E+00  0.00000000000E+00  0.22636341217E+03  0.22636341217E+03  0.00000000000E+00 0. -1.
         -2   -1    0    0    0  501 -0.00000000000E+00 -0.00000000000E+00 -0.80180961553E+02  0.80180961553E+02  0.00000000000E+00 0.  1.
         23    2    1    2    0    0  0.26154360737E+02 -0.44566643570E+02 -0.57318736086E+00  0.10690650900E+03  0.93586520498E+02 0.  0.
         23    2    1    2    0    0 -0.26154360737E+02  0.44566643570E+02  0.14675563797E+03  0.19963786472E+03  0.12509126047E+03 0.  0.
          5    1    4    4  502    0  0.33806544704E+02  0.24339489974E+02  0.23638413565E+01  0.41932724488E+02  0.41800000000E+01 0.  1.
         -5    1    4    4    0  502 -0.59960905441E+02  0.20227153596E+02  0.14439179662E+03  0.15770514023E+03  0.41800000000E+01 0.  1.
        -11    1    3    3    0    0  0.13664454911E+02 -0.17634472465E+02  0.46316315889E+02  0.51409075703E+02  0.00000000000E+00 0. -1.
         11    1    3    3    0    0  0.12489905826E+02 -0.26932171105E+02 -0.46889503250E+02  0.55497433301E+02  0.00000000000E+00 0.  1.
</event>
<event>
 8    1  0.5900800E-006  0.1413539E+03  0.7561462E-02  0.1211519E+00
         -2   -1    0    0    0  501 -0.00000000000E+00  0.00000000000E+00  0.75573591724E+02  0.75573591724E+02  0.00000000000E+00 0. -1.
          2   -1    0    0  501    0  0.00000000000E+00 -0.00000000000E+00 -0.29041738267E+03  0.29041738267E+03  0.00000000000E+00 0.  1.
         23    2    1    2    0    0  0.62268731056E+02  0.69878829960E+02 -0.57179320560E+02  0.14403120253E+03  0.93354522432E+02 0.  0.
         23    2    1    2    0    0 -0.62268731056E+02 -0.69878829960E+02 -0.15766447039E+03  0.22195977187E+03  0.12509040475E+03 0.  0.
          5    1    4    4  502    0  0.34726195545E+02  0.22114520204E+00 -0.23559576998E+02  0.42172071690E+02  0.41800000000E+01 0.  1.
         -5    1    4    4    0  502 -0.96994926601E+02 -0.70099975162E+02 -0.13410489339E+03  0.17978770018E+03  0.41800000000E+01 0.  1.
        -11    1    3    3    0    0  0.57211551056E+02 -0.70686487134E+00 -0.43692324139E+02  0.71990835673E+02  0.00000000000E+00 0. -1.
         11    1    3    3    0    0  0.50571799997E+01  0.70585694831E+02 -0.13486996422E+02  0.72040366857E+02  0.00000000000E+00 0.  1.
</event>
<event>
 8    1  0.5900800E-006  0.1073408E+03  0.7561462E-02  0.1265575E+00
         -1   -1    0    0    0  501 -0.00000000000E+00  0.00000000000E+00  0.29449022848E+03  0.29449022848E+03  0.00000000000E+00 0.  1.
          1   -1    0    0  501    0  0.00000000000E+00 -0.00000000000E+00 -0.46670453970E+02  0.46670453970E+02  0.00000000000E+00 0. -1.
         23    2    1    2    0    0  0.35605302643E+02  0.20775631746E+02  0.13185158613E+03  0.16567339065E+03  0.91451993725E+02 0.  0.
         23    2    1    2    0    0 -0.35605302643E+02 -0.20775631746E+02  0.11596818838E+03  0.17548729179E+03  0.12509118440E+03 0.  0.
          5    1    4    4  502    0  0.19253074949E+02 -0.54886281801E+02  0.24090366655E+02  0.63095189916E+02  0.41800000000E+01 0.  1.
         -5    1    4    4    0  502 -0.54858377592E+02  0.34110650054E+02  0.91877821726E+02  0.11239210188E+03  0.41800000000E+01 0.  1.
        -11    1    3    3    0    0  0.44692731909E+02 -0.20642403184E+02  0.36393831167E+02  0.61221401827E+02  0.00000000000E+00 0. -1.
         11    1    3    3    0    0 -0.90874292658E+01  0.41418034930E+02  0.95457754959E+02  0.10445198883E+03  0.00000000000E+00 0.  1.
</event>
<event>
 8    1  0.5900800E-006  0.1197396E+03  0.7561462E-02  0.1243527E+00
          4   -1    0    0  501    0  0.00000000000E+00  0.00000000000E+00  0.11132895144E+03  0.11132895144E+03  0.00000000000E+00 0. -1.
         -4   -1    0    0    0  501 -0.00000000000E+00 -0.00000000000E+00 -0.22302821853E+03  0.22302821853E+03  0.00000000000E+00 0.  1.
         23    2    1    2    0    0 -0.10008580387E+02  0.73644910764E+02 -0.14347118553E+03  0.18542530679E+03  0.90966030785E+02 0.  0.
         23    2    1    2    0    0  0.10008580387E+02 -0.73644910764E+02  0.31771918434E+02  0.14893186318E+03  0.12508996965E+03 0.  0.
          5    1    4    4  502    0 -0.46973071874E+01  0.29840758984E+02  0.32162919552E+02  0.44322244817E+02  0.41800000000E+01 0.  1.
         -5    1    4    4    0  502  0.14705887574E+02 -0.10348566975E+03 -0.39100111791E+00  0.10460961836E+03  0.41800000000E+01 0.  1.
        -11    1    3    3    0    0  0.22853227653E+01  0.86532937822E+02 -0.74551860642E+02  0.11424163844E+03  0.00000000000E+00 0. -1.
         11    1    3    3    0    0 -0.12293903152E+02 -0.12888027059E+02 -0.68919324890E+02  0.71183668348E+02  0.00000000000E+00 0.  1.
</event>
<event>
 8    1  0.5900800E-006  0.1082329E+03  0.7561462E-02  0.1263878E+00
         -1   -1    0    0    0  501 -0.00000000000E+00  0.00000000000E+00  0.23890119891E+03  0.23890119891E+03  0.00000000000E+00 0.  1.
          1   -1    0    0  501    0  0.00000000000E+00 -0.00000000000E+00 -0.69690985258E+02  0.69690985258E+02  0.00000000000E+00 0. -1.
         23    2    1    2    0    0  0.46793546987E+02  0.21647069121E+02  0.13205478348E+03  0.16828840556E+03  0.90687871103E+02 0.  0.
         23    2    1    2    0    0 -0.46793546987E+02 -0.21647069121E+02  0.37155430172E+02  0.14030377861E+03  0.12508554137E+03 0.  0.
          5    1    4    4  502    0 -0.26429641059E+02 -0.62044857787E+02 -0.16940523612E+02  0.69660204167E+02  0.41800000000E+01 0. -1.
         -5    1    4    4    0  502 -0.20363905927E+02  0.40397788666E+02  0.54095953784E+02  0.70643574439E+02  0.41800000000E+01 0. -1.
        -11    1    3    3    0    0  0.37436270025E+02 -0.31851848261E+02  0.73528995395E+02  0.88445054779E+02  0.00000000000E+00 0. -1.
         11    1    3    3    0    0  0.93572769615E+01  0.53498917382E+02  0.58525788085E+02  0.79843350783E+02  0.00000000000E+00 0.  1.
</event>
<event>
 7    1  0.5900800E-006  0.1409011E+03  0.7561462E-02  0.1212122E+00
         -1   -1    0    0    0  501 -0.00000000000E+00  0.00000000000E+00  0.10648783883E+03  0.10648783883E+03  0.00000000000E+00 0.  1.
          1   -1    0    0  501    0  0.00000000000E+00 -0.00000000000E+00 -0.21898130027E+03  0.21898130027E+03  0.00000000000E+00 0. -1.
         23    2    1    2    0    0 -0.75206746707E+02 -0.16024972455E+02  0.64404136635E+01  0.11889302489E+03  0.90450085387E+02 0.  0.
          5    1    1    2  502    0  0.12115412124E+03  0.17592538688E+02 -0.81354496773E+02  0.14705048472E+03  0.41800000000E+01 0. -1.
         -5    1    1    2    0  502 -0.45947374533E+02 -0.15675662332E+01 -0.37579378335E+02  0.59525629492E+02  0.41800000000E+01 0.  1.
        -11    1    3    3    0    0  0.18318313011E+02 -0.48688012789E+01 -0.12652446532E+02  0.22789256695E+02  0.00000000000E+00 0. -1.
         11    1    3    3    0    0 -0.93525059718E+02 -0.11156171176E+02  0.19092860196E+02  0.96103768194E+02  0.00000000000E+00 0.  1.
</event>
<event>
 8    1  0.5900800E-006  0.1210546E+03  0.7561462E-02  0.1241367E+00
          2   -1    0    0  501    0  0.00000000000E+00  0.00000000000E+00  0.22220519082E+03  0.22220519082E+03  0.00000000000E+00 0.  1.
         -2   -1    0    0    0  501 -0.00000000000E+00 -0.00000000000E+00 -0.93613655552E+02  0.93613655552E+02  0.00000000000E+00 0. -1.
         23    2    1    2    0    0  0.85865875947E+02 -0.50604974948E+02  0.35718668574E+02  0.13087064484E+03  0.76925225083E+02 0.  0.
         23    2    1    2    0    0 -0.85865875947E+02  0.50604974948E+02  0.92872866691E+02  0.18494820153E+03  0.12508659297E+03 0.  0.
          5    1    4    4  502    0 -0.58208812796E+02  0.64434298087E+02  0.11681829206E+03  0.14561603764E+03  0.41800000000E+01 0. -1.
         -5    1    4    4    0  502 -0.27657063151E+02 -0.13829323138E+02 -0.23945425368E+02  0.39332163895E+02  0.41800000000E+01 0. -1.
        -11    1    3    3    0    0 -0.13411894071E+00 -0.36884188926E+02  0.38058864761E+00  0.36886396251E+02  0.00000000000E+00 0. -1.
         11    1    3    3    0    0  0.85999994888E+02 -0.13720786022E+02  0.35338079927E+02  0.93984248588E+02  0.00000000000E+00 0.  1.
</event>
<event>
 8    1  0.5900800E-006  0.1144592E+03  0.7561462E-02  0.1252528E+00
          1   -1    0    0  501    0  0.00000000000E+00  0.00000000000E+00  0.82193516215E+03  0.82193516215E+03  0.00000000000E+00 0. -1.
         -1   -1    0    0    0  501 -0.00000000000E+00 -0.00000000000E+00 -0.28614985828E+02  0.28614985828E+02  0.00000000000E+00 0.  1.
         23    2    1    2    0    0 -0.90957038361E+02 -0.28671086828E+02  0.23057956965E+03  0.26623862513E+03  0.92848551543E+02 0.  0.
         23    2    1    2    0    0  0.90957038361E+02  0.28671086828E+02  0.56274060667E+03  0.58431152284E+03  0.12509097205E+03 0.  0.
          5    1    4    4  502    0  0.55027112028E+02  0.20275659301E+02  0.53433327266E+03  0.53755800067E+03  0.41800000000E+01 0. -1.
         -5    1    4    4    0  502  0.35929926333E+02  0.83954275273E+01  0.28407334006E+02  0.46753522167E+02  0.41800000000E+01 0. -1.
        -11    1    3    3    0    0 -0.59717361931E+02  0.29769316771E+02  0.12108597379E+03  0.13825407259E+03  0.00000000000E+00 0.  1.
         11    1    3    3    0    0 -0.31239676431E+02 -0.58440403599E+02  0.10949359586E+03  0.12798455255E+03  0.00000000000E+00 0. -1.
</event>
<event>
 8    1  0.5900800E-006  0.2424927E+03  0.7561462E-02  0.1118143E+00
          1   -1    0    0  501    0  0.00000000000E+00  0.00000000000E+00  0.90610340893E+02  0.90610340893E+02  0.00000000000E+00 0. -1.
         -1   -1    0    0    0  501 -0.00000000000E+00 -0.00000000000E+00 -0.83216397168E+03  0.83216397168E+03  0.00000000000E+00 0.  1.
         23    2    1    2    0    0 -0.17736151163E+02 -0.22960891898E+03 -0.53274612424E+03  0.58768796524E+03  0.92324887544E+02 0.  0.
         23    2    1    2    0    0  0.17736151163E+02  0.22960891898E+03 -0.20880750654E+03  0.33508634733E+03  0.12508980233E+03 0.  0.
          5    1    4    4  502    0 -0.30887267232E+02  0.18472731392E+03 -0.18846183624E+03  0.26573208294E+03  0.41800000000E+01 0. -1.
         -5    1    4    4    0  502  0.48623418394E+02  0.44881605055E+02 -0.20345670302E+02  0.69354264387E+02  0.41800000000E+01 0. -1.
        -11    1    3    3    0    0 -0.44194624635E+01 -0.17767872588E+03 -0.29868569239E+03  0.34756640246E+03  0.00000000000E+00 0. -1.
         11    1    3    3    0    0 -0.13316688699E+02 -0.51930193093E+02 -0.23406043186E+03  0.24012156278E+03  0.00000000000E+00 0.  1.
</event>
<event>
 8    1  0.5900800E-006  0.9472126E+02  0.7561462E-02  0.1291805E+00
         -2   -1    0    0    0  501 -0.00000000000E+00  0.00000000000E+00  0.23534336910E+03  0.23534336910E+03  0.00000000000E+00 0.  1.
          2   -1    0    0  501    0  0.00000000000E+00 -0.00000000000E+00 -0.73015670788E+02  0.73015670788E+02  0.00000000000E+00 0. -1.
         23    2    1    2    0    0 -0.42458117070E+02 -0.13773205050E+02  0.11253300933E+03  0.16651508777E+03  0.11432936361E+03 0.  0.
         23    2    1    2    0    0  0.42458117070E+02  0.13773205050E+02  0.49794688980E+02  0.14184395212E+03  0.12509117802E+03 0.  0.
          5    1    4    4  502    0  0.22641054833E+02 -0.34772616755E+02  0.73218911636E+02  0.84262884244E+02  0.41800000000E+01 0.  1.
         -5    1    4    4    0  502  0.19817062237E+02  0.48545821805E+02 -0.23424222655E+02  0.57581067873E+02  0.41800000000E+01 0.  1.
        -11    1    3    3    0    0  0.12796129750E+02 -0.33975765655E+02 -0.34450195048E+01  0.36468640608E+02  0.00000000000E+00 0.  1.
         11    1    3    3    0    0 -0.55254246820E+02  0.20202560605E+02  0.11597802884E+03  0.13004644716E+03  0.00000000000E+00 0. -1.
</event>
<event>
 8    1  0.7226070E-006  0.1816188E+03  0.7561462E-02  0.1166246E+00
         -2   -1    0    0    0  501 -0.00000000000E+00  0.00000000000E+00  0.29082525772E+03  0.29082525772E+03  0.00000000000E+00 0.  1.
          2   -1    0    0  501    0  0.00000000000E+00 -0.00000000000E+00 -0.14885512176E+03  0.14885512176E+03  0.00000000000E+00 0. -1.
         23    2    1    2    0    0  0.72652345248E+02  0.13128478889E+03  0.16626721707E+03  0.24282601383E+03  0.93838299515E+02 0.  0.
         23    2    1    2    0    0 -0.72652345248E+02 -0.13128478889E+03 -0.24297081118E+02  0.19685436565E+03  0.12508890463E+03 0.  0.
          5    1    4    4  502    0  0.28614395323E+02 -0.44594968373E+02  0.19289965262E+02  0.56542638635E+02  0.41800000000E+01 0.  1.
         -5    1    4    4    0  502 -0.10126674057E+03 -0.86689820515E+02 -0.43587046380E+02  0.14031172702E+03  0.41800000000E+01 0.  1.
        -11    1    3    3    0    0  0.56028018268E+02  0.13323815774E+02  0.60396251650E+02  0.83452801698E+02  0.00000000000E+00 0.  1.
         11    1    3    3    0    0  0.16624326980E+02  0.11796097311E+03  0.10587096542E+03  0.15937321213E+03  0.00000000000E+00 0. -1.
</event>
<event>
 8    1  0.5900800E-006  0.1700811E+03  0.7561462E-02  0.1177763E+00
         -2   -1    0    0    0  501 -0.00000000000E+00  0.00000000000E+00  0.16356225150E+03  0.16356225150E+03  0.00000000000E+00 0.  1.
          2   -1    0    0  501    0  0.00000000000E+00 -0.00000000000E+00 -0.22116092288E+03  0.22116092288E+03  0.00000000000E+00 0. -1.
         23    2    1    2    0    0  0.54263921884E+02  0.13707510179E+03  0.34830864879E+02  0.17042746647E+03  0.78090815277E+02 0.  0.
         23    2    1    2    0    0 -0.54263921884E+02 -0.13707510179E+03 -0.92429536257E+02  0.21429570791E+03  0.12508107174E+03 0.  0.
          5    1    4    4  502    0 -0.17626906114E+01  0.22808579897E+02 -0.21349270694E+02  0.31569006229E+02  0.41800000000E+01 0. -1.
         -5    1    4    4    0  502 -0.52501231272E+02 -0.15988368169E+03 -0.71080265563E+02  0.18272670168E+03  0.41800000000E+01 0. -1.
        -11    1    3    3    0    0  0.26051496798E+02  0.89956810380E+02  0.58718403064E+02  0.11053849591E+03  0.00000000000E+00 0.  1.
         11    1    3    3    0    0  0.28212425086E+02  0.47118291411E+02 -0.23887538185E+02  0.59888970564E+02  0.00000000000E+00 0. -1.
</event>
<event>
 8    1  0.5900800E-006  0.1348666E+03  0.7561462E-02  0.1220408E+00
          1   -1    0    0  501    0  0.00000000000E+00  0.00000000000E+00  0.12878929548E+04  0.12878929548E+04  0.00000000000E+00 0. -1.
         -1   -1    0    0    0  501 -0.00000000000E+00 -0.00000000000E+00 -0.21471331111E+02  0.21471331111E+02  0.00000000000E+00 0.  1.
         23    2    1    2    0    0 -0.11020367621E+03  0.37672789568E+02  0.40017409433E+03  0.42641651562E+03  0.90153478534E+02 0.  0.
         23    2    1    2    0    0  0.11020367621E+03 -0.37672789568E+02  0.86624752933E+03  0.88294777026E+03  0.12509154097E+03 0.  0.
          5    1    4    4  502    0  0.28849358144E+01 -0.10762906115E+02  0.50438760201E+03  0.50452798581E+03  0.41800000000E+01 0. -1.
         -5    1    4    4    0  502  0.10731874040E+03 -0.26909883453E+02  0.36185992731E+03  0.37841978445E+03  0.41800000000E+01 0. -1.
        -11    1    3    3    0    0 -0.64492958967E+02  0.66845713493E+02  0.26240315228E+03  0.27835787306E+03  0.00000000000E+00 0.  1.
         11    1    3    3    0    0 -0.45710717248E+02 -0.29172923925E+02  0.13777094206E+03  0.14805864256E+03  0.00000000000E+00 0. -1.
</event>
<event>
 6    1  0.5900800E-006  0.7388561E+02  0.7561462E-02  0.1347357E+00
         -2   -1    0    0    0  501 -0.00000000000E+00  0.00000000000E+00  0.15101401003E+03  0.15101401003E+03  0.00000000000E+00 0.  1.
          2   -1    0    0  501    0  0.00000000000E+00 -0.00000000000E+00 -0.93273553887E+02  0.93273553887E+02  0.00000000000E+00 0. -1.
          5    1    1    2  502    0 -0.31854614598E+00 -0.64876741797E+02 -0.65717816484E+02  0.92441315986E+02  0.41800000000E+01 0. -1.
         -5    1    1    2    0  502  0.14983632616E+02  0.30855876255E+02  0.62315918509E+02  0.71255459057E+02  0.41800000000E+01 0.  1.
        -11    1    1    2    0    0  0.25766616319E+00  0.33260813996E+02  0.55329700519E+02  0.64557911204E+02  0.00000000000E+00 0. -1.
         11    1    1    2    0    0 -0.14922752633E+02  0.76005154479E+00  0.58126535989E+01  0.16032877669E+02  0.00000000000E+00 0.  1.
</event>
<event>
 8    1  0.5900800E-006  0.1056534E+03  0.7561462E-02  0.1268838E+00
         -1   -1    0    0    0  501 -0.00000000000E+00  0.00000000000E+00  0.18670255568E+02  0.18670255568E+02  0.00000000000E+00 0.  1.
          1   -1    0    0  501    0  0.00000000000E+00 -0.00000000000E+00 -0.72050612180E+03  0.72050612180E+03  0.00000000000E+00 0. -1.
         23    2    1    2    0    0 -0.29835052691E+01 -0.34512463012E+02 -0.22563731443E+03  0.24560402973E+03  0.90604251279E+02 0.  0.
         23    2    1    2    0    0  0.29835052691E+01  0.34512463012E+02 -0.47619855179E+03  0.49357234763E+03  0.12509432524E+03 0.  0.
          5    1    4    4  502    0  0.49843643528E+02  0.45639445318E+02 -0.37915543019E+03  0.38515407360E+03  0.41800000000E+01 0. -1.
         -5    1    4    4    0  502 -0.46860138259E+02 -0.11126982306E+02 -0.97043121609E+02  0.10841827403E+03  0.41800000000E+01 0. -1.
        -11    1    3    3    0    0 -0.11547001108E+02 -0.63749114914E+02 -0.13030227861E+03  0.14551964368E+03  0.00000000000E+00 0.  1.
         11    1    3    3    0    0  0.85634958393E+01  0.29236651902E+02 -0.95335035826E+02  0.10008438605E+03  0.00000000000E+00 0. -1.
</event>
<event>
 8    1  0.5900800E-006  0.9415978E+02  0.7561462E-02  0.1293080E+00
         -2   -1    0    0    0  501 -0.00000000000E+00  0.00000000000E+00  0.22447805525E+02  0.22447805525E+02  0.00000000000E+00 0.  1.
          2   -1    0    0  501    0  0.00000000000E+00 -0.00000000000E+00 -0.63523252718E+03  0.63523252718E+03  0.00000000000E+00 0. -1.
         23    2    1    2    0    0 -0.76135327441E+01 -0.20218455395E+02 -0.18760314558E+03  0.21395397359E+03  0.10057142120E+03 0.  0.
         23    2    1    2    0    0  0.76135327441E+01  0.20218455395E+02 -0.42518157607E+03  0.44372635912E+03  0.12508779847E+03 0.  0.
          5    1    4    4  502    0  0.26503997778E+02 -0.30086857345E+02 -0.34354797314E+03  0.34590513603E+03  0.41800000000E+01 0. -1.
         -5    1    4    4    0  502 -0.18890465034E+02  0.50305312740E+02 -0.81633602930E+02  0.97821223088E+02  0.41800000000E+01 0. -1.
        -11    1    3    3    0    0  0.29384997137E+02  0.22927754709E+02 -0.35075356554E+02  0.51180471179E+02  0.00000000000E+00 0.  1.
         11    1    3    3    0    0 -0.36998529881E+02 -0.43146210105E+02 -0.15252778903E+03  0.16277350241E+03  0.00000000000E+00 0. -1.
</event>
<event>
 8    1  0.5900800E-006  0.1207393E+03  0.7561462E-02  0.1241882E+00
         -3   -1    0    0    0  501 -0.00000000000E+00  0.00000000000E+00  0.19965818046E+03  0.19965818046E+03  0.00000000000E+00 0.  1.
          3   -1    0    0  501    0  0.00000000000E+00 -0.00000000000E+00 -0.11329791358E+03  0.11329791358E+03  0.00000000000E+00 0. -1.
         23    2    1    2    0    0  0.42825785062E+01 -0.95990734855E+02  0.80511951292E+02  0.15511345422E+03  0.91353422062E+02 0.  0.
         23    2    1    2    0    0 -0.42825785062E+01  0.95990734855E+02  0.58483155922E+01  0.15784263983E+03  0.12509010551E+03 0.  0.
          5    1    4    4  502    0  0.31803513614E+02  0.56646190714E+02 -0.48778858450E+02  0.81345582746E+02  0.41800000000E+01 0.  1.
         -5    1    4    4    0  502 -0.36086092120E+02  0.39344544141E+02  0.54627174042E+02  0.76497057080E+02  0.41800000000E+01 0.  1.
        -11    1    3    3    0    0  0.41538670240E+01 -0.10937073737E+03  0.87399833830E+02  0.14006407019E+03  0.00000000000E+00 0.  1.
         11    1    3    3    0    0  0.12871148223E+00  0.13380002513E+02 -0.68878825384E+01  0.15049384033E+02  0.00000000000E+00 0. -1.
</event>
<event>
 8    1  0.5900800E-006  0.2432591E+03  0.7561462E-02  0.1117641E+00
          1   -1    0    0  501    0  0.00000000000E+00  0.00000000000E+00  0.11348658638E+04  0.11348658638E+04  0.00000000000E+00 0. -1.
         -1   -1    0    0    0  501 -0.00000000000E+00 -0.00000000000E+00 -0.59469072144E+02  0.59469072144E+02  0.00000000000E+00 0.  1.
         23    2    1    2    0    0  0.22662177154E+03  0.65046616058E+02  0.50380829099E+03  0.56350174893E+03  0.90127339840E+02 0.  0.
         23    2    1    2    0    0 -0.22662177154E+03 -0.65046616058E+02  0.57158850069E+03  0.63083318704E+03  0.12509438894E+03 0.  0.
          5    1    4    4  502    0 -0.22833021258E+03 -0.68902359667E+02  0.57599824765E+03  0.62343698546E+03  0.41800000000E+01 0. -1.
         -5    1    4    4    0  502  0.17084410434E+01  0.38557436086E+01 -0.44097469538E+01  0.73962015772E+01  0.41800000000E+01 0. -1.
        -11    1    3    3    0    0  0.12808977035E+03  0.83444118316E+01  0.34573687223E+03  0.36879615412E+03  0.00000000000E+00 0. -1.
         11    1    3    3    0    0  0.98532001186E+02  0.56702204227E+02  0.15807141876E+03  0.19470559481E+03  0.00000000000E+00 0.  1.
</event>
<event>
 7    1  0.5900800E-006  0.1778111E+03  0.7561462E-02  0.1169938E+00
          3   -1    0    0  501    0  0.00000000000E+00  0.00000000000E+00  0.17874933974E+03  0.17874933974E+03  0.00000000000E+00 0. -1.
         -3   -1    0    0    0  501 -0.00000000000E+00 -0.00000000000E+00 -0.22602769037E+03  0.22602769037E+03  0.00000000000E+00 0.  1.
         23    2    1    2    0    0  0.12052624440E+03 -0.77251061484E+02 -0.59760316459E+02  0.18492802434E+03  0.10066169417E+03 0.  0.
          5    1    1    2  502    0 -0.95690375351E+02 -0.15062606495E+02  0.58952388835E+02  0.11347416710E+03  0.41800000000E+01 0. -1.
         -5    1    1    2    0  502 -0.24835869051E+02  0.92313667979E+02 -0.46470423009E+02  0.10637483867E+03  0.41800000000E+01 0.  1.
        -11    1    3    3    0    0  0.73129445606E+02 -0.87955063780E+02 -0.91231839357E+01  0.11474860149E+03  0.00000000000E+00 0.  1.
         11    1    3    3    0    0  0.47396798796E+02  0.10704002296E+02 -0.50637132523E+02  0.70179422849E+02  0.00000000000E+00 0. -1.
</event>
<event>
 8    1  0.5900800E-006  0.1009643E+03  0.7561462E-02  0.1278281E+00
         -2   -1    0    0    0  501 -0.00000000000E+00  0.00000000000E+00  0.37514612512E+02  0.37514612512E+02  0.00000000000E+00 0.  1.
          2   -1    0    0  501    0  0.00000000000E+00 -0.00000000000E+00 -0.68022375575E+03  0.68022375575E+03  0.00000000000E+00 0. -1.
         23    2    1    2    0    0 -0.30307236569E+02  0.74352661476E+02 -0.10749030985E+03  0.16226251460E+03  0.91258479479E+02 0.  0.
         23    2    1    2    0    0  0.30307236569E+02 -0.74352661476E+02 -0.53521883339E+03  0.55547585366E+03  0.12508947809E+03 0.  0.
          5    1    4    4  502    0  0.16196266668E+02 -0.38251434756E+02 -0.50346959571E+03  0.50519758265E+03  0.41800000000E+01 0. -1.
         -5    1    4    4    0  502  0.14110969900E+02 -0.36101226721E+02 -0.31749237682E+02  0.50278271009E+02  0.41800000000E+01 0. -1.
        -11    1    3    3    0    0  0.32524342242E+02  0.20533199750E+02 -0.40026307511E+02  0.55511714288E+02  0.00000000000E+00 0. -1.
         11    1    3    3    0    0 -0.62831578811E+02  0.53819461726E+02 -0.67464002337E+02  0.10675080031E+03  0.00000000000E+00 0.  1.
</event>
<event>
 8    1  0.5900800E-006  0.1610027E+03  0.7561462E-02  0.1187569E+00
         -3   -1    0    0    0  501 -0.00000000000E+00  0.00000000000E+00  0.13194317149E+03  0.13194317149E+03  0.00000000000E+00 0.  1.
          3   -1    0    0  501    0  0.00000000000E+00 -0.00000000000E+00 -0.44001387239E+03  0.44001387239E+03  0.00000000000E+00 0. -1.
         23    2    1    2    0    0 -0.11952412333E+03  0.79289211176E+01  0.61920872070E+02  0.16343496911E+03  0.92346688532E+02 0.  0.
         23    2    1    2    0    0  0.11952412333E+03 -0.79289211176E+01 -0.36999157297E+03  0.40852207477E+03  0.12509051787E+03 0.  0.
          5    1    4    4  502    0  0.79100932054E+02 -0.63789786022E+02 -0.25272305395E+03  0.27241972882E+03  0.41800000000E+01 0. -1.
         -5    1    4    4    0  502  0.40423191272E+02  0.55860864904E+02 -0.11726851902E+03  0.13610234595E+03  0.41800000000E+01 0. -1.
        -11    1    3    3    0    0 -0.86902948231E+02  0.48217714650E+02  0.39201502616E+02  0.10683551949E+03  0.00000000000E+00 0. -1.
         11    1    3    3    0    0 -0.32621175095E+02 -0.40288793532E+02  0.22719369454E+02  0.56599449619E+02  0.00000000000E+00 0.  1.
</event>
<event>
 8    1  0.5900800E-006  0.1088620E+03  0.7561462E-02  0.1262692E+00
          3   -1    0    0  501    0  0.00000000000E+00  0.00000000000E+00  0.66668402326E+02  0.66668402326E+02  0.00000000000E+00 0. -1.
         -3   -1    0    0    0  501 -0.00000000000E+00 -0.00000000000E+00 -0.32683089647E+03  0.32683089647E+03  0.00000000000E+00 0.  1.
         23    2    1    2    0    0  0.54299445877E+02  0.62862814379E+02 -0.19076387131E+03  0.22808216735E+03  0.93436915671E+02 0.  0.
         23    2    1    2    0    0 -0.54299445877E+02 -0.62862814379E+02 -0.69398622832E+02  0.16541713145E+03  0.12508595153E+03 0.  0.
          5    1    4    4  502    0 -0.67170420669E+02 -0.66864224285E+02 -0.27691841929E+00  0.94869589363E+02  0.41800000000E+01 0.  1.
         -5    1    4    4    0  502  0.12870974792E+02  0.40014099067E+01 -0.69121704412E+02  0.70547542085E+02  0.41800000000E+01 0.  1.
        -11    1    3    3    0    0  0.13094901809E+02 -0.15449265859E+02 -0.97250525517E+02  0.99336906446E+02  0.00000000000E+00 0.  1.
         11    1    3    3    0    0  0.41204544067E+02  0.78312080237E+02 -0.93513345793E+02  0.12874526090E+03  0.00000000000E+00 0. -1.
</event>
<event>
 7    1  0.5900800E-006  0.1341371E+03  0.7561462E-02  0.1221443E+00
          2   -1    0    0  501    0  0.00000000000E+00  0.00000000000E+00  0.59064459123E+03  0.59064459123E+03  0.00000000000E+00 0. -1.
         -2   -1    0    0    0  501 -0.00000000000E+00 -0.00000000000E+00 -0.54132859898E+02  0.54132859898E+02  0.00000000000E+00 0.  1.
         23    2    1    2    0    0  0.54281712015E+01  0.94696152868E+02  0.35187851852E+03  0.38531124762E+03  0.12509771917E+03 0.  0.
          5    1    3    3  502    0  0.11469453597E+02 -0.11768713263E+02  0.19404969920E+03  0.19478914019E+03  0.41800000000E+01 0. -1.
         -5    1    3    3    0  502 -0.60412823954E+01  0.10646486613E+03  0.15782881932E+03  0.19052210743E+03  0.41800000000E+01 0. -1.
        -11    1    1    2    0    0  0.47551970464E+02 -0.73490950702E+02  0.26662641333E+02  0.91504132000E+02  0.00000000000E+00 0.  1.
         11    1    1    2    0    0 -0.52980141665E+02 -0.21205202165E+02  0.15797057148E+03  0.16796207150E+03  0.00000000000E+00 0. -1.
</event>
<event>
 8    1  0.5900800E-006  0.8936279E+02  0.7561462E-02  0.1304402E+00
         -2   -1    0    0    0  501 -0.00000000000E+00  0.00000000000E+00  0.57131371090E+02  0.57131371090E+02  0.00000000000E+00 0.  1.
          2   -1    0    0  501    0  0.00000000000E+00 -0.00000000000E+00 -0.27374798040E+03  0.27374798040E+03  0.00000000000E+00 0. -1.
         23    2    1    2    0    0 -0.29248762552E+02 -0.35637362234E+02 -0.40155582714E+02  0.10971899907E+03  0.91105851819E+02 0.  0.
         23    2    1    2    0    0  0.29248762552E+02  0.35637362234E+02 -0.17646102660E+03  0.22116035242E+03  0.12509154999E+03 0.  0.
          5    1    4    4  502    0  0.15851390039E+02 -0.46060036119E+02 -0.49819471166E+02  0.69801472769E+02  0.41800000000E+01 0. -1.
         -5    1    4    4    0  502  0.13397372513E+02  0.81697398353E+02 -0.12664155543E+03  0.15135887965E+03  0.41800000000E+01 0. -1.
        -11    1    3    3    0    0 -0.39793304543E+01 -0.10796658539E+02 -0.65276709567E+02  0.66283117899E+02  0.00000000000E+00 0. -1.
         11    1    3    3    0    0 -0.25269432097E+02 -0.24840703695E+02  0.25121126853E+02  0.43435881169E+02  0.00000000000E+00 0.  1.
</event>
<event>
 8    1  0.5900800E-006  0.1086186E+03  0.7561462E-02  0.1263150E+00
         -4   -1    0    0    0  501 -0.00000000000E+00  0.00000000000E+00  0.89704934715E+03  0.89704934715E+03  0.00000000000E+00 0.  1.
          4   -1    0    0  501    0  0.00000000000E+00 -0.00000000000E+00 -0.15523281008E+02  0.15523281008E+02  0.00000000000E+00 0. -1.
         23    2    1    2    0    0 -0.40432455997E+02 -0.28972344550E+02  0.41077627634E+03  0.42295370204E+03  0.87627076962E+02 0.  0.
         23    2    1    2    0    0  0.40432455997E+02  0.28972344550E+02  0.47074978980E+03  0.48961892612E+03  0.12508856051E+03 0.  0.
          5    1    4    4  502    0  0.15721540656E+02  0.68913566762E+02  0.15550252739E+03  0.17086472705E+03  0.41800000000E+01 0. -1.
         -5    1    4    4    0  502  0.24710915341E+02 -0.39941222211E+02  0.31524726241E+03  0.31875419907E+03  0.41800000000E+01 0. -1.
        -11    1    3    3    0    0 -0.58937638166E+01  0.30195648532E+02  0.96053618577E+02  0.10086035536E+03  0.00000000000E+00 0. -1.
         11    1    3    3    0    0 -0.34538692181E+02 -0.59167993082E+02  0.31472265777E+03  0.32209334668E+03  0.00000000000E+00 0.  1.
</event>
<event>
 8    1  0.5900800E-006  0.1162888E+03  0.7561462E-02  0.1249348E+00
          1   -1    0    0  501    0  0.00000000000E+00  0.00000000000E+00  0.49716406543E+03  0.49716406543E+03  0.00000000000E+00 0. -1.
         -1   -1    0    0    0  501 -0.00000000000E+00 -0.00000000000E+00 -0.34287802352E+02  0.34287802352E+02  0.00000000000E+00 0.  1.
         23    2    1    2    0    0 -0.32505999074E+02 -0.31943788136E+02  0.91867027406E+02  0.13727784363E+03  0.91261218768E+02 0.  0.
         23    2    1    2    0    0  0.32505999074E+02  0.31943788136E+02  0.37100923567E+03  0.39417402415E+03  0.12509301654E+03 0.  0.
          5    1    4    4  502    0  0.72313146529E+02 -0.94724469265E+01  0.16895913647E+03  0.18407493204E+03  0.41800000000E+01 0.  1.
         -5    1    4    4    0  502 -0.39807147455E+02  0.41416235063E+02  0.20205009921E+03  0.21009909211E+03  0.41800000000E+01 0.  1.
        -11    1    3    3    0    0  0.21936652837E+02 -0.41228793626E+02  0.39424532192E+02  0.61117296244E+02  0.00000000000E+00 0. -1.
         11    1    3    3    0    0 -0.54442651911E+02  0.92850054897E+01  0.52442495214E+02  0.76160547387E+02  0.00000000000E+00 0.  1.
</event>
<event>
 8    1  0.5900800E-006  0.1045947E+03  0.7561462E-02  0.1270920E+00
          1   -1    0    0  501    0  0.00000000000E+00  0.00000000000E+00  0.74746019421E+03  0.74746019421E+03  0.00000000000E+00 0. -1.
         -1   -1    0    0    0  501 -0.00000000000E+00 -0.00000000000E+00 -0.29187418408E+02  0.29187418408E+02  0.00000000000E+00 0.  1.
         23    2    1    2    0    0 -0.14185013663E+02 -0.32844089827E+02  0.91904336116E+02  0.13690969942E+03  0.94962676605E+02 0.  0.
         23    2    1    2    0    0  0.14185013663E+02  0.32844089827E+02  0.62636843968E+03  0.63973791320E+03  0.12508887442E+03 0.  0.
          5    1    4    4  502    0  0.84127913910E+01  0.72801786513E+02  0.53159084593E+03  0.53663504829E+03  0.41800000000E+01 0.  1.
         -5    1    4    4    0  502  0.57722222722E+01 -0.39957696686E+02  0.94777593751E+02  0.10310286491E+03  0.41800000000E+01 0.  1.
        -11    1    3    3    0    0 -0.19124365567E+02 -0.62382061328E+02  0.38715786916E+02  0.75869460854E+02  0.00000000000E+00 0.  1.
         11    1    3    3    0    0  0.49393519042E+01  0.29537971500E+02  0.53188549200E+02  0.61040238561E+02  0.00000000000E+00 0. -1.
</event>
<event>
 8    1  0.5900800E-006  0.1469469E+03  0.7561462E-02  0.1204276E+00
         -2   -1    0    0    0  501 -0.00000000000E+00  0.00000000000E+00  0.22358158792E+02  0.22358158792E+02  0.00000000000E+00 0.  1.
          2   -1    0    0  501    0  0.00000000000E+00 -0.00000000000E+00 -0.13772637133E+04  0.13772637133E+04  0.00000000000E+00 0. -1.
         23    2    1    2    0    0  0.38277407762E+02 -0.10572883242E+03 -0.32943824759E+03  0.36045116005E+03  0.93550702079E+02 0.  0.
         23    2    1    2    0    0 -0.38277407762E+02  0.10572883242E+03 -0.10254673069E+04  0.10391707121E+04  0.12509526471E+03 0.  0.
          5    1    4    4  502    0  0.32245860796E+02  0.81401385056E+02 -0.68601433343E+03  0.69159172862E+03  0.41800000000E+01 0.  1.
         -5    1    4    4    0  502 -0.70523268558E+02  0.24327447360E+02 -0.33945297351E+03  0.34757898344E+03  0.41800000000E+01 0.  1.
        -11    1    3    3    0    0  0.57827062708E+02 -0.70035655995E+02 -0.28957387249E+03  0.30348309660E+03  0.00000000000E+00 0. -1.
         11    1    3    3    0    0 -0.19549654946E+02 -0.35693176421E+02 -0.39864375095E+02  0.56968063450E+02  0.00000000000E+00 0.  1.
</event>
<event>
 8    1  0.5900800E-006  0.8664294E+02  0.7561462E-02  0.1311191E+00
          2   -1    0    0  501    0  0.00000000000E+00  0.00000000000E+00  0.13691544142E+04  0.13691544142E+04  0.00000000000E+00 0. -1.
         -2   -1    0    0    0  501 -0.00000000000E+00 -0.00000000000E+00 -0.20146415066E+02  0.20146415066E+02  0.00000000000E+00 0.  1.
         23    2    1    2    0    0  0.62881851889E+02 -0.44235570319E+00  0.17361654108E+03  0.20560028875E+03  0.90412678440E+02 0.  0.
         23    2    1    2    0    0 -0.62881851889E+02  0.44235570319E+00  0.11753914580E+04  0.11837005405E+04  0.12509023531E+03 0.  0.
          5    1    4    4  502    0  0.16251597353E+02 -0.20166665533E+02  0.75239071892E+03  0.75284797611E+03  0.41800000000E+01 0. -1.
         -5    1    4    4    0  502 -0.79133449242E+02  0.20609021236E+02  0.42300073912E+03  0.43085256439E+03  0.41800000000E+01 0. -1.
        -11    1    3    3    0    0  0.25743940490E+02  0.82420986500E+01 -0.81929997329E+00  0.27043555879E+02  0.00000000000E+00 0.  1.
         11    1    3    3    0    0  0.37137911399E+02 -0.86844543532E+01  0.17443584105E+03  0.17855673287E+03  0.00000000000E+00 0. -1.
</event>
<event>
 8    1  0.5900800E-006  0.1156538E+03  0.7561462E-02  0.1250444E+00
          2   -1    0    0  501    0  0.00000000000E+00  0.00000000000E+00  0.30644319311E+03  0.30644319311E+03  0.00000000000E+00 0. -1.
         -2   -1    0    0    0  501 -0.00000000000E+00 -0.00000000000E+00 -0.49674376420E+02  0.49674376420E+02  0.00000000000E+00 0.  1.
         23    2    1    2    0    0  0.14933946328E+02  0.50393333063E+02  0.10156753653E+03  0.14997039309E+03  0.97018779393E+02 0.  0.
         23    2    1    2    0    0 -0.14933946328E+02 -0.50393333063E+02  0.15520128016E+03  0.20614717645E+03  0.12508681075E+03 0.  0.
          5    1    4    4  502    0 -0.54926508348E+02  0.13540017774E+02  0.44316380641E+02  0.71983799523E+02  0.41800000000E+01 0. -1.
         -5    1    4    4    0  502  0.39992562021E+02 -0.63933350837E+02  0.11088489952E+03  0.13416337692E+03  0.41800000000E+01 0. -1.
        -11    1    3    3    0    0  0.47676385708E+02  0.13131145639E+02  0.17685040805E+02  0.52518810042E+02  0.00000000000E+00 0.  1.
         11    1    3    3    0    0 -0.32742439381E+02  0.37262187424E+02  0.83882495727E+02  0.97451583043E+02  0.00000000000E+00 0. -1.
</event>
<event>
 8    1  0.5900800E-006  0.1664104E+03  0.7561462E-02  0.1181644E+00
         -1   -1    0    0    0  501 -0.00000000000E+00  0.00000000000E+00  0.45117872610E+03  0.45117872610E+03  0.00000000000E+00 0.  1.
          1   -1    0    0  501    0  0.00000000000E+00 -0.00000000000E+00 -0.79690534336E+02  0.79690534336E+02  0.00000000000E+00 0. -1.
         23    2    1    2    0    0  0.13853437064E+03 -0.63987455035E+02  0.18121509437E+03  0.25675705417E+03  0.98990444922E+02 0.  0.
         23    2    1    2    0    0 -0.13853437064E+03  0.63987455035E+02  0.19027309739E+03  0.27411220627E+03  0.12508990280E+03 0.  0.
          5    1    4    4  502    0 -0.97211311372E+02  0.88508021927E+02  0.18295191293E+03  0.22532772543E+03  0.41800000000E+01 0. -1.
         -5    1    4    4    0  502 -0.41323059272E+02 -0.24520566892E+02  0.73211844617E+01  0.48784480834E+02  0.41800000000E+01 0. -1.
        -11    1    3    3    0    0  0.54405055143E+02 -0.18824741820E+02  0.14255807623E+03  0.15374357232E+03  0.00000000000E+00 0.  1.
         11    1    3    3    0    0  0.84129315501E+02 -0.45162713215E+02  0.38657018137E+02  0.10301348185E+03  0.00000000000E+00 0. -1.
</event>
<event>
 8    1  0.5900800E-006  0.1577393E+03  0.7561462E-02  0.1191273E+00
          2   -1    0    0  501    0  0.00000000000E+00  0.00000000000E+00  0.11025234583E+04  0.11025234583E+04  0.00000000000E+00 0. -1.
         -2   -1    0    0    0  501 -0.00000000000E+00 -0.00000000000E+00 -0.34387165739E+02  0.34387165739E+02  0.00000000000E+00 0.  1.
         23    2    1    2    0    0 -0.11178249531E+02 -0.13017159936E+03  0.23049661021E+03  0.27996562670E+03  0.90456985737E+02 0.  0.
         23    2    1    2    0    0  0.11178249531E+02  0.13017159936E+03  0.83763968235E+03  0.85694499735E+03  0.12507954463E+03 0.  0.
          5    1    4    4  502    0 -0.41725083066E+01 -0.17003505497E+02  0.26056435761E+03  0.26118534775E+03  0.41800000000E+01 0. -1.
         -5    1    4    4    0  502  0.15350757838E+02  0.14717510486E+03  0.57707532474E+03  0.59575964959E+03  0.41800000000E+01 0. -1.
        -11    1    3    3    0    0  0.24693724385E+02 -0.98645714739E+02  0.19679395738E+03  0.22151437588E+03  0.00000000000E+00 0. -1.
         11    1    3    3    0    0 -0.35871973916E+02 -0.31525884624E+02  0.33702652832E+02  0.58451250816E+02  0.00000000000E+00 0.  1.
</event>
<event>
 8    1  0.5900800E-006  0.9377234E+02  0.7561462E-02  0.1293965E+00
          1   -1    0    0  501    0  0.00000000000E+00  0.00000000000E+00  0.18042206460E+04  0.18042206460E+04  0.00000000000E+00 0. -1.
         -1   -1    0    0    0  501 -0.00000000000E+00 -0.00000000000E+00 -0.76874772970E+01  0.76874772970E+01  0.00000000000E+00 0.  1.
         23    2    1    2    0    0 -0.18473290768E+02  0.24158246244E+02  0.41650020585E+03  0.42700038609E+03  0.89061916213E+02 0.  0.
         23    2    1    2    0    0  0.18473290768E+02 -0.24158246244E+02  0.13800329628E+04  0.13849077372E+04  0.11204275374E+03 0.  0.
          5    1    4    4  502    0 -0.35140469261E+02 -0.16766679112E+02  0.21022609277E+03  0.21384213006E+03  0.41800000000E+01 0. -1.
         -5    1    4    4    0  502  0.53613760029E+02 -0.73915671321E+01  0.11698068701E+04  0.11710656071E+04  0.41800000000E+01 0.  1.
        -11    1    3    3    0    0 -0.38834196129E+02  0.48653026352E+02  0.27810981869E+03  0.28499172447E+03  0.00000000000E+00 0. -1.
         11    1    3    3    0    0  0.20360905361E+02 -0.24494780108E+02  0.13839038715E+03  0.14200866162E+03  0.00000000000E+00 0.  1.
</event>
<event>
 8    1  0.5900800E-006  0.2020751E+03  0.7561462E-02  0.1148000E+00
         -2   -1    0    0    0  501 -0.00000000000E+00  0.00000000000E+00  0.19023934156E+03  0.19023934156E+03  0.00000000000E+00 0.  1.
          2   -1    0    0  501    0  0.00000000000E+00 -0.00000000000E+00 -0.26875785860E+03  0.26875785860E+03  0.00000000000E+00 0. -1.
         23    2    1    2    0    0  0.55981301277E+02 -0.17482453458E+03  0.37288502651E+02  0.20848707240E+03  0.91536347652E+02 0.  0.
         23    2    1    2    0    0 -0.55981301277E+02  0.17482453458E+03 -0.11580701969E+03  0.25051012777E+03  0.12508610762E+03 0.  0.
          5    1    4    4  502    0 -0.31441615405E+02 -0.73627566371E+01 -0.40098860364E+02  0.51654393493E+02  0.41800000000E+01 0. -1.
         -5    1    4    4    0  502 -0.24539685872E+02  0.18218729122E+03 -0.75708159326E+02  0.19885573427E+03  0.41800000000E+01 0. -1.
        -11    1    3    3    0    0  0.54501924356E+02 -0.10899207204E+03  0.63741224092E+02  0.13752336228E+03  0.00000000000E+00 0.  1.
         11    1    3    3    0    0  0.14793769206E+01 -0.65832462549E+02 -0.26452721441E+02  0.70963710113E+02  0.00000000000E+00 0. -1.
</event>
<event>
 8    1  0.5900800E-006  0.1836934E+03  0.7561462E-02  0.1164276E+00
          1   -1    0    0  501    0  0.00000000000E+00  0.00000000000E+00  0.91141904484E+03  0.91141904484E+03  0.00000000000E+00 0. -1.
         -1   -1    0    0    0  501 -0.00000000000E+00 -0.00000000000E+00 -0.52552869396E+02  0.52552869396E+02  0.00000000000E+00 0.  1.
         23    2    1    2    0    0  0.13947989139E+03 -0.88088509801E+02  0.21446954904E+03  0.28713671346E+03  0.96104521704E+02 0.  0.
         23    2    1    2    0    0 -0.13947989139E+03  0.88088509801E+02  0.64439662640E+03  0.67683520077E+03  0.12507858019E+03 0.  0.
          5    1    4    4  502    0 -0.49031164621E+02  0.96651780932E+02  0.25781894476E+03  0.27970288260E+03  0.41800000000E+01 0. -1.
         -5    1    4    4    0  502 -0.90448726769E+02 -0.85632711316E+01  0.38657768164E+03  0.39713231817E+03  0.41800000000E+01 0. -1.
        -11    1    3    3    0    0  0.48186806089E+02 -0.13367634670E+02  0.98842751173E+01  0.50974119240E+02  0.00000000000E+00 0.  1.
         11    1    3    3    0    0  0.91293085301E+02 -0.74720875131E+02  0.20458527392E+03  0.23616259422E+03  0.00000000000E+00 0. -1.
</event>
<event>
 7    1  0.5900800E-006  0.1107266E+03  0.7561462E-02  0.1259230E+00
          4   -1    0    0  501    0  0.00000000000E+00  0.00000000000E+00  0.12715997202E+03  0.12715997202E+03  0.00000000000E+00 0. -1.
         -4   -1    0    0    0  501 -0.00000000000E+00 -0.00000000000E+00 -0.14499038033E+03  0.14499038033E+03  0.00000000000E+00 0.  1.
         23    2    1    2    0    0  0.55250356166E+02  0.34201219853E+02 -0.10588042179E+02  0.11426057516E+03  0.93386546688E+02 0.  0.
          5    1    1    2  502    0  0.14122812560E+02 -0.37221844760E+02  0.52619195269E+02  0.66114837008E+02  0.41800000000E+01 0. -1.
         -5    1    1    2    0  502 -0.69373168726E+02  0.30206249070E+01 -0.59861561393E+02  0.91774940187E+02  0.41800000000E+01 0.  1.
        -11    1    3    3    0    0 -0.46049917995E+00  0.53045194661E+02 -0.15442038774E+02  0.55249084134E+02  0.00000000000E+00 0.  1.
         11    1    3    3    0    0  0.55710855346E+02 -0.18843974808E+02  0.48539965947E+01  0.59011491024E+02  0.00000000000E+00 0. -1.
</event>
<event>
 8    1  0.5900800E-006  0.1362035E+03  0.7561462E-02  0.1218531E+00
          2   -1    0    0  501    0  0.00000000000E+00  0.00000000000E+00  0.11137213481E+04  0.11137213481E+04  0.00000000000E+00 0. -1.
         -2   -1    0    0    0  501 -0.00000000000E+00 -0.00000000000E+00 -0.23188644417E+02  0.23188644417E+02  0.00000000000E+00 0.  1.
         23    2    1    2    0    0 -0.57208930764E+02 -0.86886087457E+02  0.30805673375E+03  0.33769922773E+03  0.91212736230E+02 0.  0.
         23    2    1    2    0    0  0.57208930764E+02  0.86886087457E+02  0.78247596998E+03  0.79921076483E+03  0.12508856492E+03 0.  0.
          5    1    4    4  502    0  0.79434932866E+02  0.21532411353E+02  0.27614709115E+03  0.28818091826E+03  0.41800000000E+01 0.  1.
         -5    1    4    4    0  502 -0.22226002102E+02  0.65353676104E+02  0.50632887883E+03  0.51102984657E+03  0.41800000000E+01 0.  1.
        -11    1    3    3    0    0 -0.15511461761E+02 -0.76248355471E+02  0.26742521512E+03  0.27851510343E+03  0.00000000000E+00 0. -1.
         11    1    3    3    0    0 -0.41697469003E+02 -0.10637731986E+02  0.40631518627E+02  0.59184124299E+02  0.00000000000E+00 0.  1.
</event>
<event>
 8    1  0.5900800E-006  0.1332454E+03  0.7561462E-02  0.1222718E+00
          1   -1    0    0  501    0  0.00000000000E+00  0.00000000000E+00  0.35944993293E+02  0.35944993293E+02  0.00000000000E+00 0. -1.
         -1   -1    0    0    0  501 -0.00000000000E+00 -0.00000000000E+00 -0.60444245233E+03  0.60444245233E+03  0.00000000000E+00 0.  1.
         23    2    1    2    0    0  0.72290282738E+02  0.62016175902E+02 -0.31724293472E+03  0.34399570350E+03  0.92833578755E+02 0.  0.
         23    2    1    2    0    0 -0.72290282738E+02 -0.62016175902E+02 -0.25125452432E+03  0.29639174213E+03  0.12508931912E+03 0.  0.
          5    1    4    4  502    0 -0.67442234971E+02  0.46077447064E+01 -0.20266725537E+03  0.21368475652E+03  0.41800000000E+01 0.  1.
         -5    1    4    4    0  502 -0.48480477677E+01 -0.66623920608E+02 -0.48587268950E+02  0.82706985608E+02  0.41800000000E+01 0.  1.
        -11    1    3    3    0    0 -0.48231401735E+01  0.54098142028E+02 -0.15362333937E+03  0.16294171366E+03  0.00000000000E+00 0. -1.
         11    1    3    3    0    0  0.77113422912E+02  0.79180338743E+01 -0.16361959536E+03  0.18105398984E+03  0.00000000000E+00 0.  1.
</event>
<event>
 8    1  0.5900800E-006  0.5826564E+02  0.7561462E-02  0.1405258E+00
         -1   -1    0    0    0  501 -0.00000000000E+00  0.00000000000E+00  0.34711900165E+03  0.34711900165E+03  0.00000000000E+00 0.  1.
          1   -1    0    0  501    0  0.00000000000E+00 -0.00000000000E+00 -0.44109798144E+02  0.44109798144E+02  0.00000000000E+00 0. -1.
         23    2    1    2    0    0  0.96905419055E+01  0.33238293549E+00  0.22554494267E+03  0.24378032118E+03  0.92001667093E+02 0.  0.
         23    2    1    2    0    0 -0.96905419055E+01 -0.33238293549E+00  0.77464260837E+02  0.14744847862E+03  0.12508527115E+03 0.  0.
          5    1    4    4  502    0  0.88974461955E+01 -0.60262282939E+01 -0.33130834861E+02  0.35079974271E+02  0.41800000000E+01 0. -1.
         -5    1    4    4    0  502 -0.18587988101E+02  0.56938453584E+01  0.11059509570E+03  0.11236850435E+03  0.41800000000E+01 0. -1.
        -11    1    3    3    0    0 -0.35258494557E+02  0.14298154856E+02  0.55128569165E+02  0.66983265141E+02  0.00000000000E+00 0. -1.
         11    1    3    3    0    0  0.44949036462E+02 -0.13965771921E+02  0.17041637351E+03  0.17679705604E+03  0.00000000000E+00 0.  1.
</event>
<event>
 8    1  0.5900800E-006  0.1286622E+03  0.7561462E-02  0.1229454E+00
         -1   -1    0    0    0  501 -0.00000000000E+00  0.00000000000E+00  0.16630435652E+03  0.16630435652E+03  0.00000000000E+00 0.  1.
          1   -1    0    0  501    0  0.00000000000E+00 -0.00000000000E+00 -0.11238488349E+03  0.11238488349E+03  0.00000000000E+00 0. -1.
         23    2    1    2    0    0  0.85196271299E+01 -0.81322881325E+02  0.33558663475E+02  0.12786357511E+03  0.92395426684E+02 0.  0.
         23    2    1    2    0    0 -0.85196271299E+01  0.81322881325E+02  0.20360809553E+02  0.15082566490E+03  0.12509126090E+03 0.  0.
          5    1    4    4  502    0  0.47734330672E+02  0.44327037828E+01 -0.12913890797E+02  0.49824252760E+02  0.41800000000E+01 0.  1.
         -5    1    4    4    0  502 -0.56253957802E+02  0.76890177542E+02  0.33274700350E+02  0.10100141214E+03  0.41800000000E+01 0.  1.
        -11    1    3    3    0    0 -0.18232664584E+02  0.85007640576E+01 -0.12241194083E+02  0.23548670450E+02  0.00000000000E+00 0. -1.
         11    1    3    3    0    0  0.26752291714E+02 -0.89823645382E+02  0.45799857558E+02  0.10431490466E+03  0.00000000000E+00 0.  1.
</event>
<event>
 7    1  0.5900800E-006  0.1148062E+03  0.7561462E-02  0.1251920E+00
         -1   -1    0    0    0  501 -0.00000000000E+00  0.00000000000E+00  0.29080610329E+03  0.29080610329E+03  0.00000000000E+00 0.  1.
          1   -1    0    0  501    0  0.00000000000E+00 -0.00000000000E+00 -0.58239913664E+02  0.58239913664E+02  0.00000000000E+00 0. -1.
         23    2    1    2    0    0 -0.53384975875E+02 -0.49355578586E+02  0.61792536439E+02  0.15733131262E+03  0.12509554582E+03 0.  0.
          5    1    3    3  502    0 -0.87703971746E+02 -0.61579887341E+02  0.52976666490E+02  0.11961633993E+03  0.41800000000E+01 0. -1.
         -5    1    3    3    0  502  0.34318995871E+02  0.12224308755E+02  0.88158699484E+01  0.37714972691E+02  0.41800000000E+01 0. -1.
        -11    1    1    2    0    0  0.23837250067E+02 -0.45093896143E+01  0.33914101806E+02  0.41697906264E+02  0.00000000000E+00 0.  1.
         11    1    1    2    0    0  0.29547725808E+02  0.53864968201E+02  0.13685955138E+03  0.15001679808E+03  0.00000000000E+00 0. -1.
</event>
<event>
 8    1  0.5900800E-006  0.1873752E+03  0.7561462E-02  0.1160850E+00
          2   -1    0    0  501    0  0.00000000000E+00  0.00000000000E+00  0.16646768209E+04  0.16646768209E+04  0.00000000000E+00 0. -1.
         -2   -1    0    0    0  501 -0.00000000000E+00 -0.00000000000E+00 -0.24604372303E+02  0.24604372303E+02  0.00000000000E+00 0.  1.
         23    2    1    2    0    0 -0.25442121607E+02 -0.15513144597E+03  0.51187625945E+03  0.54333719384E+03  0.92113702236E+02 0.  0.
         23    2    1    2    0    0  0.25442121607E+02  0.15513144597E+03  0.11281961891E+04  0.11459439993E+04  0.12509173192E+03 0.  0.
          5    1    4    4  502    0  0.68758156713E+02  0.54706983894E+02  0.61050323009E+03  0.61680807757E+03  0.41800000000E+01 0.  1.
         -5    1    4    4    0  502 -0.43316035106E+02  0.10042446207E+03  0.51769295901E+03  0.52913592176E+03  0.41800000000E+01 0.  1.
        -11    1    3    3    0    0  0.29885255565E+02 -0.43931210955E+02  0.21620069613E+03  0.22263382673E+03  0.00000000000E+00 0.  1.
         11    1    3    3    0    0 -0.55327377173E+02 -0.11120023501E+03  0.29567556332E+03  0.32070336711E+03  0.00000000000E+00 0. -1.
</event>
<event>
 8    1  0.5900800E-006  0.1359851E+03  0.7561462E-02  0.1218836E+00
         -2   -1    0    0    0  501 -0.00000000000E+00  0.00000000000E+00  0.19507044688E+02  0.19507044688E+02  0.00000000000E+00 0.  1.
          2   -1    0    0  501    0  0.00000000000E+00 -0.00000000000E+00 -0.12335493315E+04  0.12335493315E+04  0.00000000000E+00 0. -1.
         23    2    1    2    0    0  0.75168194034E+02 -0.70987775583E+02 -0.40097329945E+03  0.42395021624E+03  0.90910270607E+02 0.  0.
         23    2    1    2    0    0 -0.75168194034E+02  0.70987775583E+02 -0.81306898737E+03  0.82910615996E+03  0.12508526922E+03 0.  0.
          5    1    4    4  502    0 -0.71681238740E+02  0.47570216746E+01 -0.20200971830E+03  0.21444399718E+03  0.41800000000E+01 0.  1.
         -5    1    4    4    0  502 -0.34869552943E+01  0.66230753908E+02 -0.61105926908E+03  0.61466216277E+03  0.41800000000E+01 0.  1.
        -11    1    3    3    0    0  0.81911219126E+02 -0.22975765667E+02 -0.20256591981E+03  0.21970499652E+03  0.00000000000E+00 0.  1.
         11    1    3    3    0    0 -0.67430250920E+01 -0.48012009916E+02 -0.19840737964E+03  0.20424521972E+03  0.00000000000E+00 0. -1.
</event>
<event>
 8    1  0.5900800E-006  0.2082617E+03  0.7561462E-02  0.1142950E+00
         -2   -1    0    0    0  501 -0.00000000000E+00  0.00000000000E+00  0.19057511006E+03  0.19057511006E+03  0.00000000000E+00 0. -1.
          2   -1    0    0  501    0  0.00000000000E+00 -0.00000000000E+00 -0.23359926452E+03  0.23359926452E+03  0.00000000000E+00 0.  1.
         23    2    1    2    0    0  0.13492577544E+03 -0.11758465133E+03  0.20604416531E+01  0.20121399289E+03  0.91933184485E+02 0.  0.
         23    2    1    2    0    0 -0.13492577544E+03  0.11758465133E+03 -0.45084596105E+02  0.22296038169E+03  0.12509035091E+03 0.  0.
          5    1    4    4  502    0 -0.14059331369E+03  0.13597221351E+03 -0.51416784897E+02  0.20227723764E+03  0.41800000000E+01 0. -1.
         -5    1    4    4    0  502  0.56675382473E+01 -0.18387562178E+02  0.63321887916E+01  0.20683144044E+02  0.41800000000E+01 0. -1.
        -11    1    3    3    0    0  0.19822407497E+02 -0.76433080509E+02  0.13747776886E+01  0.78973626286E+02  0.00000000000E+00 0.  1.
         11    1    3    3    0    0  0.11510336794E+03 -0.41151570818E+02  0.68566396452E+00  0.12224036661E+03  0.00000000000E+00 0. -1.
</event>
<event>
 7    1  0.5900800E-006  0.1318946E+03  0.7561462E-02  0.1224671E+00
         -2   -1    0    0    0  501 -0.00000000000E+00  0.00000000000E+00  0.13781872756E+02  0.13781872756E+02  0.00000000000E+00 0.  1.
          2   -1    0    0  501    0  0.00000000000E+00 -0.00000000000E+00 -0.14184943439E+04  0.14184943439E+04  0.00000000000E+00 0. -1.
         23    2    1    2    0    0  0.24257960574E+02  0.69210791243E+02 -0.50736479230E+03  0.52043106047E+03  0.89726662458E+02 0.  0.
          5    1    1    2  502    0 -0.57562326773E+02 -0.91798512989E+02 -0.78461645321E+03  0.79207375888E+03  0.41800000000E+01 0. -1.
         -5    1    1    2    0  502  0.33304366198E+02  0.22587721746E+02 -0.11273122559E+03  0.11977139728E+03  0.41800000000E+01 0.  1.
        -11    1    3    3    0    0 -0.33547633147E+02  0.30391772963E+02 -0.16765428574E+03  0.17365789092E+03  0.00000000000E+00 0.  1.
         11    1    3    3    0    0  0.57805593721E+02  0.38819018280E+02 -0.33971050656E+03  0.34677316954E+03  0.00000000000E+00 0. -1.
</event>
<event>
 8    1  0.5900800E-006  0.1920558E+03  0.7561462E-02  0.1156620E+00
         -1   -1    0    0    0  501 -0.00000000000E+00  0.00000000000E+00  0.17854555407E+03  0.17854555407E+03  0.00000000000E+00 0.  1.
          1   -1    0    0  501    0  0.00000000000E+00 -0.00000000000E+00 -0.39740307813E+03  0.39740307813E+03  0.00000000000E+00 0. -1.
         23    2    1    2    0    0 -0.16980222598E+03  0.35390800521E+02  0.80420716571E+02  0.21272379507E+03  0.93266374577E+02 0.  0.
         23    2    1    2    0    0  0.16980222598E+03 -0.35390800521E+02 -0.29927824062E+03  0.36322483713E+03  0.11081296083E+03 0.  0.
          5    1    4    4  502    0  0.18240596498E+03 -0.44595887205E+02 -0.28671034194E+03  0.34275504634E+03  0.41800000000E+01 0. -1.
         -5    1    4    4    0  502 -0.12603738999E+02  0.92050866837E+01 -0.12567898678E+02  0.20469790785E+02  0.41800000000E+01 0.  1.
        -11    1    3    3    0    0 -0.95555837223E+02  0.44346236710E+02  0.34436981916E+01  0.10540097625E+03  0.00000000000E+00 0. -1.
         11    1    3    3    0    0 -0.74246388756E+02 -0.89554361885E+01  0.76977018379E+02  0.10732281882E+03  0.00000000000E+00 0.  1.
</event>
<event>
 8    1  0.5900800E-006  0.1148840E+03  0.7561462E-02  0.1251784E+00
         -1   -1    0    0    0  501 -0.00000000000E+00  0.00000000000E+00  0.29823013990E+02  0.29823013990E+02  0.00000000000E+00 0.  1.
          1   -1    0    0  501    0  0.00000000000E+00 -0.00000000000E+00 -0.55962543032E+03  0.55962543032E+03  0.00000000000E+00 0. -1.
         23    2    1    2    0    0 -0.31561336961E+02 -0.60981056323E+02 -0.22546674956E+03  0.25331862299E+03  0.92845368091E+02 0.  0.
         23    2    1    2    0    0  0.31561336961E+02  0.60981056323E+02 -0.30433566677E+03  0.33612982132E+03  0.12509297139E+03 0.  0.
          5    1    4    4  502    0 -0.38848285054E+02  0.57585964180E+02 -0.11981268247E+03  0.13855642823E+03  0.41800000000E+01 0.  1.
         -5    1    4    4    0  502  0.70409622015E+02  0.33950921438E+01 -0.18452298430E+03  0.19757339309E+03  0.41800000000E+01 0.  1.
        -11    1    3    3    0    0 -0.47792501158E+02 -0.36267213716E+02 -0.58644592236E+02  0.83896496685E+02  0.00000000000E+00 0.  1.
         11    1    3    3    0    0  0.16231164196E+02 -0.24713842608E+02 -0.16682215733E+03  0.16942212631E+03  0.00000000000E+00 0. -1.
</event>
<event>
 8    1  0.5900800E-006  0.1312912E+03  0.7561462E-02  0.1225552E+00
         -2   -1    0    0    0  501 -0.00000000000E+00  0.00000000000E+00  0.51941960666E+02  0.51941960666E+02  0.00000000000E+00 0. -1.
          2   -1    0    0  501    0  0.00000000000E+00 -0.00000000000E+00 -0.53458754088E+03  0.53458754088E+03  0.00000000000E+00 0.  1.
         23    2    1    2    0    0 -0.74825341156E+02 -0.32025312631E+02 -0.56894783576E+02  0.13538422753E+03  0.92018586917E+02 0.  0.
         23    2    1    2    0    0  0.74825341156E+02  0.32025312631E+02 -0.42575079664E+03  0.45114527402E+03  0.12507543763E+03 0.  0.
          5    1    4    4  502    0 -0.28084829939E+02 -0.11106740717E+02 -0.44979923792E+02  0.54339518827E+02  0.41800000000E+01 0. -1.
         -5    1    4    4    0  502  0.10291017110E+03  0.43132053348E+02 -0.38077087285E+03  0.39680575519E+03  0.41800000000E+01 0. -1.
        -11    1    3    3    0    0 -0.35031002618E+02 -0.61590856864E+02 -0.20117484471E+02  0.73656757837E+02  0.00000000000E+00 0. -1.
         11    1    3    3    0    0 -0.39794338539E+02  0.29565544233E+02 -0.36777299105E+02  0.61727469696E+02  0.00000000000E+00 0.  1.
</event>
<event>
 8    1  0.5900800E-006  0.1489281E+03  0.7561462E-02  0.1201796E+00
         -1   -1    0    0    0  501 -0.00000000000E+00  0.00000000000E+00  0.27271592832E+02  0.27271592832E+02  0.00000000000E+00 0.  1.
          1   -1    0    0  501    0  0.00000000000E+00 -0.00000000000E+00 -0.11951488450E+04  0.11951488450E+04  0.00000000000E+00 0. -1.
         23    2    1    2    0    0  0.11527264088E+03 -0.68829308390E+02 -0.39259459805E+03  0.42571850610E+03  0.95291513718E+02 0.  0.
         23    2    1    2    0    0 -0.11527264088E+03  0.68829308390E+02 -0.77528265410E+03  0.79670193171E+03  0.12508204835E+03 0.  0.
          5    1    4    4  502    0 -0.53908972918E+02  0.36429591736E+02 -0.11054602347E+03  0.12834012708E+03  0.41800000000E+01 0.  1.
         -5    1    4    4    0  502 -0.61363667966E+02  0.32399716654E+02 -0.66473663063E+03  0.66836180463E+03  0.41800000000E+01 0.  1.
        -11    1    3    3    0    0  0.38531043357E+02  0.21890879432E+02 -0.82723862789E+02  0.93846094107E+02  0.00000000000E+00 0.  1.
         11    1    3    3    0    0  0.76741597527E+02 -0.90720187822E+02 -0.30987073526E+03  0.33187241199E+03  0.00000000000E+00 0. -1.
</event>
<event>
 8    1  0.5900800E-006  0.1554931E+03  0.7561462E-02  0.1193881E+00
          1   -1    0    0  501    0  0.00000000000E+00  0.00000000000E+00  0.62532770444E+03  0.62532770444E+03  0.00000000000E+00 0. -1.
         -1   -1    0    0    0  501 -0.00000000000E+00 -0.00000000000E+00 -0.47005611557E+02  0.47005611557E+02  0.00000000000E+00 0.  1.
         23    2    1    2    0    0 -0.80173344088E+02 -0.77485651688E+02  0.14688001654E+03  0.20949216780E+03  0.99405421327E+02 0.  0.
         23    2    1    2    0    0  0.80173344088E+02  0.77485651688E+02  0.43144207635E+03  0.46284114821E+03  0.12509145418E+03 0.  0.
          5    1    4    4  502    0 -0.19682903683E+02 -0.15585842208E+02  0.33203244323E+02  0.41836144759E+02  0.41800000000E+01 0. -1.
         -5    1    4    4    0  502  0.99856247771E+02  0.93071493896E+02  0.39823883202E+03  0.42100500345E+03  0.41800000000E+01 0. -1.
        -11    1    3    3    0    0 -0.51967148183E+02  0.13513070843E+02  0.60513407539E+02  0.80901545510E+02  0.00000000000E+00 0. -1.
         11    1    3    3    0    0 -0.28206195905E+02 -0.90998722530E+02  0.86366609000E+02  0.12859062229E+03  0.00000000000E+00 0.  1.
</event>
<event>
 8    1  0.5900800E-006  0.8658691E+02  0.7561462E-02  0.1311334E+00
         -2   -1    0    0    0  501 -0.00000000000E+00  0.00000000000E+00  0.27795812375E+03  0.27795812375E+03  0.00000000000E+00 0. -1.
          2   -1    0    0  501    0  0.00000000000E+00 -0.00000000000E+00 -0.75413436798E+02  0.75413436798E+02  0.00000000000E+00 0.  1.
         23    2    1    2    0    0  0.60848493823E+02  0.29976465990E+02  0.17432456171E+03  0.20830247021E+03  0.91650087640E+02 0.  0.
         23    2    1    2    0    0 -0.60848493823E+02 -0.29976465990E+02  0.28220125242E+02  0.14506909034E+03  0.12509011868E+03 0.  0.
          5    1    4    4  502    0  0.94782582234E+01 -0.24712598483E+02  0.61419247161E+02  0.67010045699E+02  0.41800000000E+01 0.  1.
         -5    1    4    4    0  502 -0.70326752046E+02 -0.52638675078E+01 -0.33199121920E+02  0.78059044644E+02  0.41800000000E+01 0.  1.
        -11    1    3    3    0    0  0.51228592155E+02  0.81428803322E+01  0.17685936597E+03  0.18430927943E+03  0.00000000000E+00 0. -1.
         11    1    3    3    0    0  0.96199016675E+01  0.21833585658E+02 -0.25348042588E+01  0.23993190772E+02  0.00000000000E+00 0.  1.
</event>
<event>
 8    1  0.5900800E-006  0.2071148E+03  0.7561462E-02  0.1143871E+00
         -2   -1    0    0    0  501 -0.00000000000E+00  0.00000000000E+00  0.30932638511E+03  0.30932638511E+03  0.00000000000E+00 0. -1.
          2   -1    0    0  501    0  0.00000000000E+00 -0.00000000000E+00 -0.22321281080E+03  0.22321281080E+03  0.00000000000E+00 0.  1.
         23    2    1    2    0    0  0.13385948816E+02 -0.18700395078E+03  0.19349087072E+03  0.28288544764E+03  0.86231074458E+02 0.  0.
         23    2    1    2    0    0 -0.13385948816E+02  0.18700395078E+03 -0.10737729641E+03  0.24965374827E+03  0.12508976381E+03 0.  0.
          5    1    4    4  502    0  0.18768483732E+02 -0.11902284555E+02 -0.19242270030E+02  0.29692721585E+02  0.41800000000E+01 0.  1.
         -5    1    4    4    0  502 -0.32154432547E+02  0.19890623533E+03 -0.88135026382E+02  0.21996102669E+03  0.41800000000E+01 0.  1.
        -11    1    3    3    0    0  0.23497578223E+02 -0.11525902521E+03  0.62527505107E+02  0.13321586981E+03  0.00000000000E+00 0.  1.
         11    1    3    3    0    0 -0.10111629407E+02 -0.71744925564E+02  0.13096336562E+03  0.14966957783E+03  0.00000000000E+00 0. -1.
</event>
<event>
 8    1  0.5900800E-006  0.1566996E+03  0.7561462E-02  0.1192474E+00
          2   -1    0    0  501    0  0.00000000000E+00  0.00000000000E+00  0.15227596026E+03  0.15227596026E+03  0.00000000000E+00 0. -1.
         -2   -1    0    0    0  501 -0.00000000000E+00 -0.00000000000E+00 -0.21138424889E+03  0.21138424889E+03  0.00000000000E+00 0.  1.
         23    2    1    2    0    0 -0.54493076522E+02 -0.12078447546E+03 -0.80228955973E+02  0.18020692325E+03  0.92084010069E+02 0.  0.
         23    2    1    2    0    0  0.54493076522E+02  0.12078447546E+03  0.21120667339E+02  0.18345328590E+03  0.12510252043E+03 0.  0.
          5    1    4    4  502    0 -0.28050146371E+02  0.41291017819E+02  0.43820688543E+02  0.66554368815E+02  0.41800000000E+01 0.  1.
         -5    1    4    4    0  502  0.82543222894E+02  0.79493457642E+02 -0.22700021204E+02  0.11689891709E+03  0.41800000000E+01 0.  1.
        -11    1    3    3    0    0 -0.32662677691E+02 -0.78293063526E+01  0.88174353158E+01  0.34726009236E+02  0.00000000000E+00 0.  1.
         11    1    3    3    0    0 -0.21830398831E+02 -0.11295516911E+03 -0.89046391289E+02  0.14548091402E+03  0.00000000000E+00 0. -1.
</event>
<event>
 8    1  0.5900800E-006  0.9816737E+02  0.7561462E-02  0.1284198E+00
          1   -1    0    0  501    0  0.00000000000E+00  0.00000000000E+00  0.26727552433E+03  0.26727552433E+03  0.00000000000E+00 0. -1.
         -1   -1    0    0    0  501 -0.00000000000E+00 -0.00000000000E+00 -0.56351237066E+02  0.56351237066E+02  0.00000000000E+00 0.  1.
         23    2    1    2    0    0 -0.29990030459E+02 -0.40245270390E+02  0.60681556893E+02  0.12178726014E+03  0.92902107989E+02 0.  0.
         23    2    1    2    0    0  0.29990030459E+02  0.40245270390E+02  0.15024273037E+03  0.20183950126E+03  0.12508885851E+03 0.  0.
          5    1    4    4  502    0  0.60760157444E+02 -0.20545151692E+02  0.91268555114E+02  0.11163028954E+03  0.41800000000E+01 0.  1.
         -5    1    4    4    0  502 -0.30770126985E+02  0.60790422082E+02  0.58974175259E+02  0.90209211720E+02  0.41800000000E+01 0.  1.
        -11    1    3    3    0    0  0.21052626623E+01 -0.30046120188E+02 -0.18772395261E+02  0.35490904371E+02  0.00000000000E+00 0.  1.
         11    1    3    3    0    0 -0.32095293121E+02 -0.10199150202E+02  0.79453952154E+02  0.86296355765E+02  0.00000000000E+00 0. -1.
</event>
<event>
 8    1  0.5900800E-006  0.1400633E+03  0.7561462E-02  0.1213244E+00
         -1   -1    0    0    0  501 -0.00000000000E+00  0.00000000000E+00  0.11305013053E+03  0.11305013053E+03  0.00000000000E+00 0.  1.
          1   -1    0    0  501    0  0.00000000000E+00 -0.00000000000E+00 -0.19080828936E+03  0.19080828936E+03  0.00000000000E+00 0. -1.
         23    2    1    2    0    0  0.12858119283E+02  0.95298789396E+02 -0.65828209820E+02  0.14563011219E+03  0.87336051419E+02 0.  0.
         23    2    1    2    0    0 -0.12858119283E+02 -0.95298789396E+02 -0.11929949013E+02  0.15822830770E+03  0.12508670266E+03 0.  0.
          5    1    4    4  502    0  0.49733835281E+02 -0.77412238846E+02 -0.12796370538E+02  0.92991013511E+02  0.41800000000E+01 0. -1.
         -5    1    4    4    0  502 -0.62591954564E+02 -0.17886550550E+02  0.86642152490E+00  0.65237294188E+02  0.41800000000E+01 0. -1.
        -11    1    3    3    0    0 -0.32121079851E+02  0.34200382887E+02 -0.28119570994E+01  0.47003585642E+02  0.00000000000E+00 0.  1.
         11    1    3    3    0    0  0.44979199134E+02  0.61098406509E+02 -0.63016252720E+02  0.98626526551E+02  0.00000000000E+00 0. -1.
</event>
<event>
 8    1  0.5900800E-006  0.1148093E+03  0.7561462E-02  0.1251914E+00
          2   -1    0    0  501    0  0.00000000000E+00  0.00000000000E+00  0.56312973533E+03  0.56312973533E+03  0.00000000000E+00 0. -1.
         -2   -1    0    0    0  501 -0.00000000000E+00 -0.00000000000E+00 -0.24901954981E+02  0.24901954981E+02  0.00000000000E+00 0.  1.
         23    2    1    2    0    0  0.24499493863E+02 -0.41225023006E+02  0.21388002809E+03  0.23710662186E+03  0.90416569239E+02 0.  0.
         23    2    1    2    0    0 -0.24499493863E+02  0.41225023006E+02  0.32434775226E+03  0.35092506845E+03  0.12508881465E+03 0.  0.
          5    1    4    4  502    0  0.48433918736E+02  0.22430131983E+02  0.18348736194E+03  0.19113879694E+03  0.41800000000E+01 0.  1.
         -5    1    4    4    0  502 -0.72933412599E+02  0.18794891023E+02  0.14086039032E+03  0.15978627151E+03  0.41800000000E+01 0.  1.
        -11    1    3    3    0    0 -0.31485928117E+02 -0.30117084859E+02  0.71735401704E+02  0.83930747211E+02  0.00000000000E+00 0.  1.
         11    1    3    3    0    0  0.55985421980E+02 -0.11107938146E+02  0.14214462639E+03  0.15317587465E+03  0.00000000000E+00 0. -1.
</event>
<event>
 8    1  0.5900800E-006  0.1753302E+03  0.7561462E-02  0.1172401E+00
         -2   -1    0    0    0  501 -0.00000000000E+00  0.00000000000E+00  0.77290345677E+02  0.77290345677E+02  0.00000000000E+00 0.  1.
          2   -1    0    0  501    0  0.00000000000E+00 -0.00000000000E+00 -0.42576768077E+03  0.42576768077E+03  0.00000000000E+00 0. -1.
         23    2    1    2    0    0 -0.11175046987E+03 -0.92468018073E+02 -0.16206346483E+03  0.23578393070E+03  0.91054892576E+02 0.  0.
         23    2    1    2    0    0  0.11175046987E+03  0.92468018073E+02 -0.18641387027E+03  0.26727409575E+03  0.12508720697E+03 0.  0.
          5    1    4    4  502    0  0.42175414057E+02  0.10087095228E+03 -0.15651753305E+03  0.19096838774E+03  0.41800000000E+01 0. -1.
         -5    1    4    4    0  502  0.69575055814E+02 -0.84029342118E+01 -0.29896337219E+02  0.76305708004E+02  0.41800000000E+01 0. -1.
        -11    1    3    3    0    0 -0.51630878517E+02  0.96657561938E+01 -0.44383658388E+02  0.68768332764E+02  0.00000000000E+00 0. -1.
         11    1    3    3    0    0 -0.60119591354E+02 -0.10213377427E+03 -0.11767980644E+03  0.16701559793E+03  0.00000000000E+00 0.  1.
</event>
<event>
 7    1  0.5900800E-006  0.1173476E+03  0.7561462E-02  0.1247538E+00
          2   -1    0    0  501    0  0.00000000000E+00  0.00000000000E+00  0.33273409153E+03  0.33273409153E+03  0.00000000000E+00 0. -1.
         -2   -1    0    0    0  501 -0.00000000000E+00 -0.00000000000E+00 -0.66918380412E+02  0.66918380412E+02  0.00000000000E+00 0.  1.
         23    2    1    2    0    0  0.53425630463E+02 -0.19403328927E+02  0.54392108558E+02  0.12097682104E+03  0.91902680008E+02 0.  0.
          5    1    1    2  502    0 -0.62207115032E+02 -0.34966721158E+02  0.21169889599E+03  0.22344192023E+03  0.41800000000E+01 0. -1.
         -5    1    1    2    0  502  0.87814845695E+01  0.54370050085E+02 -0.27529343433E+00  0.55233730672E+02  0.41800000000E+01 0.  1.
        -11    1    3    3    0    0  0.79981858230E+01  0.35688137882E+02  0.16220824474E+02  0.40009115319E+02  0.00000000000E+00 0. -1.
         11    1    3    3    0    0  0.45427444640E+02 -0.55091466809E+02  0.38171284084E+02  0.80967705725E+02  0.00000000000E+00 0.  1.
</event>
<event>
 8    1  0.5900800E-006  0.1991788E+03  0.7561462E-02  0.1150434E+00
         -2   -1    0    0    0  501 -0.00000000000E+00  0.00000000000E+00  0.69466191763E+02  0.69466191763E+02  0.00000000000E+00 0.  1.
          2   -1    0    0  501    0  0.00000000000E+00 -0.00000000000E+00 -0.69026256694E+03  0.69026256694E+03  0.00000000000E+00 0. -1.
         23    2    1    2    0    0  0.14554486400E+03 -0.98455134083E+02 -0.17601936523E+03  0.26540961421E+03  0.92643000373E+02 0.  0.
         23    2    1    2    0    0 -0.14554486400E+03  0.98455134083E+02 -0.44477700995E+03  0.49431914449E+03  0.12509239453E+03 0.  0.
          5    1    4    4  502    0 -0.15483669431E+03  0.70563739505E+02 -0.28622349364E+03  0.33300901481E+03  0.41800000000E+01 0.  1.
         -5    1    4    4    0  502  0.92918303136E+01  0.27891394578E+02 -0.15855351631E+03  0.16131012968E+03  0.41800000000E+01 0.  1.
        -11    1    3    3    0    0 -0.50239625877E+01 -0.34503372878E+02 -0.26620323060E+02  0.43867579599E+02  0.00000000000E+00 0.  1.
         11    1    3    3    0    0  0.15056882658E+03 -0.63951761205E+02 -0.14939904217E+03  0.22154203462E+03  0.00000000000E+00 0. -1.
</event>
<event>
 8    1  0.5900800E-006  0.1820518E+03  0.7561462E-02  0.1165832E+00
         -1   -1    0    0    0  501 -0.00000000000E+00  0.00000000000E+00  0.12779250765E+03  0.12779250765E+03  0.00000000000E+00 0.  1.
          1   -1    0    0  501    0  0.00000000000E+00 -0.00000000000E+00 -0.29171065825E+03  0.29171065825E+03  0.00000000000E+00 0. -1.
         23    2    1    2    0    0  0.33908308581E+02  0.14701451851E+03 -0.23669690509E+02  0.17850523036E+03  0.92416562235E+02 0.  0.
         23    2    1    2    0    0 -0.33908308581E+02 -0.14701451851E+03 -0.14024846010E+03  0.24099793554E+03  0.12508929742E+03 0.  0.
          5    1    4    4  502    0  0.86930863521E+01 -0.15248399891E+03 -0.11143254974E+03  0.18910744358E+03  0.41800000000E+01 0.  1.
         -5    1    4    4    0  502 -0.42601394933E+02  0.54694804016E+01 -0.28815910357E+02  0.51890491959E+02  0.41800000000E+01 0.  1.
        -11    1    3    3    0    0 -0.91068642461E+01  0.11288218498E+03 -0.41740490840E+02  0.12069627682E+03  0.00000000000E+00 0. -1.
         11    1    3    3    0    0  0.43015172827E+02  0.34132333529E+02  0.18070800331E+02  0.57808953546E+02  0.00000000000E+00 0.  1.
</event>
<event>
 8    1  0.5900800E-006  0.1058536E+03  0.7561462E-02  0.1268447E+00
          1   -1    0    0  501    0  0.00000000000E+00  0.00000000000E+00  0.13213699467E+03  0.13213699467E+03  0.00000000000E+00 0. -1.
         -1   -1    0    0    0  501 -0.00000000000E+00 -0.00000000000E+00 -0.12280899651E+03  0.12280899651E+03  0.00000000000E+00 0.  1.
         23    2    1    2    0    0  0.21751187878E+02 -0.51676701586E+02 -0.34599355702E+02  0.11099993075E+03  0.89332376833E+02 0.  0.
         23    2    1    2    0    0 -0.21751187878E+02  0.51676701586E+02  0.43927353866E+02  0.14394606043E+03  0.12508900925E+03 0.  0.
          5    1    4    4  502    0 -0.26451160725E+02  0.79982484897E+02 -0.77373241593E+01  0.84700651586E+02  0.41800000000E+01 0. -1.
         -5    1    4    4    0  502  0.46999728468E+01 -0.28305783311E+02  0.51664678026E+02  0.59245408844E+02  0.41800000000E+01 0. -1.
        -11    1    3    3    0    0 -0.30383093529E+02 -0.11274474423E+02  0.68183540683E+01  0.33117006176E+02  0.00000000000E+00 0. -1.
         11    1    3    3    0    0  0.52134281407E+02 -0.40402227163E+02 -0.41417709771E+02  0.77882924574E+02  0.00000000000E+00 0.  1.
</event>
<event>
 8    1  0.6382600E-006  0.1669372E+03  0.7561462E-02  0.1181080E+00
         -2   -1    0    0    0  501 -0.00000000000E+00  0.00000000000E+00  0.92723111940E+02  0.92723111940E+02  0.00000000000E+00 0.  1.
          2   -1    0    0  501    0  0.00000000000E+00 -0.00000000000E+00 -0.59634761718E+03  0.59634761718E+03  0.00000000000E+00 0. -1.
         23    2    1    2    0    0 -0.73122654257E+01  0.14424100550E+03 -0.18075074762E+02  0.16728122325E+03  0.82446118342E+02 0.  0.
         23    2    1    2    0    0  0.73122654257E+01 -0.14424100550E+03 -0.48554943048E+03  0.52178950588E+03  0.12508837720E+03 0.  0.
          5    1    4    4  502    0 -0.47254507815E+02 -0.87568073237E+02 -0.17452140874E+03  0.20093867340E+03  0.41800000000E+01 0.  1.
         -5    1    4    4    0  502  0.54566773241E+02 -0.56672932263E+02 -0.31102802174E+03  0.32085083247E+03  0.41800000000E+01 0.  1.
        -11    1    3    3    0    0 -0.27710176117E+02  0.12286864102E+03  0.10226083026E+02  0.12636902145E+03  0.00000000000E+00 0.  1.
         11    1    3    3    0    0  0.20397910691E+02  0.21372364477E+02 -0.28301157789E+02  0.40912201799E+02  0.00000000000E+00 0. -1.
</event>
<event>
 8    1  0.5900800E-006  0.1297362E+03  0.7561462E-02  0.1227848E+00
          2   -1    0    0  501    0  0.00000000000E+00  0.00000000000E+00  0.64499776893E+03  0.64499776893E+03  0.00000000000E+00 0. -1.
         -2   -1    0    0    0  501 -0.00000000000E+00 -0.00000000000E+00 -0.48962216761E+02  0.48962216761E+02  0.00000000000E+00 0.  1.
         23    2    1    2    0    0  0.10601336715E+03 -0.64832043386E+02  0.14522146219E+03  0.20989113561E+03  0.86735159319E+02 0.  0.
         23    2    1    2    0    0 -0.10601336715E+03  0.64832043386E+02  0.45081408998E+03  0.48406885008E+03  0.12508908837E+03 0.  0.
          5    1    4    4  502    0 -0.10550831654E+03  0.63576099065E+02  0.45873854504E+03  0.47500784240E+03  0.41800000000E+01 0. -1.
         -5    1    4    4    0  502 -0.50505061173E+00  0.12559443213E+01 -0.79244550608E+01  0.90610076851E+01  0.41800000000E+01 0. -1.
        -11    1    3    3    0    0  0.63061593330E+02 -0.62536751185E+02  0.42357015132E+02  0.98395764812E+02  0.00000000000E+00 0.  1.
         11    1    3    3    0    0  0.42951773823E+02 -0.22952922011E+01  0.10286444706E+03  0.11149537080E+03  0.00000000000E+00 0. -1.
</event>
<event>
 8    1  0.5900800E-006  0.2268122E+03  0.7561462E-02  0.1128904E+00
          2   -1    0    0  501    0  0.00000000000E+00  0.00000000000E+00  0.84759209750E+03  0.84759209750E+03  0.00000000000E+00 0. -1.
         -2   -1    0    0    0  501 -0.00000000000E+00 -0.00000000000E+00 -0.74599475190E+02  0.74599475190E+02  0.00000000000E+00 0.  1.
         23    2    1    2    0    0 -0.96827434729E+02 -0.18699172190E+03  0.21761368275E+03  0.31520213619E+03  0.87494088740E+02 0.  0.
         23    2    1    2    0    0  0.96827434729E+02  0.18699172190E+03  0.55537893956E+03  0.60698943650E+03  0.12509577668E+03 0.  0.
          5    1    4    4  502    0  0.13058131993E+02  0.11406026144E+03  0.16470326162E+03  0.20081059444E+03  0.41800000000E+01 0.  1.
         -5    1    4    4    0  502  0.83769302736E+02  0.72931460457E+02  0.39067567794E+03  0.40617884207E+03  0.41800000000E+01 0.  1.
        -11    1    3    3    0    0  0.38744843655E+01 -0.82090016282E+02  0.69371698112E+02  0.10754633839E+03  0.00000000000E+00 0. -1.
         11    1    3    3    0    0 -0.10070191909E+03 -0.10490170561E+03  0.14824198463E+03  0.20765579780E+03  0.00000000000E+00 0.  1.
</event>
<event>
 8    1  0.5900800E-006  0.1101669E+03  0.7561462E-02  0.1260261E+00
          1   -1    0    0  501    0  0.00000000000E+00  0.00000000000E+00  0.75796007731E+03  0.75796007731E+03  0.00000000000E+00 0. -1.
         -1   -1    0    0    0  501 -0.00000000000E+00 -0.00000000000E+00 -0.26047858705E+02  0.26047858705E+02  0.00000000000E+00 0.  1.
         23    2    1    2    0    0 -0.30900733894E+02 -0.20370119662E+02  0.10679938767E+03  0.14543068820E+03  0.91510538917E+02 0.  0.
         23    2    1    2    0    0  0.30900733894E+02  0.20370119662E+02  0.62511283094E+03  0.63857724782E+03  0.12508018587E+03 0.  0.
          5    1    4    4  502    0 -0.23067082775E+02  0.53372815269E+02  0.18626846891E+03  0.19517725950E+03  0.41800000000E+01 0. -1.
         -5    1    4    4    0  502  0.53967816668E+02 -0.33002695608E+02  0.43884436203E+03  0.44339998832E+03  0.41800000000E+01 0. -1.
        -11    1    3    3    0    0 -0.99151794788E+01 -0.56227870911E+02  0.59121239165E+02  0.82190055187E+02  0.00000000000E+00 0.  1.
         11    1    3    3    0    0 -0.20985554415E+02  0.35857751249E+02  0.47678148503E+02  0.63240633009E+02  0.00000000000E+00 0. -1.
</event>
<event>
 8    1  0.5900800E-006  0.1077623E+03  0.7561462E-02  0.1264771E+00
          4   -1    0    0  501    0  0.00000000000E+00  0.00000000000E+00  0.63788843552E+02  0.63788843552E+02  0.00000000000E+00 0. -1.
         -4   -1    0    0    0  501 -0.00000000000E+00 -0.00000000000E+00 -0.30611563961E+03  0.30611563961E+03  0.00000000000E+00 0.  1.
         23    2    1    2    0    0  0.39374655309E+02 -0.17874739674E+02 -0.21087844074E+03  0.23381541498E+03  0.91269171765E+02 0.  0.
         23    2    1    2    0    0 -0.39374655309E+02  0.17874739674E+02 -0.31448355322E+02  0.13608906818E+03  0.12514537797E+03 0.  0.
          5    1    4    4  502    0  0.13199365896E+01 -0.43945438054E+02  0.17229518818E+02  0.47405405568E+02  0.41800000000E+01 0.  1.
         -5    1    4    4    0  502 -0.40694591899E+02  0.61820177729E+02 -0.48677874141E+02  0.88683662616E+02  0.41800000000E+01 0.  1.
        -11    1    3    3    0    0  0.52664377536E+02  0.20581574469E+02 -0.90150204301E+02  0.10641521134E+03  0.00000000000E+00 0. -1.
         11    1    3    3    0    0 -0.13289722227E+02 -0.38456314143E+02 -0.12072823643E+03  0.12740020364E+03  0.00000000000E+00 0.  1.
</event>
<event>
 8    1  0.5900800E-006  0.1000241E+03  0.7561462E-02  0.1280245E+00
         -1   -1    0    0    0  501 -0.00000000000E+00  0.00000000000E+00  0.17539020118E+03  0.17539020118E+03  0.00000000000E+00 0.  1.
          1   -1    0    0  501    0  0.00000000000E+00 -0.00000000000E+00 -0.69630676453E+02  0.69630676453E+02  0.00000000000E+00 0. -1.
         23    2    1    2    0    0  0.87088304114E+01 -0.83812951562E+01  0.67490145534E+02  0.11365299358E+03  0.90642116981E+02 0.  0.
         23    2    1    2    0    0 -0.87088304114E+01  0.83812951562E+01  0.38269379192E+02  0.13136788405E+03  0.12508751233E+03 0.  0.
          5    1    4    4  502    0 -0.16669969675E+02  0.59247816442E+02 -0.77648314304E+01  0.62176817619E+02  0.41800000000E+01 0.  1.
         -5    1    4    4    0  502  0.79611392638E+01 -0.50866521286E+02  0.46034210623E+02  0.69191066430E+02  0.41800000000E+01 0.  1.
        -11    1    3    3    0    0 -0.22608916241E+02 -0.37598425376E+02  0.52169430861E+02  0.68164904464E+02  0.00000000000E+00 0.  1.
         11    1    3    3    0    0  0.31317746652E+02  0.29217130219E+02  0.15320714673E+02  0.45488089119E+02  0.00000000000E+00 0. -1.
</event>
<event>
 7    1  0.5900800E-006  0.1917559E+03  0.7561462E-02  0.1156887E+00
         -2   -1    0    0    0  501 -0.00000000000E+00  0.00000000000E+00  0.12060204555E+03  0.12060204555E+03  0.00000000000E+00 0.  1.
          2   -1    0    0  501    0  0.00000000000E+00 -0.00000000000E+00 -0.41243866939E+03  0.41243866939E+03  0.00000000000E+00 0. -1.
         23    2    1    2    0    0  0.51561799845E+02  0.15407792146E+02 -0.10553190220E+02  0.10386795252E+03  0.88210897705E+02 0.  0.
          5    1    1    2  502    0  0.72505492105E+02  0.11080909090E+03 -0.18530342609E+03  0.22779493658E+03  0.41800000000E+01 0. -1.
         -5    1    1    2    0  502 -0.12406729195E+03 -0.12621688304E+03 -0.95980007529E+02  0.20137782584E+03  0.41800000000E+01 0.  1.
        -11    1    3    3    0    0  0.70138994009E+01  0.27051085976E+02  0.31077141171E+02  0.41794075426E+02  0.00000000000E+00 0.  1.
         11    1    3    3    0    0  0.44547900444E+02 -0.11643293830E+02 -0.41630331391E+02  0.62073877089E+02  0.00000000000E+00 0. -1.
</event>
<event>
 8    1  0.5900800E-006  0.9014292E+02  0.7561462E-02  0.1302506E+00
          2   -1    0    0  501    0  0.00000000000E+00  0.00000000000E+00  0.21720725809E+04  0.21720725809E+04  0.00000000000E+00 0. -1.
         -2   -1    0    0    0  501 -0.00000000000E+00 -0.00000000000E+00 -0.19292203073E+02  0.19292203073E+02  0.00000000000E+00 0.  1.
         23    2    1    2    0    0 -0.39522467371E+02 -0.22986382035E+02  0.13194887614E+03  0.16665952673E+03  0.90964238838E+02 0.  0.
         23    2    1    2    0    0  0.39522467371E+02  0.22986382035E+02  0.20208315017E+04  0.20247052573E+04  0.11653763913E+03 0.  0.
          5    1    4    4  502    0  0.26261871264E+02  0.48981200091E+02  0.18797808788E+04  0.18806069415E+04  0.41800000000E+01 0. -1.
         -5    1    4    4    0  502  0.13260596107E+02 -0.25994818057E+02  0.14105062289E+03  0.14409831572E+03  0.41800000000E+01 0.  1.
        -11    1    3    3    0    0  0.25434882425E+02  0.19109903431E+01  0.66184000870E+02  0.70928887622E+02  0.00000000000E+00 0. -1.
         11    1    3    3    0    0 -0.64957349796E+02 -0.24897372378E+02  0.65764875274E+02  0.95730639106E+02  0.00000000000E+00 0.  1.
</event>
<event>
 8    1  0.5900800E-006  0.2786890E+03  0.7561462E-02  0.1096407E+00
         -2   -1    0    0    0  501 -0.00000000000E+00  0.00000000000E+00  0.73511091813E+02  0.73511091813E+02  0.00000000000E+00 0.  1.
          2   -1    0    0  501    0  0.00000000000E+00 -0.00000000000E+00 -0.10784007453E+04  0.10784007453E+04  0.00000000000E+00 0. -1.
         23    2    1    2    0    0 -0.27915498935E+02  0.25768200375E+03 -0.50142846067E+03  0.57199734192E+03  0.92580601891E+02 0.  0.
         23    2    1    2    0    0  0.27915498935E+02 -0.25768200375E+03 -0.50346119278E+03  0.57991449517E+03  0.12509340083E+03 0.  0.
          5    1    4    4  502    0  0.75615899638E+02 -0.11970907848E+03 -0.25551439465E+03  0.29215253896E+03  0.41800000000E+01 0.  1.
         -5    1    4    4    0  502 -0.47700400703E+02 -0.13797292528E+03 -0.24794679813E+03  0.28776195621E+03  0.41800000000E+01 0.  1.
        -11    1    3    3    0    0 -0.46652033971E+02  0.94115785645E+02 -0.14174272155E+03  0.17642333319E+03  0.00000000000E+00 0.  1.
         11    1    3    3    0    0  0.18736535036E+02  0.16356621811E+03 -0.35968573912E+03  0.39557400872E+03  0.00000000000E+00 0. -1.
</event>
<event>
 8    1  0.5900800E-006  0.1182418E+03  0.7561462E-02  0.1246026E+00
          2   -1    0    0  501    0  0.00000000000E+00  0.00000000000E+00  0.58798515741E+03  0.58798515741E+03  0.00000000000E+00 0. -1.
         -2   -1    0    0    0  501 -0.00000000000E+00 -0.00000000000E+00 -0.38842751622E+02  0.38842751622E+02  0.00000000000E+00 0.  1.
         23    2    1    2    0    0  0.10546592205E+03  0.14055741661E+02  0.26556664041E+03  0.30106845730E+03  0.93786730933E+02 0.  0.
         23    2    1    2    0    0 -0.10546592205E+03 -0.14055741661E+02  0.28357576538E+03  0.32575945172E+03  0.11993073455E+03 0.  0.
          5    1    4    4  502    0 -0.10290554636E+03 -0.13253654538E+02  0.10696131235E+03  0.14907516751E+03  0.41800000000E+01 0. -1.
         -5    1    4    4    0  502 -0.25603756914E+01 -0.80208712338E+00  0.17661445303E+03  0.17668428421E+03  0.41800000000E+01 0.  1.
        -11    1    3    3    0    0  0.62299291850E+02 -0.27188734636E+02  0.74308376651E+02  0.10070831096E+03  0.00000000000E+00 0.  1.
         11    1    3    3    0    0  0.43166630201E+02  0.41244476297E+02  0.19125826375E+03  0.20036014634E+03  0.00000000000E+00 0. -1.
</event>
<event>
 8    1  0.5900800E-006  0.1507962E+03  0.7561462E-02  0.1199498E+00
         -3   -1    0    0    0  501 -0.00000000000E+00  0.00000000000E+00  0.50083009449E+03  0.50083009449E+03  0.00000000000E+00 0.  1.
          3   -1    0    0  501    0  0.00000000000E+00 -0.00000000000E+00 -0.60918425028E+02  0.60918425028E+02  0.00000000000E+00 0. -1.
         23    2    1    2    0    0 -0.51211774555E+02  0.93739992851E+02  0.34366645946E+03  0.37116092104E+03  0.90796265563E+02 0.  0.
         23    2    1    2    0    0  0.51211774555E+02 -0.93739992851E+02  0.96245210006E+02  0.19058759848E+03  0.12510259842E+03 0.  0.
          5    1    4    4  502    0  0.82127978612E+02 -0.10311968132E+03  0.78604231281E+02  0.15354078000E+03  0.41800000000E+01 0. -1.
         -5    1    4    4    0  502 -0.30916204058E+02  0.93796884699E+01  0.17640978725E+02  0.37046818480E+02  0.41800000000E+01 0. -1.
        -11    1    3    3    0    0 -0.62815721544E+02  0.25324630277E+02  0.13121020750E+03  0.14765930491E+03  0.00000000000E+00 0. -1.
         11    1    3    3    0    0  0.11603946989E+02  0.68415362574E+02  0.21245625196E+03  0.22350161614E+03  0.00000000000E+00 0.  1.
</event>
<event>
 8    1  0.5900800E-006  0.1090833E+03  0.7561462E-02  0.1262277E+00
         -1   -1    0    0    0  501 -0.00000000000E+00  0.00000000000E+00  0.29896148336E+03  0.29896148336E+03  0.00000000000E+00 0.  1.
          1   -1    0    0  501    0  0.00000000000E+00 -0.00000000000E+00 -0.65043271372E+02  0.65043271372E+02  0.00000000000E+00 0. -1.
         23    2    1    2    0    0 -0.10936549623E+02 -0.45830540252E+02  0.20201171141E+03  0.22657935056E+03  0.91156042145E+02 0.  0.
         23    2    1    2    0    0  0.10936549623E+02  0.45830540252E+02  0.31906500580E+02  0.13742540417E+03  0.12509064870E+03 0.  0.
          5    1    4    4  502    0 -0.47539424495E+02  0.25735007897E+02 -0.18763253253E+02  0.57374380916E+02  0.41800000000E+01 0. -1.
         -5    1    4    4    0  502  0.58475974118E+02  0.20095532356E+02  0.50669753833E+02  0.80051023249E+02  0.41800000000E+01 0. -1.
        -11    1    3    3    0    0  0.31762223097E+02  0.84924613612E+01  0.77396828170E+02  0.84090604272E+02  0.00000000000E+00 0.  1.
         11    1    3    3    0    0 -0.42698772720E+02 -0.54323001613E+02  0.12461488324E+03  0.14248874629E+03  0.00000000000E+00 0. -1.
</event>
<event>
 8    1  0.5900800E-006  0.9929898E+02  0.7561462E-02  0.1281777E+00
         -1   -1    0    0    0  501 -0.00000000000E+00  0.00000000000E+00  0.56996621357E+02  0.56996621357E+02  0.00000000000E+00 0.  1.
          1   -1    0    0  501    0  0.00000000000E+00 -0.00000000000E+00 -0.22941780805E+03  0.22941780805E+03  0.00000000000E+00 0. -1.
         23    2    1    2    0    0  0.23596954099E+02 -0.19803380222E+02 -0.48167076082E+02  0.10743451223E+03  0.90956676987E+02 0.  0.
         23    2    1    2    0    0 -0.23596954099E+02  0.19803380222E+02 -0.12425411061E+03  0.17897991718E+03  0.12508291905E+03 0.  0.
          5    1    4    4  502    0 -0.25992109674E+02 -0.46854728181E+02 -0.24881689141E+02  0.59224371442E+02  0.41800000000E+01 0.  1.
         -5    1    4    4    0  502  0.23951555752E+01  0.66658108402E+02 -0.99372421471E+02  0.11975554574E+03  0.41800000000E+01 0.  1.
        -11    1    3    3    0    0  0.22008022313E+02  0.24933354300E+02  0.93537249863E+01  0.34547320792E+02  0.00000000000E+00 0.  1.
         11    1    3    3    0    0  0.15889317854E+01 -0.44736734522E+02 -0.57520801068E+02  0.72887191436E+02  0.00000000000E+00 0. -1.
</event>
<event>
 8    1  0.5900800E-006  0.1314448E+03  0.7561462E-02  0.1225328E+00
         -2   -1    0    0    0  501 -0.00000000000E+00  0.00000000000E+00  0.34439210824E+02  0.34439210824E+02  0.00000000000E+00 0.  1.
          2   -1    0    0  501    0  0.00000000000E+00 -0.00000000000E+00 -0.60840120598E+03  0.60840120598E+03  0.00000000000E+00 0. -1.
         23    2    1    2    0    0 -0.80343910844E+02  0.52181920572E+02 -0.23689175687E+03  0.27076666524E+03  0.89547672704E+02 0.  0.
         23    2    1    2    0    0  0.80343910844E+02 -0.52181920572E+02 -0.33707023828E+03  0.37207375156E+03  0.12507771273E+03 0.  0.
          5    1    4    4  502    0  0.51327214279E+02  0.34298938862E+02 -0.18062640876E+03  0.19093001879E+03  0.41800000000E+01 0.  1.
         -5    1    4    4    0  502  0.29016696564E+02 -0.86480859434E+02 -0.15644382952E+03  0.18114373277E+03  0.41800000000E+01 0.  1.
        -11    1    3    3    0    0 -0.73383963319E+02  0.19009309821E+02 -0.79825755249E+02  0.11008501775E+03  0.00000000000E+00 0.  1.
         11    1    3    3    0    0 -0.69599475249E+01  0.33172610751E+02 -0.15706600163E+03  0.16068164749E+03  0.00000000000E+00 0. -1.
</event>
<event>
 8    1  0.5900800E-006  0.1181185E+03  0.7561462E-02  0.1246234E+00
         -1   -1    0    0    0  501 -0.00000000000E+00  0.00000000000E+00  0.27959147715E+02  0.27959147715E+02  0.00000000000E+00 0.  1.
          1   -1    0    0  501    0  0.00000000000E+00 -0.00000000000E+00 -0.63831019257E+03  0.63831019257E+03  0.00000000000E+00 0. -1.
         23    2    1    2    0    0 -0.38021204462E+02  0.70399006661E+02 -0.28222269850E+03  0.30610622822E+03  0.87462787967E+02 0.  0.
         23    2    1    2    0    0  0.38021204462E+02 -0.70399006661E+02 -0.32812834636E+03  0.36016311207E+03  0.12509046120E+03 0.  0.
          5    1    4    4  502    0  0.71348526525E+02 -0.80280457329E+02 -0.19670400035E+03  0.22415508074E+03  0.41800000000E+01 0.  1.
         -5    1    4    4    0  502 -0.33327322063E+02  0.98814506682E+01 -0.13142434601E+03  0.13600803133E+03  0.41800000000E+01 0.  1.
        -11    1    3    3    0    0 -0.30156776993E+02  0.84837524787E+01 -0.21446367921E+02  0.37965141271E+02  0.00000000000E+00 0.  1.
         11    1    3    3    0    0 -0.78644274684E+01  0.61915254182E+02 -0.26077633058E+03  0.26814108695E+03  0.00000000000E+00 0. -1.
</event>
<event>
 8    1  0.5900800E-006  0.1293682E+03  0.7561462E-02  0.1228396E+00
          2   -1    0    0  501    0  0.00000000000E+00  0.00000000000E+00  0.59314053440E+02  0.59314053440E+02  0.00000000000E+00 0. -1.
         -2   -1    0    0    0  501 -0.00000000000E+00 -0.00000000000E+00 -0.32907501132E+03  0.32907501132E+03  0.00000000000E+00 0.  1.
         23    2    1    2    0    0  0.45824104836E+02 -0.65393734750E+02 -0.17476986683E+03  0.21218594307E+03  0.90012104496E+02 0.  0.
         23    2    1    2    0    0 -0.45824104836E+02  0.65393734750E+02 -0.94991091046E+02  0.17620312169E+03  0.12509214038E+03 0.  0.
          5    1    4    4  502    0 -0.47551889102E+02  0.96169767378E+02 -0.43080280207E+02  0.11568573489E+03  0.41800000000E+01 0. -1.
         -5    1    4    4    0  502  0.17277842660E+01 -0.30776032628E+02 -0.51910810839E+02  0.60517386797E+02  0.41800000000E+01 0. -1.
        -11    1    3    3    0    0 -0.27378470180E+01 -0.71293013844E+02 -0.10699750909E+03  0.12860270830E+03  0.00000000000E+00 0. -1.
         11    1    3    3    0    0  0.48561951854E+02  0.58992790945E+01 -0.67772357739E+02  0.83583234773E+02  0.00000000000E+00 0.  1.
</event>
<event>
 8    1  0.5900800E-006  0.1042014E+03  0.7561462E-02  0.1271701E+00
         -2   -1    0    0    0  501 -0.00000000000E+00  0.00000000000E+00  0.62070566309E+02  0.62070566309E+02  0.00000000000E+00 0.  1.
          2   -1    0    0  501    0  0.00000000000E+00 -0.00000000000E+00 -0.26262288842E+03  0.26262288842E+03  0.00000000000E+00 0. -1.
         23    2    1    2    0    0 -0.87005063189E+01 -0.25904978860E+02 -0.11967751214E+02  0.96747997736E+02  0.92033587656E+02 0.  0.
         23    2    1    2    0    0  0.87005063189E+01  0.25904978860E+02 -0.18858457089E+03  0.22794545699E+03  0.12509286248E+03 0.  0.
          5    1    4    4  502    0  0.46509814368E+02 -0.30706312491E+02 -0.11346280548E+03  0.12648051663E+03  0.41800000000E+01 0.  1.
         -5    1    4    4    0  502 -0.37809308050E+02  0.56611291350E+02 -0.75121765416E+02  0.10146494036E+03  0.41800000000E+01 0.  1.
        -11    1    3    3    0    0 -0.44324698300E+02 -0.17866492654E+02  0.16377710880E+02  0.50518510002E+02  0.00000000000E+00 0.  1.
         11    1    3    3    0    0  0.35624191981E+02 -0.80384862052E+01 -0.28345462095E+02  0.46229487734E+02  0.00000000000E+00 0. -1.
</event>
<event>
 8    1  0.5900800E-006  0.9570467E+02  0.7561462E-02  0.1289597E+00
         -2   -1    0    0    0  501 -0.00000000000E+00  0.00000000000E+00  0.39360357777E+03  0.39360357777E+03  0.00000000000E+00 0.  1.
          2   -1    0    0  501    0  0.00000000000E+00 -0.00000000000E+00 -0.30241740270E+02  0.30241740270E+02  0.00000000000E+00 0. -1.
         23    2    1    2    0    0 -0.39695761804E+01 -0.19298459574E+02  0.18597397723E+03  0.20589516909E+03  0.86129625393E+02 0.  0.
         23    2    1    2    0    0  0.39695761804E+01  0.19298459574E+02  0.17738786026E+03  0.21795014895E+03  0.12509047278E+03 0.  0.
          5    1    4    4  502    0  0.28779625931E+02 -0.39165938526E+02  0.29652783058E+02  0.57087630468E+02  0.41800000000E+01 0. -1.
         -5    1    4    4    0  502 -0.24810049750E+02  0.58464398100E+02  0.14773507721E+03  0.16086251848E+03  0.41800000000E+01 0. -1.
        -11    1    3    3    0    0  0.36306597088E+02 -0.94342431212E+01  0.43162654841E+02  0.57185563810E+02  0.00000000000E+00 0.  1.
         11    1    3    3    0    0 -0.40276173269E+02 -0.98642164527E+01  0.14281132239E+03  0.14870960528E+03  0.00000000000E+00 0. -1.
</event>
<event>
 8    1  0.5900800E-006  0.2253194E+03  0.7561462E-02  0.1129978E+00
         -1   -1    0    0    0  501 -0.00000000000E+00  0.00000000000E+00  0.99300102771E+02  0.99300102771E+02  0.00000000000E+00 0.  1.
          1   -1    0    0  501    0  0.00000000000E+00 -0.00000000000E+00 -0.10109287009E+04  0.10109287009E+04  0.00000000000E+00 0. -1.
         23    2    1    2    0    0 -0.20279479923E+03  0.33945242082E+02 -0.68062248849E+02  0.23300044044E+03  0.85899507994E+02 0.  0.
         23    2    1    2    0    0  0.20279479923E+03 -0.33945242082E+02 -0.84356634930E+03  0.87722836325E+03  0.12508959013E+03 0.  0.
          5    1    4    4  502    0  0.98925344608E+02  0.46345961505E+02 -0.38111575226E+03  0.39648563779E+03  0.41800000000E+01 0. -1.
         -5    1    4    4    0  502  0.10386945462E+03 -0.80291203587E+02 -0.46245059704E+03  0.48074272546E+03  0.41800000000E+01 0. -1.
        -11    1    3    3    0    0 -0.10725282337E+03  0.39415166049E+02 -0.75591050871E+02  0.13700631521E+03  0.00000000000E+00 0. -1.
         11    1    3    3    0    0 -0.95541975861E+02 -0.54699239669E+01  0.75288020221E+01  0.95994125234E+02  0.00000000000E+00 0.  1.
</event>
<event>
 8    1  0.5900800E-006  0.1134023E+03  0.7561462E-02  0.1254396E+00
         -2   -1    0    0    0  501 -0.00000000000E+00  0.00000000000E+00  0.85909154838E+02  0.85909154838E+02  0.00000000000E+00 0.  1.
          2   -1    0    0  501    0  0.00000000000E+00 -0.00000000000E+00 -0.17392338836E+03  0.17392338836E+03  0.00000000000E+00 0. -1.
         23    2    1    2    0    0 -0.36361993929E+02  0.42751124214E+02 -0.26447466810E+02  0.10954279043E+03  0.90279018664E+02 0.  0.
         23    2    1    2    0    0  0.36361993929E+02 -0.42751124214E+02 -0.61566766711E+02  0.15028975277E+03  0.12508672911E+03 0.  0.
          5    1    4    4  502    0 -0.45197324968E+02 -0.16604958545E+02 -0.37653365073E+02  0.61268027012E+02  0.41800000000E+01 0. -1.
         -5    1    4    4    0  502  0.81559318898E+02 -0.26146165669E+02 -0.23913401638E+02  0.89021725753E+02  0.41800000000E+01 0. -1.
        -11    1    3    3    0    0  0.22894205188E+02  0.96191293522E+01 -0.33042108894E+02  0.41333439742E+02  0.00000000000E+00 0. -1.
         11    1    3    3    0    0 -0.59256199118E+02  0.33131994862E+02  0.65946420842E+01  0.68209350690E+02  0.00000000000E+00 0.  1.
</event>
<event>
 8    1  0.5900800E-006  0.1579976E+03  0.7561462E-02  0.1190976E+00
         -1   -1    0    0    0  501 -0.00000000000E+00  0.00000000000E+00  0.24366437956E+03  0.24366437956E+03  0.00000000000E+00 0.  1.
          1   -1    0    0  501    0  0.00000000000E+00 -0.00000000000E+00 -0.13198202312E+03  0.13198202312E+03  0.00000000000E+00 0. -1.
         23    2    1    2    0    0  0.86164142936E+02 -0.92127377893E+02  0.11783522844E+03  0.19789151670E+03  0.96768786466E+02 0.  0.
         23    2    1    2    0    0 -0.86164142936E+02  0.92127377893E+02 -0.61528720006E+01  0.17775488599E+03  0.12508888189E+03 0.  0.
          5    1    4    4  502    0 -0.11719008931E+02 -0.30631117520E+02  0.60428360514E+01  0.33609355816E+02  0.41800000000E+01 0.  1.
         -5    1    4    4    0  502 -0.74445134005E+02  0.12275849541E+03 -0.12195708052E+02  0.14414553017E+03  0.41800000000E+01 0.  1.
        -11    1    3    3    0    0  0.56752728513E+02 -0.17972817753E+02  0.50491107502E+01  0.59744354470E+02  0.00000000000E+00 0. -1.
         11    1    3    3    0    0  0.29411414423E+02 -0.74154560140E+02  0.11278611769E+03  0.13814716223E+03  0.00000000000E+00 0.  1.
</event>
<event>
 8    1  0.5900800E-006  0.9800967E+02  0.7561462E-02  0.1284538E+00
          1   -1    0    0  501    0  0.00000000000E+00  0.00000000000E+00  0.13808133984E+03  0.13808133984E+03  0.00000000000E+00 0. -1.
         -1   -1    0    0    0  501 -0.00000000000E+00 -0.00000000000E+00 -0.14493856468E+03  0.14493856468E+03  0.00000000000E+00 0.  1.
         23    2    1    2    0    0 -0.53470867264E+02  0.51252242760E+02 -0.54861659554E+02  0.13071968377E+03  0.92692545557E+02 0.  0.
         23    2    1    2    0    0  0.53470867264E+02 -0.51252242760E+02  0.48004434707E+02  0.15230022075E+03  0.12411690238E+03 0.  0.
          5    1    4    4  502    0  0.10408861819E+02 -0.24051643375E+02 -0.41484573279E+02  0.49247011823E+02  0.41800000000E+01 0. -1.
         -5    1    4    4    0  502  0.43062005445E+02 -0.27200599385E+02  0.89489007986E+02  0.10305320893E+03  0.41800000000E+01 0. -1.
        -11    1    3    3    0    0  0.32435621810E+01  0.60780381064E+02 -0.32642420576E+02  0.69067380426E+02  0.00000000000E+00 0.  1.
         11    1    3    3    0    0 -0.56714429445E+02 -0.95281383033E+01 -0.22219238978E+02  0.61652303343E+02  0.00000000000E+00 0. -1.
</event>
<event>
 8    1  0.5900800E-006  0.1096119E+03  0.7561462E-02  0.1261290E+00
          1   -1    0    0  501    0  0.00000000000E+00  0.00000000000E+00  0.35563199287E+04  0.35563199287E+04  0.00000000000E+00 0. -1.
         -1   -1    0    0    0  501 -0.00000000000E+00 -0.00000000000E+00 -0.57565805980E+01  0.57565805980E+01  0.00000000000E+00 0.  1.
         23    2    1    2    0    0  0.15740605256E+02  0.10970301408E+02  0.48558995378E+03  0.49449162340E+03  0.91412516843E+02 0.  0.
         23    2    1    2    0    0 -0.15740605256E+02 -0.10970301408E+02  0.30649733943E+04  0.30675848859E+04  0.12508800946E+03 0.  0.
          5    1    4    4  502    0 -0.68762097148E+02  0.82684559841E+01  0.18365318736E+04  0.18378420467E+04  0.41800000000E+01 0. -1.
         -5    1    4    4    0  502  0.53021491892E+02 -0.19238757392E+02  0.12284415207E+04  0.12297428392E+04  0.41800000000E+01 0. -1.
        -11    1    3    3    0    0 -0.34305121075E+02 -0.14361476024E+02  0.18132074858E+03  0.18509540025E+03  0.00000000000E+00 0.  1.
         11    1    3    3    0    0  0.50045726331E+02  0.25331777432E+02  0.30426920520E+03  0.30939622316E+03  0.00000000000E+00 0. -1.
</event>
<event>
 8    1  0.5900800E-006  0.1455271E+03  0.7561462E-02  0.1206080E+00
          1   -1    0    0  501    0  0.00000000000E+00  0.00000000000E+00  0.12567297795E+03  0.12567297795E+03  0.00000000000E+00 0. -1.
         -1   -1    0    0    0  501 -0.00000000000E+00 -0.00000000000E+00 -0.19848379664E+03  0.19848379664E+03  0.00000000000E+00 0.  1.
         23    2    1    2    0    0 -0.92589484436E+02 -0.57210110306E+02 -0.71456832933E+02  0.15834337395E+03  0.90115124984E+02 0.  0.
         23    2    1    2    0    0  0.92589484436E+02  0.57210110306E+02 -0.13539857601E+01  0.16581340064E+03  0.12508573542E+03 0.  0.
          5    1    4    4  502    0  0.87846156419E+02 -0.18411347263E+02  0.16748615273E+01  0.89867694234E+02  0.41800000000E+01 0.  1.
         -5    1    4    4    0  502  0.47433280165E+01  0.75621457569E+02 -0.30288472874E+01  0.75945706405E+02  0.41800000000E+01 0.  1.
        -11    1    3    3    0    0 -0.10203844581E+03 -0.51929159673E+02 -0.83831776267E+02  0.14190225072E+03  0.00000000000E+00 0. -1.
         11    1    3    3    0    0  0.94489613694E+01 -0.52809506324E+01  0.12374943334E+02  0.16441123230E+02  0.00000000000E+00 0.  1.
</event>
<event>
 8    1  0.5900800E-006  0.9418236E+02  0.7561462E-02  0.1293028E+00
          3   -1    0    0  501    0  0.00000000000E+00  0.00000000000E+00  0.17304092056E+03  0.17304092056E+03  0.00000000000E+00 0. -1.
         -3   -1    0    0    0  501 -0.00000000000E+00 -0.00000000000E+00 -0.10493774360E+03  0.10493774360E+03  0.00000000000E+00 0.  1.
         23    2    1    2    0    0 -0.25117359142E+02  0.63300987116E+02 -0.17518475760E+02  0.11179768391E+03  0.86913338641E+02 0.  0.
         23    2    1    2    0    0  0.25117359142E+02 -0.63300987116E+02  0.85621652716E+02  0.16618098025E+03  0.12508858495E+03 0.  0.
          5    1    4    4  502    0 -0.97692422568E+01 -0.28424510074E+02 -0.28595520163E+02  0.41696127405E+02  0.41800000000E+01 0. -1.
         -5    1    4    4    0  502  0.34886601399E+02 -0.34876477042E+02  0.11421717288E+03  0.12448485285E+03  0.41800000000E+01 0. -1.
        -11    1    3    3    0    0  0.18997334857E+02  0.61492911882E+02 -0.20497081199E+02  0.67545594091E+02  0.00000000000E+00 0. -1.
         11    1    3    3    0    0 -0.44114693999E+02  0.18080752339E+01  0.29786054394E+01  0.44252089815E+02  0.00000000000E+00 0.  1.
</event>
<event>
 8    1  0.5900800E-006  0.8875183E+02  0.7561462E-02  0.1305903E+00
         -1   -1    0    0    0  501 -0.00000000000E+00  0.00000000000E+00  0.40982324225E+02  0.40982324225E+02  0.00000000000E+00 0. -1.
          1   -1    0    0  501    0  0.00000000000E+00 -0.00000000000E+00 -0.34700775705E+03  0.34700775705E+03  0.00000000000E+00 0.  1.
         23    2    1    2    0    0 -0.66461253389E+01 -0.49522493182E+02 -0.14113451164E+03  0.17507343581E+03  0.90747502650E+02 0.  0.
         23    2    1    2    0    0  0.66461253389E+01  0.49522493182E+02 -0.16489092119E+03  0.21291664547E+03  0.12509130151E+03 0.  0.
          5    1    4    4  502    0 -0.45013384589E+02  0.37449909429E+02 -0.26045839274E+02  0.64222726911E+02  0.41800000000E+01 0.  1.
         -5    1    4    4    0  502  0.51659509927E+02  0.12072583753E+02 -0.13884508191E+03  0.14869391856E+03  0.41800000000E+01 0.  1.
        -11    1    3    3    0    0  0.17515745639E+02 -0.13087020277E+02  0.50931013979E+01  0.22450192135E+02  0.00000000000E+00 0. -1.
         11    1    3    3    0    0 -0.24161870978E+02 -0.36435472904E+02 -0.14622761304E+03  0.15262324367E+03  0.00000000000E+00 0.  1.
</event>
<event>
 8    1  0.5900800E-006  0.1094148E+03  0.7561462E-02  0.1261657E+00
         -1   -1    0    0    0  501 -0.00000000000E+00  0.00000000000E+00  0.35685276078E+03  0.35685276078E+03  0.00000000000E+00 0.  1.
          1   -1    0    0  501    0  0.00000000000E+00 -0.00000000000E+00 -0.50780154738E+02  0.50780154738E+02  0.00000000000E+00 0. -1.
         23    2    1    2    0    0 -0.10649586666E+02 -0.47057790071E+02  0.23420543529E+03  0.25551516732E+03  0.90044241950E+02 0.  0.
         23    2    1    2    0    0  0.10649586666E+02  0.47057790071E+02  0.71867170758E+02  0.15211774820E+03  0.12508824798E+03 0.  0.
          5    1    4    4  502    0  0.67826064260E+02  0.22090644320E+02  0.41034899939E+02  0.82399678230E+02  0.41800000000E+01 0. -1.
         -5    1    4    4    0  502 -0.57176477593E+02  0.24967145751E+02  0.30832270819E+02  0.69718069973E+02  0.41800000000E+01 0. -1.
        -11    1    3    3    0    0 -0.35921200870E+02 -0.47519612427E+02  0.21677816249E+03  0.22481374061E+03  0.00000000000E+00 0.  1.
         11    1    3    3    0    0  0.25271614204E+02  0.46182235611E+00  0.17427272798E+02  0.30701426702E+02  0.00000000000E+00 0. -1.
</event>
<event>
 8    1  0.5900800E-006  0.7277859E+02  0.7561462E-02  0.1350891E+00
          1   -1    0    0  501    0  0.00000000000E+00  0.00000000000E+00  0.21367596732E+03  0.21367596732E+03  0.00000000000E+00 0. -1.
         -1   -1    0    0    0  501 -0.00000000000E+00 -0.00000000000E+00 -0.77885227330E+02  0.77885227330E+02  0.00000000000E+00 0.  1.
         23    2    1    2    0    0 -0.28378096126E+02  0.20905807961E+02 -0.52329091609E+01  0.99786633696E+02  0.93207401959E+02 0.  0.
         23    2    1    2    0    0  0.28378096126E+02 -0.20905807961E+02  0.14102364915E+03  0.19177456096E+03  0.12508974164E+03 0.  0.
          5    1    4    4  502    0 -0.22231957662E+02  0.10010283449E+02 -0.12082466529E+02  0.27530421604E+02  0.41800000000E+01 0. -1.
         -5    1    4    4    0  502  0.50610053788E+02 -0.30916091410E+02  0.15310611568E+03  0.16424413935E+03  0.41800000000E+01 0. -1.
        -11    1    3    3    0    0 -0.42985958861E+02  0.17174758958E+02  0.34210638706E+02  0.57559819363E+02  0.00000000000E+00 0. -1.
         11    1    3    3    0    0  0.14607862736E+02  0.37310490028E+01 -0.39443547867E+02  0.42226814333E+02  0.00000000000E+00 0.  1.
</event>
<event>
 8    1  0.5900800E-006  0.1051591E+03  0.7561462E-02  0.1269806E+00
          2   -1    0    0  501    0  0.00000000000E+00  0.00000000000E+00  0.43642004436E+03  0.43642004436E+03  0.00000000000E+00 0. -1.
         -2   -1    0    0    0  501 -0.00000000000E+00 -0.00000000000E+00 -0.39814081390E+02  0.39814081390E+02  0.00000000000E+00 0.  1.
         23    2    1    2    0    0 -0.43871466320E+02  0.29142915029E+02  0.84798953411E+02  0.13616691965E+03  0.92609677969E+02 0.  0.
         23    2    1    2    0    0  0.43871466320E+02 -0.29142915029E+02  0.31180700956E+03  0.34006720610E+03  0.12509227955E+03 0.  0.
          5    1    4    4  502    0 -0.27933066233E+02 -0.63782201417E+01  0.21691854167E+03  0.21884255528E+03  0.41800000000E+01 0.  1.
         -5    1    4    4    0  502  0.71804532552E+02 -0.22764694887E+02  0.94888467884E+02  0.12122465082E+03  0.41800000000E+01 0.  1.
        -11    1    3    3    0    0  0.14778800871E+02 -0.23068927046E+02  0.28598905431E+02  0.39604112692E+02  0.00000000000E+00 0. -1.
         11    1    3    3    0    0 -0.58650267190E+02  0.52211842075E+02  0.56200047980E+02  0.96562806957E+02  0.00000000000E+00 0.  1.
</event>
<event>
 8    1  0.5900800E-006  0.9450120E+02  0.7561462E-02  0.1292303E+00
         -2   -1    0    0    0  501 -0.00000000000E+00  0.00000000000E+00  0.38108054494E+02  0.38108054494E+02  0.00000000000E+00 0.  1.
          2   -1    0    0  501    0  0.00000000000E+00 -0.00000000000E+00 -0.46708152234E+03  0.46708152234E+03  0.00000000000E+00 0. -1.
         23    2    1    2    0    0  0.64922867554E+01  0.67790865280E+02 -0.12415074927E+03  0.16873331171E+03  0.91759308704E+02 0.  0.
         23    2    1    2    0    0 -0.64922867554E+01 -0.67790865280E+02 -0.30482271857E+03  0.33645626512E+03  0.12509267516E+03 0.  0.
          5    1    4    4  502    0  0.28913149712E+02 -0.49841378185E+02 -0.44058999464E+02  0.72655357954E+02  0.41800000000E+01 0.  1.
         -5    1    4    4    0  502 -0.35405436468E+02 -0.17949487095E+02 -0.26076371911E+03  0.26380090717E+03  0.41800000000E+01 0.  1.
        -11    1    3    3    0    0  0.33624294519E+02  0.42797275432E+02 -0.19570698381E+02  0.57837809445E+02  0.00000000000E+00 0.  1.
         11    1    3    3    0    0 -0.27132007763E+02  0.24993589848E+02 -0.10458005089E+03  0.11089550227E+03  0.00000000000E+00 0. -1.
</event>
<event>
 7    1  0.5900800E-006  0.1505571E+03  0.7561462E-02  0.1199790E+00
         -2   -1    0    0    0  501 -0.00000000000E+00  0.00000000000E+00  0.71945081612E+02  0.71945081612E+02  0.00000000000E+00 0.  1.
          2   -1    0    0  501    0  0.00000000000E+00 -0.00000000000E+00 -0.57110661564E+03  0.57110661564E+03  0.00000000000E+00 0. -1.
         23    2    1    2    0    0 -0.44008739980E+02 -0.47808578810E+02 -0.30224421275E+02  0.11489375936E+03  0.89803290002E+02 0.  0.
          5    1    1    2  502    0 -0.22910645374E+02  0.10919563150E+03 -0.39650017944E+03  0.41192043929E+03  0.41800000000E+01 0. -1.
         -5    1    1    2    0  502  0.66919385355E+02 -0.61387052686E+02 -0.72436933309E+02  0.11623749860E+03  0.41800000000E+01 0.  1.
        -11    1    3    3    0    0  0.76656537462E+01 -0.46225962996E+02  0.11741932303E+02  0.48306054242E+02  0.00000000000E+00 0. -1.
         11    1    3    3    0    0 -0.51674393726E+02 -0.15826158142E+01 -0.41966353578E+02  0.66587705115E+02  0.00000000000E+00 0.  1.
</event>
<event>
 8    1  0.5900800E-006  0.1435771E+03  0.7561462E-02  0.1208595E+00
         -2   -1    0    0    0  501 -0.00000000000E+00  0.00000000000E+00  0.14153431393E+03  0.14153431393E+03  0.00000000000E+00 0. -1.
          2   -1    0    0  501    0  0.00000000000E+00 -0.00000000000E+00 -0.28126304214E+03  0.28126304214E+03  0.00000000000E+00 0.  1.
         23    2    1    2    0    0 -0.52364825674E+02 -0.11759916947E+03  0.45552428736E+02  0.16482710177E+03  0.92310942405E+02 0.  0.
         23    2    1    2    0    0  0.52364825674E+02  0.11759916947E+03 -0.18528115695E+03  0.25797025430E+03  0.12509158786E+03 0.  0.
          5    1    4    4  502    0  0.35029924948E+02  0.10280503330E+03 -0.48119091565E+02  0.11886500699E+03  0.41800000000E+01 0. -1.
         -5    1    4    4    0  502  0.17334900726E+02  0.14794136174E+02 -0.13716206538E+03  0.13910524731E+03  0.41800000000E+01 0. -1.
        -11    1    3    3    0    0 -0.65707722648E+02 -0.40798298087E+02  0.64330080140E+01  0.77610498868E+02  0.00000000000E+00 0.  1.
         11    1    3    3    0    0  0.13342896975E+02 -0.76800871384E+02  0.39119420722E+02  0.87216602907E+02  0.00000000000E+00 0. -1.
</event>
<event>
 7    1  0.5900800E-006  0.9255383E+02  0.7561462E-02  0.1296782E+00
          2   -1    0    0  501    0  0.00000000000E+00  0.00000000000E+00  0.19451321388E+03  0.19451321388E+03  0.00000000000E+00 0. -1.
         -2   -1    0    0    0  501 -0.00000000000E+00 -0.00000000000E+00 -0.10173740249E+03  0.10173740249E+03  0.00000000000E+00 0.  1.
         23    2    1    2    0    0  0.60286327756E+02  0.32636643563E+02  0.68494107893E+01  0.11558662849E+03  0.92810357398E+02 0.  0.
          5    1    1    2  502    0 -0.48168027039E+02 -0.29554555113E+02  0.12617248117E+03  0.13831340485E+03  0.41800000000E+01 0. -1.
         -5    1    1    2    0  502 -0.12118300717E+02 -0.30820884502E+01 -0.40246080574E+02  0.42350583031E+02  0.41800000000E+01 0.  1.
        -11    1    3    3    0    0  0.28899340665E+02  0.64409183539E+02  0.15550814489E+01  0.70612556202E+02  0.00000000000E+00 0.  1.
         11    1    3    3    0    0  0.31386987091E+02 -0.31772539976E+02  0.52943293404E+01  0.44974072290E+02  0.00000000000E+00 0. -1.
</event>
<event>
 8    1  0.5900800E-006  0.1807143E+03  0.7561462E-02  0.1167114E+00
          2   -1    0    0  501    0  0.00000000000E+00  0.00000000000E+00  0.23240643837E+04  0.23240643837E+04  0.00000000000E+00 0. -1.
         -2   -1    0    0    0  501 -0.00000000000E+00 -0.00000000000E+00 -0.18571261162E+02  0.18571261162E+02  0.00000000000E+00 0.  1.
         23    2    1    2    0    0 -0.15798059669E+03  0.60590907972E+02  0.81398853633E+03  0.83635843802E+03  0.91043794406E+02 0.  0.
         23    2    1    2    0    0  0.15798059669E+03 -0.60590907972E+02  0.14915045862E+04  0.15062772068E+04  0.12512380323E+03 0.  0.
          5    1    4    4  502    0  0.14128821159E+03 -0.61490012265E+02  0.80895772460E+03  0.82351287357E+03  0.41800000000E+01 0.  1.
         -5    1    4    4    0  502  0.16692385092E+02  0.89910429289E+00  0.68254686159E+03  0.68276433326E+03  0.41800000000E+01 0.  1.
        -11    1    3    3    0    0 -0.13466864584E+03  0.10833022469E+02  0.51904337066E+03  0.53633853039E+03  0.00000000000E+00 0.  1.
         11    1    3    3    0    0 -0.23311950852E+02  0.49757885503E+02  0.29494516567E+03  0.30001990763E+03  0.00000000000E+00 0. -1.
</event>
<event>
 8    1  0.5900800E-006  0.1391036E+03  0.7561462E-02  0.1214540E+00
         -1   -1    0    0    0  501 -0.00000000000E+00  0.00000000000E+00  0.39164486298E+02  0.39164486298E+02  0.00000000000E+00 0.  1.
          1   -1    0    0  501    0  0.00000000000E+00 -0.00000000000E+00 -0.76128434546E+03  0.76128434546E+03  0.00000000000E+00 0. -1.
         23    2    1    2    0    0  0.10450149284E+03 -0.61855982524E+02 -0.21078348199E+03  0.26021080099E+03  0.92375646662E+02 0.  0.
         23    2    1    2    0    0 -0.10450149284E+03  0.61855982524E+02 -0.51133637718E+03  0.54023803077E+03  0.12508203181E+03 0.  0.
          5    1    4    4  502    0 -0.47214826423E+02  0.51513933461E+02 -0.45060148770E+03  0.45600668667E+03  0.41800000000E+01 0.  1.
         -5    1    4    4    0  502 -0.57286666414E+02  0.10342049063E+02 -0.60734889480E+02  0.84231344094E+02  0.41800000000E+01 0.  1.
        -11    1    3    3    0    0 -0.14055739846E+02 -0.19304923530E+02 -0.54373967321E+02  0.59386633322E+02  0.00000000000E+00 0. -1.
         11    1    3    3    0    0  0.11855723268E+03 -0.42551058994E+02 -0.15640951466E+03  0.20082416767E+03  0.00000000000E+00 0.  1.
</event>
<event>
 8    1  0.5900800E-006  0.1293517E+03  0.7561462E-02  0.1228421E+00
          2   -1    0    0  501    0  0.00000000000E+00  0.00000000000E+00  0.13395011176E+04  0.13395011176E+04  0.00000000000E+00 0. -1.
         -2   -1    0    0    0  501 -0.00000000000E+00 -0.00000000000E+00 -0.19340070287E+02  0.19340070287E+02  0.00000000000E+00 0.  1.
         23    2    1    2    0    0  0.11372409582E+03 -0.31258831194E+02  0.65179739364E+03  0.66871883624E+03  0.91840922749E+02 0.  0.
         23    2    1    2    0    0 -0.11372409582E+03  0.31258831194E+02  0.66836365372E+03  0.69012235169E+03  0.12509437315E+03 0.  0.
          5    1    4    4  502    0 -0.10434327659E+03  0.37087826509E+02  0.66917202073E+03  0.67828584828E+03  0.41800000000E+01 0.  1.
         -5    1    4    4    0  502 -0.93808192268E+01 -0.58289953154E+01 -0.80836701499E+00  0.11836503410E+02  0.41800000000E+01 0.  1.
        -11    1    3    3    0    0  0.12120043210E+03 -0.20418107727E+02  0.63766444195E+03  0.64940155867E+03  0.00000000000E+00 0. -1.
         11    1    3    3    0    0 -0.74763362846E+01 -0.10840723467E+02  0.14132951680E+02  0.19317277570E+02  0.00000000000E+00 0.  1.
</event>
<event>
 8    1  0.5900800E-006  0.1988952E+03  0.7561462E-02  0.1150674E+00
          2   -1    0    0  501    0  0.00000000000E+00  0.00000000000E+00  0.84284812645E+03  0.84284812645E+03  0.00000000000E+00 0. -1.
         -2   -1    0    0    0  501 -0.00000000000E+00 -0.00000000000E+00 -0.10230730750E+03  0.10230730750E+03  0.00000000000E+00 0.  1.
         23    2    1    2    0    0 -0.17925867940E+03  0.26903831779E+02  0.35856720622E+02  0.20685693714E+03  0.92987083635E+02 0.  0.
         23    2    1    2    0    0  0.17925867940E+03 -0.26903831779E+02  0.70468409833E+03  0.73829849681E+03  0.12508997421E+03 0.  0.
          5    1    4    4  502    0  0.24467204275E+02 -0.53885143273E+02  0.13783601548E+03  0.15006162838E+03  0.41800000000E+01 0.  1.
         -5    1    4    4    0  502  0.15479147512E+03  0.26981311493E+02  0.56684808285E+03  0.58823686843E+03  0.41800000000E+01 0.  1.
        -11    1    3    3    0    0 -0.14454854872E+03  0.22648736500E+02 -0.12873588890E+02  0.14687742336E+03  0.00000000000E+00 0.  1.
         11    1    3    3    0    0 -0.34710130680E+02  0.42550952793E+01  0.48730309512E+02  0.59979513776E+02  0.00000000000E+00 0. -1.
</event>
<event>
 8    1  0.5900800E-006  0.8771049E+02  0.7561462E-02  0.1308493E+00
         -1   -1    0    0    0  501 -0.00000000000E+00  0.00000000000E+00  0.14896972599E+02  0.14896972599E+02  0.00000000000E+00 0.  1.
          1   -1    0    0  501    0  0.00000000000E+00 -0.00000000000E+00 -0.14992319452E+04  0.14992319452E+04  0.00000000000E+00 0. -1.
         23    2    1    2    0    0  0.56028374053E+01 -0.51133695216E+02 -0.21812126300E+03  0.24071206835E+03  0.87859933444E+02 0.  0.
         23    2    1    2    0    0 -0.56028374053E+01  0.51133695216E+02 -0.12662137096E+04  0.12734168494E+04  0.12508903828E+03 0.  0.
          5    1    4    4  502    0 -0.32287793277E+02  0.12073950660E+01 -0.10286394781E+04  0.10291552884E+04  0.41800000000E+01 0. -1.
         -5    1    4    4    0  502  0.26684955872E+02  0.49926300150E+02 -0.23757423150E+03  0.24426156101E+03  0.41800000000E+01 0. -1.
        -11    1    3    3    0    0 -0.31526837779E+02 -0.29086936192E+02 -0.17307526328E+03  0.17831163203E+03  0.00000000000E+00 0. -1.
         11    1    3    3    0    0  0.37129675184E+02 -0.22046759024E+02 -0.45045999722E+02  0.62400436326E+02  0.00000000000E+00 0.  1.
</event>
<event>
 8    1  0.5900800E-006  0.2718993E+03  0.7561462E-02  0.1100198E+00
         -2   -1    0    0    0  501 -0.00000000000E+00  0.00000000000E+00  0.24070102397E+03  0.24070102397E+03  0.00000000000E+00 0.  1.
          2   -1    0    0  501    0  0.00000000000E+00 -0.00000000000E+00 -0.71220424025E+03  0.71220424025E+03  0.00000000000E+00 0. -1.
         23    2    1    2    0    0 -0.20574760686E+03  0.15892714110E+03  0.11669447437E+03  0.29953359375E+03  0.92265158820E+02 0.  0.
         23    2    1    2    0    0  0.20574760686E+03 -0.15892714110E+03 -0.58819769065E+03  0.65337167046E+03  0.11544740177E+03 0.  0.
          5    1    4    4  502    0  0.13294505017E+03 -0.32503321793E+02 -0.31928577781E+03  0.34740715681E+03  0.41800000000E+01 0. -1.
         -5    1    4    4    0  502  0.72802556688E+02 -0.12642381931E+03 -0.26891191284E+03  0.30596451365E+03  0.41800000000E+01 0.  1.
        -11    1    3    3    0    0 -0.16047795523E+03  0.13507222940E+03  0.12985476983E+03  0.24669807968E+03  0.00000000000E+00 0.  1.
         11    1    3    3    0    0 -0.45269651626E+02  0.23854911695E+02 -0.13160295460E+02  0.52835514069E+02  0.00000000000E+00 0. -1.
</event>
<event>
 8    1  0.5900800E-006  0.1121271E+03  0.7561462E-02  0.1256681E+00
          2   -1    0    0  501    0  0.00000000000E+00  0.00000000000E+00  0.91895972170E+03  0.91895972170E+03  0.00000000000E+00 0. -1.
         -2   -1    0    0    0  501 -0.00000000000E+00 -0.00000000000E+00 -0.18476758871E+02  0.18476758871E+02  0.00000000000E+00 0.  1.
         23    2    1    2    0    0  0.37888527699E+02  0.41835126858E+02  0.22875659111E+03  0.25183492979E+03  0.88913078422E+02 0.  0.
         23    2    1    2    0    0 -0.37888527699E+02 -0.41835126858E+02  0.67172637173E+03  0.68560155079E+03  0.12508976618E+03 0.  0.
          5    1    4    4  502    0 -0.41047953746E+02  0.30599928889E+02  0.14372678009E+03  0.15263076318E+03  0.41800000000E+01 0. -1.
         -5    1    4    4    0  502  0.31594260470E+01 -0.72435055747E+02  0.52799959164E+03  0.53297078761E+03  0.41800000000E+01 0. -1.
        -11    1    3    3    0    0  0.22870482568E+02 -0.23754026223E+02  0.42465346928E+02  0.53764471768E+02  0.00000000000E+00 0.  1.
         11    1    3    3    0    0  0.15018045130E+02  0.65589153081E+02  0.18629124418E+03  0.19807045802E+03  0.00000000000E+00 0. -1.
</event>
<event>
 7    1  0.5900800E-006  0.1226635E+03  0.7561462E-02  0.1238767E+00
          1   -1    0    0  501    0  0.00000000000E+00  0.00000000000E+00  0.77486365006E+02  0.77486365006E+02  0.00000000000E+00 0. -1.
         -1   -1    0    0    0  501 -0.00000000000E+00 -0.00000000000E+00 -0.22500155441E+03  0.22500155441E+03  0.00000000000E+00 0.  1.
         23    2    1    2    0    0  0.45640031477E+01 -0.47501197005E+02 -0.75401208940E+02  0.13222352996E+03  0.97573181374E+02 0.  0.
          5    1    1    2  502    0 -0.62517061233E+02  0.66839565252E+02 -0.54258547295E+02  0.10647709981E+03  0.41800000000E+01 0. -1.
         -5    1    1    2    0  502  0.57953058086E+02 -0.19338368247E+02 -0.17855433173E+02  0.63787289657E+02  0.41800000000E+01 0.  1.
        -11    1    3    3    0    0 -0.36695940906E+02 -0.13817781202E+02  0.83955829860E+00  0.39220250056E+02  0.00000000000E+00 0.  1.
         11    1    3    3    0    0  0.41259944054E+02 -0.33683415803E+02 -0.76240767239E+02  0.93003279903E+02  0.00000000000E+00 0. -1.
</event>
<event>
 8    1  0.5900800E-006  0.9181061E+02  0.7561462E-02  0.1298525E+00
         -1   -1    0    0    0  501 -0.00000000000E+00  0.00000000000E+00  0.14693570678E+02  0.14693570678E+02  0.00000000000E+00 0.  1.
          1   -1    0    0  501    0  0.00000000000E+00 -0.00000000000E+00 -0.95055837304E+03  0.95055837304E+03  0.00000000000E+00 0. -1.
         23    2    1    2    0    0 -0.16557588144E+02  0.41878159498E+02 -0.27278083232E+03  0.29130214647E+03  0.91758509626E+02 0.  0.
         23    2    1    2    0    0  0.16557588144E+02 -0.41878159498E+02 -0.66308397004E+03  0.67394979724E+03  0.11180359527E+03 0.  0.
          5    1    4    4  502    0 -0.36813461249E+02  0.61506146390E+01 -0.11056915260E+03  0.11677358818E+03  0.41800000000E+01 0. -1.
         -5    1    4    4    0  502  0.53371049393E+02 -0.48028774137E+02 -0.55251481744E+03  0.55717620907E+03  0.41800000000E+01 0.  1.
        -11    1    3    3    0    0  0.25717915400E+01 -0.14438500255E+02 -0.29057914081E+01  0.14950853656E+02  0.00000000000E+00 0.  1.
         11    1    3    3    0    0 -0.19129379684E+02  0.56316659753E+02 -0.26987504091E+03  0.27635129282E+03  0.00000000000E+00 0. -1.
</event>
<event>
 7    1  0.5900800E-006  0.4452540E+02  0.7561462E-02  0.1477326E+00
          2   -1    0    0  501    0  0.00000000000E+00  0.00000000000E+00  0.24075580596E+03  0.24075580596E+03  0.00000000000E+00 0. -1.
         -2   -1    0    0    0  501 -0.00000000000E+00 -0.00000000000E+00 -0.24904299656E+02  0.24904299656E+02  0.00000000000E+00 0.  1.
         23    2    1    2    0    0  0.20759305902E+02  0.19991383118E+01  0.21037482216E+03  0.23846544173E+03  0.11033247830E+03 0.  0.
          5    1    3    3  502    0  0.11064785507E+02 -0.28168467690E+02  0.20349020771E+03  0.20577081689E+03  0.41800000000E+01 0. -1.
         -5    1    3    3    0  502  0.96945203951E+01  0.30167606001E+02  0.68846144519E+01  0.32694624844E+02  0.41800000000E+01 0.  1.
        -11    1    1    2    0    0 -0.13851057656E+02  0.67354985685E+01  0.20176424659E+01  0.15533499937E+02  0.00000000000E+00 0.  1.
         11    1    1    2    0    0 -0.69082482459E+01 -0.87346368803E+01  0.34590416786E+01  0.11661163947E+02  0.00000000000E+00 0. -1.
</event>
<event>
 8    1  0.5900800E-006  0.1057587E+03  0.7561462E-02  0.1268632E+00
          2   -1    0    0  501    0  0.00000000000E+00  0.00000000000E+00  0.33049505271E+03  0.33049505271E+03  0.00000000000E+00 0. -1.
         -2   -1    0    0    0  501 -0.00000000000E+00 -0.00000000000E+00 -0.34866077704E+02  0.34866077704E+02  0.00000000000E+00 0.  1.
         23    2    1    2    0    0 -0.40905942529E+01 -0.23827408920E+01  0.11515823113E+03  0.14573075957E+03  0.89183101939E+02 0.  0.
         23    2    1    2    0    0  0.40905942529E+01  0.23827408920E+01  0.18047074387E+03  0.21963037084E+03  0.12508157334E+03 0.  0.
          5    1    4    4  502    0  0.63149866532E+02  0.92865527208E+01  0.75860227509E+02  0.99228988819E+02  0.41800000000E+01 0. -1.
         -5    1    4    4    0  502 -0.59059272279E+02 -0.69038118287E+01  0.10461051636E+03  0.12040138203E+03  0.41800000000E+01 0. -1.
        -11    1    3    3    0    0 -0.99474713718E+00  0.42721569935E+02  0.43320081663E+02  0.60850238577E+02  0.00000000000E+00 0.  1.
         11    1    3    3    0    0 -0.30958471157E+01 -0.45104310827E+02  0.71838149471E+02  0.84880520993E+02  0.00000000000E+00 0. -1.
</event>
<event>
 8    1  0.5900800E-006  0.1210577E+03  0.7561462E-02  0.1241362E+00
         -3   -1    0    0    0  501 -0.00000000000E+00  0.00000000000E+00  0.23369054830E+03  0.23369054830E+03  0.00000000000E+00 0.  1.
          3   -1    0    0  501    0  0.00000000000E+00 -0.00000000000E+00 -0.72237182147E+02  0.72237182147E+02  0.00000000000E+00 0. -1.
         23    2    1    2    0    0 -0.28752966263E+02 -0.59489171463E+02  0.38360970754E+02  0.11840391550E+03  0.90455671674E+02 0.  0.
         23    2    1    2    0    0  0.28752966263E+02  0.59489171463E+02  0.12309239540E+03  0.18752381495E+03  0.12509096201E+03 0.  0.
          5    1    4    4  502    0  0.56850778832E+00  0.89420706302E+02  0.11445529742E+03  0.14530613691E+03  0.41800000000E+01 0.  1.
         -5    1    4    4    0  502  0.28184458475E+02 -0.29931534839E+02  0.86370979784E+01  0.42217678037E+02  0.41800000000E+01 0.  1.
        -11    1    3    3    0    0  0.19032612708E+02 -0.60552323468E+02  0.15087808228E+02  0.65241598547E+02  0.00000000000E+00 0. -1.
         11    1    3    3    0    0 -0.47785578971E+02  0.10631520049E+01  0.23273162526E+02  0.53162316952E+02  0.00000000000E+00 0.  1.
</event>
<event>
 8    1  0.5900800E-006  0.1057848E+03  0.7561462E-02  0.1268581E+00
         -2   -1    0    0    0  501 -0.00000000000E+00  0.00000000000E+00  0.47196951096E+02  0.47196951096E+02  0.00000000000E+00 0. -1.
          2   -1    0    0  501    0  0.00000000000E+00 -0.00000000000E+00 -0.32157747580E+03  0.32157747580E+03  0.00000000000E+00 0.  1.
         23    2    1    2    0    0 -0.33954093647E+02 -0.19002801173E+02 -0.53271207213E+02  0.11177027875E+03  0.90226308609E+02 0.  0.
         23    2    1    2    0    0  0.33954093647E+02  0.19002801173E+02 -0.22110931750E+03  0.25700414815E+03  0.12509122654E+03 0.  0.
          5    1    4    4  502    0  0.73037820596E+02  0.40645419245E+02 -0.16628963613E+03  0.18616199620E+03  0.41800000000E+01 0.  1.
         -5    1    4    4    0  502 -0.39083726949E+02 -0.21642618072E+02 -0.54819681364E+02  0.70842151958E+02  0.41800000000E+01 0.  1.
        -11    1    3    3    0    0 -0.36595823959E+02  0.21483615941E+02  0.28360023140E+01  0.42530494874E+02  0.00000000000E+00 0. -1.
         11    1    3    3    0    0  0.26417303116E+01 -0.40486417114E+02 -0.56107209527E+02  0.69239783872E+02  0.00000000000E+00 0.  1.
</event>
<event>
 8    1  0.5900800E-006  0.1869348E+03  0.7561462E-02  0.1161255E+00
         -2   -1    0    0    0  501 -0.00000000000E+00  0.00000000000E+00  0.82048666498E+02  0.82048666498E+02  0.00000000000E+00 0.  1.
          2   -1    0    0  501    0  0.00000000000E+00 -0.00000000000E+00 -0.84412086397E+03  0.84412086397E+03  0.00000000000E+00 0. -1.
         23    2    1    2    0    0  0.93009853210E+02 -0.15711575739E+03 -0.98134722525E+02  0.22631344585E+03  0.90835884937E+02 0.  0.
         23    2    1    2    0    0 -0.93009853210E+02  0.15711575739E+03 -0.66393747495E+03  0.69985608462E+03  0.12509746012E+03 0.  0.
          5    1    4    4  502    0 -0.95705860653E+02  0.12255627571E+03 -0.33826762956E+03  0.37231990826E+03  0.41800000000E+01 0. -1.
         -5    1    4    4    0  502  0.26960074436E+01  0.34559481678E+02 -0.32566984539E+03  0.32753617636E+03  0.41800000000E+01 0. -1.
        -11    1    3    3    0    0  0.64739435765E+02 -0.92856914727E+02 -0.10002522730E+02  0.11363824892E+03  0.00000000000E+00 0.  1.
         11    1    3    3    0    0  0.28270417444E+02 -0.64258842661E+02 -0.88132199795E+02  0.11267519693E+03  0.00000000000E+00 0. -1.
</event>
<event>
 8    1  0.5900800E-006  0.1788715E+03  0.7561462E-02  0.1168900E+00
         -2   -1    0    0    0  501 -0.00000000000E+00  0.00000000000E+00  0.10250240932E+03  0.10250240932E+03  0.00000000000E+00 0.  1.
          2   -1    0    0  501    0  0.00000000000E+00 -0.00000000000E+00 -0.36000873361E+03  0.36000873361E+03  0.00000000000E+00 0. -1.
         23    2    1    2    0    0 -0.46650547731E+02 -0.14827643033E+03 -0.87372235389E+02  0.20029912541E+03  0.91234087529E+02 0.  0.
         23    2    1    2    0    0  0.46650547731E+02  0.14827643033E+03 -0.17013408890E+03  0.26221201752E+03  0.12508941014E+03 0.  0.
          5    1    4    4  502    0  0.88357945443E+02  0.11948709032E+03 -0.12764335446E+03  0.19594537406E+03  0.41800000000E+01 0.  1.
         -5    1    4    4    0  502 -0.41707397712E+02  0.28789340004E+02 -0.42490734444E+02  0.66266643459E+02  0.41800000000E+01 0.  1.
        -11    1    3    3    0    0 -0.46065200700E+02 -0.10170831551E+03 -0.12808403334E+02  0.11238611727E+03  0.00000000000E+00 0.  1.
         11    1    3    3    0    0 -0.58534703104E+00 -0.46568114821E+02 -0.74563832055E+02  0.87913008138E+02  0.00000000000E+00 0. -1.
</event>
<event>
 8    1  0.5900800E-006  0.1940361E+03  0.7561462E-02  0.1154871E+00
          4   -1    0    0  501    0  0.00000000000E+00  0.00000000000E+00  0.69481646525E+03  0.69481646525E+03  0.00000000000E+00 0. -1.
         -4   -1    0    0    0  501 -0.00000000000E+00 -0.00000000000E+00 -0.78461733929E+02  0.78461733929E+02  0.00000000000E+00 0.  1.
         23    2    1    2    0    0 -0.25889539090E+02 -0.16406992230E+03  0.89537614201E+02  0.20690978345E+03  0.84885019253E+02 0.  0.
         23    2    1    2    0    0  0.25889539090E+02  0.16406992230E+03  0.52681711712E+03  0.56636841573E+03  0.12509076627E+03 0.  0.
          5    1    4    4  502    0  0.67759547756E+02  0.13269611822E+03  0.32026219799E+03  0.35324915281E+03  0.41800000000E+01 0.  1.
         -5    1    4    4    0  502 -0.41870008666E+02  0.31373804076E+02  0.20655491913E+03  0.21311926291E+03  0.41800000000E+01 0.  1.
        -11    1    3    3    0    0  0.31418391725E+02 -0.56490396256E+02  0.30558395868E+02  0.71498921431E+02  0.00000000000E+00 0. -1.
         11    1    3    3    0    0 -0.57307930815E+02 -0.10757952604E+03  0.58979218333E+02  0.13541086202E+03  0.00000000000E+00 0.  1.
</event>
<event>
 8    1  0.5900800E-006  0.6144152E+02  0.7561462E-02  0.1391880E+00
          2   -1    0    0  501    0  0.00000000000E+00  0.00000000000E+00  0.44160621578E+03  0.44160621578E+03  0.00000000000E+00 0. -1.
         -2   -1    0    0    0  501 -0.00000000000E+00 -0.00000000000E+00 -0.35457225580E+02  0.35457225580E+02  0.00000000000E+00 0.  1.
         23    2    1    2    0    0 -0.32267002654E+02  0.48922539666E+02  0.13203135825E+03  0.17009863560E+03  0.89814764496E+02 0.  0.
         23    2    1    2    0    0  0.32267002654E+02 -0.48922539666E+02  0.27411763194E+03  0.30696480576E+03  0.12510931814E+03 0.  0.
          5    1    4    4  502    0  0.72314303133E+01 -0.57262290763E+01 -0.12451021263E+02  0.16049411650E+02  0.41800000000E+01 0. -1.
         -5    1    4    4    0  502  0.25035572340E+02 -0.43196310590E+02  0.28656865321E+03  0.29091539411E+03  0.41800000000E+01 0. -1.
        -11    1    3    3    0    0 -0.13253425944E+02  0.39035041462E+02  0.14097340211E+03  0.14687711824E+03  0.00000000000E+00 0. -1.
         11    1    3    3    0    0 -0.19013576709E+02  0.98874982036E+01 -0.89420438525E+01  0.23221517355E+02  0.00000000000E+00 0.  1.
</event>
<event>
 8    1  0.5900800E-006  0.1325946E+03  0.7561462E-02  0.1223656E+00
          2   -1    0    0  501    0  0.00000000000E+00  0.00000000000E+00  0.16432512275E+03  0.16432512275E+03  0.00000000000E+00 0. -1.
         -2   -1    0    0    0  501 -0.00000000000E+00 -0.00000000000E+00 -0.19257704292E+03  0.19257704292E+03  0.00000000000E+00 0.  1.
         23    2    1    2    0    0 -0.96875702537E+01  0.87277844696E+02 -0.12389304241E+03  0.17660799977E+03  0.90164452161E+02 0.  0.
         23    2    1    2    0    0  0.96875702537E+01 -0.87277844696E+02  0.95641122232E+02  0.18029416590E+03  0.12508993086E+03 0.  0.
          5    1    4    4  502    0  0.62315255126E+02 -0.58559926981E+02  0.82248372729E+02  0.11872119982E+03  0.41800000000E+01 0. -1.
         -5    1    4    4    0  502 -0.52627684872E+02 -0.28717917716E+02  0.13392749503E+02  0.61572966082E+02  0.41800000000E+01 0. -1.
        -11    1    3    3    0    0 -0.37031762809E+02  0.11285627342E+02 -0.68474101921E+02  0.78660151761E+02  0.00000000000E+00 0.  1.
         11    1    3    3    0    0  0.27344192555E+02  0.75992217354E+02 -0.55418940486E+02  0.97947848008E+02  0.00000000000E+00 0. -1.
</event>
<event>
 8    1  0.5900800E-006  0.1230080E+03  0.7561462E-02  0.1238216E+00
          2   -1    0    0  501    0  0.00000000000E+00  0.00000000000E+00  0.45356710478E+03  0.45356710478E+03  0.00000000000E+00 0. -1.
         -2   -1    0    0    0  501 -0.00000000000E+00 -0.00000000000E+00 -0.45111071650E+02  0.45111071650E+02  0.00000000000E+00 0.  1.
         23    2    1    2    0    0  0.83617093034E+02  0.27228157101E+02  0.23613661325E+03  0.26829870407E+03  0.92143929266E+02 0.  0.
         23    2    1    2    0    0 -0.83617093034E+02 -0.27228157101E+02  0.17231941988E+03  0.23037947237E+03  0.12509007967E+03 0.  0.
          5    1    4    4  502    0 -0.37538144595E+02 -0.76255232356E+02  0.10435602920E+03  0.13465372624E+03  0.41800000000E+01 0. -1.
         -5    1    4    4    0  502 -0.46078948439E+02  0.49027075255E+02  0.67963390685E+02  0.95725746123E+02  0.41800000000E+01 0. -1.
        -11    1    3    3    0    0  0.14838953533E+02  0.19194281615E+02  0.22370275446E+01  0.24364303415E+02  0.00000000000E+00 0.  1.
         11    1    3    3    0    0  0.68778139501E+02  0.80338754861E+01  0.23389958570E+03  0.24393440065E+03  0.00000000000E+00 0. -1.
</event>
<event>
 8    1  0.5900800E-006  0.1088195E+03  0.7561462E-02  0.1262772E+00
          1   -1    0    0  501    0  0.00000000000E+00  0.00000000000E+00  0.46740688296E+03  0.46740688296E+03  0.00000000000E+00 0. -1.
         -1   -1    0    0    0  501 -0.00000000000E+00 -0.00000000000E+00 -0.44986254268E+02  0.44986254268E+02  0.00000000000E+00 0.  1.
         23    2    1    2    0    0 -0.21760105590E+02  0.52975280053E+02  0.63485405154E+02  0.12799483637E+03  0.95249141617E+02 0.  0.
         23    2    1    2    0    0  0.21760105590E+02 -0.52975280053E+02  0.35893522354E+03  0.38439830086E+03  0.12509067316E+03 0.  0.
          5    1    4    4  502    0  0.16303721709E+02 -0.79325302142E+02  0.12575433550E+03  0.14963268426E+03  0.41800000000E+01 0.  1.
         -5    1    4    4    0  502  0.54563838809E+01  0.26350022089E+02  0.23318088804E+03  0.23476561660E+03  0.41800000000E+01 0.  1.
        -11    1    3    3    0    0 -0.56694636978E+02  0.47483354334E+02  0.53414117295E+02  0.91225099218E+02  0.00000000000E+00 0. -1.
         11    1    3    3    0    0  0.34934531388E+02  0.54919257188E+01  0.10071287858E+02  0.36769737156E+02  0.00000000000E+00 0.  1.
</event>
<event>
 7    1  0.5900800E-006  0.4635303E+02  0.7561462E-02  0.1466067E+00
         -2   -1    0    0    0  501 -0.00000000000E+00  0.00000000000E+00  0.14866438115E+03  0.14866438115E+03  0.00000000000E+00 0.  1.
          2   -1    0    0  501    0  0.00000000000E+00 -0.00000000000E+00 -0.33223024151E+02  0.33223024151E+02  0.00000000000E+00 0. -1.
         23    2    1    2    0    0 -0.37864361749E+01  0.53730383947E+01  0.88187963912E+02  0.14468067949E+03  0.11450840754E+03 0.  0.
          5    1    3    3  502    0 -0.11705041593E+02  0.35941486421E+02 -0.11738464869E+02  0.39800281436E+02  0.41800000000E+01 0. -1.
         -5    1    3    3    0  502  0.79186054185E+01 -0.30568448027E+02  0.99926428781E+02  0.10488039805E+03  0.41800000000E+01 0.  1.
        -11    1    1    2    0    0 -0.82484695588E+01 -0.68185940093E+01  0.48826975338E+01  0.11763129241E+02  0.00000000000E+00 0. -1.
         11    1    1    2    0    0  0.12034905734E+02  0.14455556145E+01  0.22370695553E+02  0.25443596573E+02  0.00000000000E+00 0.  1.
</event>
<event>
 8    1  0.5900800E-006  0.9296411E+02  0.7561462E-02  0.1295828E+00
         -1   -1    0    0    0  501 -0.00000000000E+00  0.00000000000E+00  0.42445990522E+02  0.42445990522E+02  0.00000000000E+00 0.  1.
          1   -1    0    0  501    0  0.00000000000E+00 -0.00000000000E+00 -0.37834741680E+03  0.37834741680E+03  0.00000000000E+00 0. -1.
         23    2    1    2    0    0 -0.15916623611E+02  0.64087533610E+02 -0.13351708056E+03  0.17387721848E+03  0.89699082669E+02 0.  0.
         23    2    1    2    0    0  0.15916623611E+02 -0.64087533610E+02 -0.20238434571E+03  0.24691618885E+03  0.12509048746E+03 0.  0.
          5    1    4    4  502    0 -0.38752123495E+02 -0.15205852115E+02 -0.15247333634E+03  0.15810925245E+03  0.41800000000E+01 0. -1.
         -5    1    4    4    0  502  0.54668747106E+02 -0.48881681496E+02 -0.49911009371E+02  0.88806936398E+02  0.41800000000E+01 0. -1.
        -11    1    3    3    0    0 -0.22473549811E+02  0.42523590684E+02 -0.14190023982E+03  0.14982988443E+03  0.00000000000E+00 0. -1.
         11    1    3    3    0    0  0.65569261997E+01  0.21563942926E+02  0.83831592594E+01  0.24047334049E+02  0.00000000000E+00 0.  1.
</event>
<event>
 8    1  0.5900800E-006  0.1232408E+03  0.7561462E-02  0.1237844E+00
          2   -1    0    0  501    0  0.00000000000E+00  0.00000000000E+00  0.78318001749E+03  0.78318001749E+03  0.00000000000E+00 0. -1.
         -2   -1    0    0    0  501 -0.00000000000E+00 -0.00000000000E+00 -0.28594888798E+02  0.28594888798E+02  0.00000000000E+00 0.  1.
         23    2    1    2    0    0 -0.82829270426E+02 -0.47599647761E+02  0.26534696643E+03  0.29784240428E+03  0.95784501305E+02 0.  0.
         23    2    1    2    0    0  0.82829270426E+02  0.47599647761E+02  0.48923816227E+03  0.51393250201E+03  0.12508486197E+03 0.  0.
          5    1    4    4  502    0 -0.18114616178E+02 -0.33788631855E+01  0.97323584596E+01  0.21254346305E+02  0.41800000000E+01 0.  1.
         -5    1    4    4    0  502  0.10094388660E+03  0.50978510947E+02  0.47950580381E+03  0.49267815570E+03  0.41800000000E+01 0.  1.
        -11    1    3    3    0    0 -0.78444650328E+02 -0.12961238145E+02  0.24466983487E+03  0.25726423178E+03  0.00000000000E+00 0. -1.
         11    1    3    3    0    0 -0.43846200972E+01 -0.34638409616E+02  0.20677131562E+02  0.40578172504E+02  0.00000000000E+00 0.  1.
</event>
<event>
 8    1  0.5900800E-006  0.1580196E+03  0.7561462E-02  0.1190951E+00
          1   -1    0    0  501    0  0.00000000000E+00  0.00000000000E+00  0.18459371266E+04  0.18459371266E+04  0.00000000000E+00 0. -1.
         -1   -1    0    0    0  501 -0.00000000000E+00 -0.00000000000E+00 -0.22857918594E+02  0.22857918594E+02  0.00000000000E+00 0.  1.
         23    2    1    2    0    0 -0.25926904472E+01 -0.12698403882E+03  0.34289039544E+03  0.37791014113E+03  0.95449375722E+02 0.  0.
         23    2    1    2    0    0  0.25926904472E+01  0.12698403882E+03  0.14801888125E+04  0.14908849040E+04  0.12508880106E+03 0.  0.
          5    1    4    4  502    0  0.46561454082E+02  0.44928828961E+02  0.97637531870E+03  0.97852583208E+03  0.41800000000E+01 0. -1.
         -5    1    4    4    0  502 -0.43968763635E+02  0.82055209863E+02  0.50381349385E+03  0.51235907196E+03  0.41800000000E+01 0. -1.
        -11    1    3    3    0    0  0.31491996743E+02 -0.56647647352E+01  0.54675231632E+02  0.63349951637E+02  0.00000000000E+00 0. -1.
         11    1    3    3    0    0 -0.34084687191E+02 -0.12131927409E+03  0.28821516381E+03  0.31456018949E+03  0.00000000000E+00 0.  1.
</event>
<event>
 8    1  0.5900800E-006  0.1236651E+03  0.7561462E-02  0.1237170E+00
          2   -1    0    0  501    0  0.00000000000E+00  0.00000000000E+00  0.48640320528E+03  0.48640320528E+03  0.00000000000E+00 0. -1.
         -2   -1    0    0    0  501 -0.00000000000E+00 -0.00000000000E+00 -0.33865449717E+02  0.33865449717E+02  0.00000000000E+00 0.  1.
         23    2    1    2    0    0  0.58650494639E+02 -0.30411380098E+02  0.17706337784E+03  0.21059630743E+03  0.92922722585E+02 0.  0.
         23    2    1    2    0    0 -0.58650494639E+02  0.30411380098E+02  0.27547437773E+03  0.30967234756E+03  0.12508436154E+03 0.  0.
          5    1    4    4  502    0 -0.20754088211E+02  0.77537855961E+02  0.16934312539E+03  0.18744977408E+03  0.41800000000E+01 0.  1.
         -5    1    4    4    0  502 -0.37896406428E+02 -0.47126475863E+02  0.10613125233E+03  0.12222257348E+03  0.41800000000E+01 0.  1.
        -11    1    3    3    0    0  0.61401972949E+02 -0.54494415486E+02  0.97697346082E+02  0.12761118694E+03  0.00000000000E+00 0.  1.
         11    1    3    3    0    0 -0.27514783105E+01  0.24083035388E+02  0.79366031756E+02  0.82985120492E+02  0.00000000000E+00 0. -1.
</event>
<event>
 8    1  0.5900800E-006  0.1337866E+03  0.7561462E-02  0.1221943E+00
         -2   -1    0    0    0  501 -0.00000000000E+00  0.00000000000E+00  0.15083784985E+03  0.15083784985E+03  0.00000000000E+00 0.  1.
          2   -1    0    0  501    0  0.00000000000E+00 -0.00000000000E+00 -0.21488232971E+03  0.21488232971E+03  0.00000000000E+00 0. -1.
         23    2    1    2    0    0 -0.99517996925E+02 -0.11427651576E+02  0.73928435045E+02  0.15425433286E+03  0.91074490209E+02 0.  0.
         23    2    1    2    0    0  0.99517996925E+02  0.11427651576E+02 -0.13797291490E+03  0.21146584669E+03  0.12508739400E+03 0.  0.
          5    1    4    4  502    0 -0.22899095182E+02 -0.21834706117E+02 -0.17161673594E+02  0.36236975480E+02  0.41800000000E+01 0.  1.
         -5    1    4    4    0  502  0.12241709211E+03  0.33262357693E+02 -0.12081124131E+03  0.17522887121E+03  0.41800000000E+01 0.  1.
        -11    1    3    3    0    0 -0.50620251774E+02  0.15462990534E+02  0.82274598700E+02  0.97829563820E+02  0.00000000000E+00 0.  1.
         11    1    3    3    0    0 -0.48897745151E+02 -0.26890642111E+02 -0.83461636556E+01  0.56424769044E+02  0.00000000000E+00 0. -1.
</event>
<event>
 8    1  0.5900800E-006  0.1230783E+03  0.7561462E-02  0.1238103E+00
         -1   -1    0    0    0  501 -0.00000000000E+00  0.00000000000E+00  0.65387584607E+03  0.65387584607E+03  0.00000000000E+00 0.  1.
          1   -1    0    0  501    0  0.00000000000E+00 -0.00000000000E+00 -0.42601603871E+02  0.42601603871E+02  0.00000000000E+00 0. -1.
         23    2    1    2    0    0 -0.16568795923E+02  0.69820456756E+02  0.50260343952E+03  0.51590872676E+03  0.91663382837E+02 0.  0.
         23    2    1    2    0    0  0.16568795923E+02 -0.69820456756E+02  0.10867080268E+03  0.18056872318E+03  0.12508516801E+03 0.  0.
          5    1    4    4  502    0  0.56764059759E+02 -0.34015047669E+01  0.15240274589E+02  0.59020903793E+02  0.41800000000E+01 0.  1.
         -5    1    4    4    0  502 -0.40195263836E+02 -0.66418951990E+02  0.93430528091E+02  0.12154781939E+03  0.41800000000E+01 0.  1.
        -11    1    3    3    0    0 -0.50600983513E+02  0.29290547257E+02  0.33761023725E+03  0.34263547392E+03  0.00000000000E+00 0.  1.
         11    1    3    3    0    0  0.34032187590E+02  0.40529909499E+02  0.16499320227E+03  0.17327325284E+03  0.00000000000E+00 0. -1.
</event>
<event>
 7    1  0.5900800E-006  0.1157184E+03  0.7561462E-02  0.1250332E+00
         -2   -1    0    0    0  501 -0.00000000000E+00  0.00000000000E+00  0.22767744946E+02  0.22767744946E+02  0.00000000000E+00 0.  1.
          2   -1    0    0  501    0  0.00000000000E+00 -0.00000000000E+00 -0.93956359510E+03  0.93956359510E+03  0.00000000000E+00 0. -1.
         23    2    1    2    0    0 -0.53564884289E+01  0.46711880078E+01 -0.12518201449E+03  0.15523342835E+03  0.91522503023E+02 0.  0.
          5    1    1    2  502    0  0.46825607127E+02 -0.66984254747E+02 -0.37985392328E+03  0.38856917440E+03  0.41800000000E+01 0. -1.
         -5    1    1    2    0  502 -0.41469118698E+02  0.62313066739E+02 -0.41175991238E+03  0.41852873729E+03  0.41800000000E+01 0.  1.
        -11    1    3    3    0    0 -0.15606226410E+02  0.37300195101E+02 -0.11113199006E+03  0.11825894500E+03  0.00000000000E+00 0.  1.
         11    1    3    3    0    0  0.10249737981E+02 -0.32629007093E+02 -0.14050024429E+02  0.36974483350E+02  0.00000000000E+00 0. -1.
</event>
<event>
 7    1  0.5900800E-006  0.2201161E+03  0.7561462E-02  0.1133796E+00
          2   -1    0    0  501    0  0.00000000000E+00  0.00000000000E+00  0.50565278072E+03  0.50565278072E+03  0.00000000000E+00 0. -1.
         -2   -1    0    0    0  501 -0.00000000000E+00 -0.00000000000E+00 -0.12066094881E+03  0.12066094881E+03  0.00000000000E+00 0.  1.
         23    2    1    2    0    0  0.10017476332E+02 -0.11564535680E+03  0.58697029567E+02  0.15801423338E+03  0.89715986813E+02 0.  0.
          5    1    1    2  502    0  0.13557480728E+03  0.49923011654E+02  0.57414967207E+02  0.15552101569E+03  0.41800000000E+01 0. -1.
         -5    1    1    2    0  502 -0.14559228361E+03  0.65722345147E+02  0.26887983514E+03  0.31277848047E+03  0.41800000000E+01 0.  1.
        -11    1    3    3    0    0  0.36797209357E+02 -0.34451876933E+02  0.51740220275E+02  0.72235841760E+02  0.00000000000E+00 0.  1.
         11    1    3    3    0    0 -0.26779733025E+02 -0.81193479868E+02  0.69568092928E+01  0.85778391623E+02  0.00000000000E+00 0. -1.
</event>
<event>
 8    1  0.5900800E-006  0.1045563E+03  0.7561462E-02  0.1270996E+00
          1   -1    0    0  501    0  0.00000000000E+00  0.00000000000E+00  0.17182271772E+03  0.17182271772E+03  0.00000000000E+00 0. -1.
         -1   -1    0    0    0  501 -0.00000000000E+00 -0.00000000000E+00 -0.11452193235E+03  0.11452193235E+03  0.00000000000E+00 0.  1.
         23    2    1    2    0    0  0.39563219830E+02 -0.59983356761E+01 -0.55195418842E+02  0.11341520586E+03  0.90637995706E+02 0.  0.
         23    2    1    2    0    0 -0.39563219830E+02  0.59983356761E+01  0.11249620422E+03  0.17292944421E+03  0.12509183954E+03 0.  0.
          5    1    4    4  502    0 -0.74263745055E+02 -0.30895741489E+01  0.11470811648E+03  0.13674821273E+03  0.41800000000E+01 0. -1.
         -5    1    4    4    0  502  0.34700525225E+02  0.90879098250E+01 -0.22119122638E+01  0.36181231485E+02  0.41800000000E+01 0. -1.
        -11    1    3    3    0    0 -0.28639326438E+02  0.61118393425E+01 -0.11187136758E+02  0.31348327353E+02  0.00000000000E+00 0.  1.
         11    1    3    3    0    0  0.68202546268E+02 -0.12110175019E+02 -0.44008282083E+02  0.82066878510E+02  0.00000000000E+00 0. -1.
</event>
<event>
 8    1  0.5900800E-006  0.1147836E+03  0.7561462E-02  0.1251959E+00
         -1   -1    0    0    0  501 -0.00000000000E+00  0.00000000000E+00  0.19032526829E+03  0.19032526829E+03  0.00000000000E+00 0.  1.
          1   -1    0    0  501    0  0.00000000000E+00 -0.00000000000E+00 -0.24909562966E+03  0.24909562966E+03  0.00000000000E+00 0. -1.
         23    2    1    2    0    0 -0.69911712204E+02 -0.10567205083E+01  0.14970667716E+03  0.18643867284E+03  0.86362754603E+02 0.  0.
         23    2    1    2    0    0  0.69911712204E+02  0.10567205083E+01 -0.20847703853E+03  0.25298222510E+03  0.12509423034E+03 0.  0.
          5    1    4    4  502    0 -0.12344348471E+02  0.39333026341E+02 -0.25362756146E+02  0.48582010041E+02  0.41800000000E+01 0. -1.
         -5    1    4    4    0  502  0.82256060675E+02 -0.38276305833E+02 -0.18311428238E+03  0.20440021506E+03  0.41800000000E+01 0. -1.
        -11    1    3    3    0    0  0.99921333711E+01  0.12773444118E+02  0.73122496750E+02  0.74899286612E+02  0.00000000000E+00 0.  1.
         11    1    3    3    0    0 -0.79903845576E+02 -0.13830164626E+02  0.76584180414E+02  0.11153938623E+03  0.00000000000E+00 0. -1.
</event>
<event>
 8    1  0.5900800E-006  0.1110576E+03  0.7561462E-02  0.1258624E+00
         -2   -1    0    0    0  501 -0.00000000000E+00  0.00000000000E+00  0.19983626790E+02  0.19983626790E+02  0.00000000000E+00 0. -1.
          2   -1    0    0  501    0  0.00000000000E+00 -0.00000000000E+00 -0.70152149457E+03  0.70152149457E+03  0.00000000000E+00 0.  1.
         23    2    1    2    0    0 -0.21320237846E+01  0.22094984005E+02 -0.21087287368E+03  0.23399589845E+03  0.98964527962E+02 0.  0.
         23    2    1    2    0    0  0.21320237846E+01 -0.22094984005E+02 -0.47066499410E+03  0.48750922291E+03  0.12508785675E+03 0.  0.
          5    1    4    4  502    0 -0.60413467027E+02  0.51165006654E-01 -0.22293551626E+03  0.23101408274E+03  0.41800000000E+01 0. -1.
         -5    1    4    4    0  502  0.62545490811E+02 -0.22146149012E+02 -0.24772947785E+03  0.25649514017E+03  0.41800000000E+01 0. -1.
        -11    1    3    3    0    0  0.25080636043E+02  0.50099559830E+02 -0.16214888848E+03  0.17155543196E+03  0.00000000000E+00 0.  1.
         11    1    3    3    0    0 -0.27212659828E+02 -0.28004575825E+02 -0.48723985200E+02  0.62440466493E+02  0.00000000000E+00 0. -1.
</event>
<event>
 8    1  0.5900800E-006  0.1494253E+03  0.7561462E-02  0.1201181E+00
          2   -1    0    0  501    0  0.00000000000E+00  0.00000000000E+00  0.10662399132E+04  0.10662399132E+04  0.00000000000E+00 0. -1.
         -2   -1    0    0    0  501 -0.00000000000E+00 -0.00000000000E+00 -0.30643786178E+02  0.30643786178E+02  0.00000000000E+00 0.  1.
         23    2    1    2    0    0 -0.31206954006E+02  0.14060594342E+03  0.41590732252E+03  0.44849703423E+03  0.86178787894E+02 0.  0.
         23    2    1    2    0    0  0.31206954006E+02 -0.14060594342E+03  0.61968880454E+03  0.64838666519E+03  0.12508855990E+03 0.  0.
          5    1    4    4  502    0  0.45197057091E+02 -0.12495365589E+03  0.61098233025E+03  0.62527839429E+03  0.41800000000E+01 0. -1.
         -5    1    4    4    0  502 -0.13990103084E+02 -0.15652287532E+02  0.87064742914E+01  0.23108270898E+02  0.41800000000E+01 0. -1.
        -11    1    3    3    0    0 -0.24611958666E+02  0.84519143989E+02  0.12957675147E+03  0.15665046674E+03  0.00000000000E+00 0.  1.
         11    1    3    3    0    0 -0.65949953409E+01  0.56086799431E+02  0.28633057105E+03  0.29184656748E+03  0.00000000000E+00 0. -1.
</event>
<event>
 8    1  0.5900800E-006  0.1103840E+03  0.7561462E-02  0.1259860E+00
         -2   -1    0    0    0  501 -0.00000000000E+00  0.00000000000E+00  0.23594277014E+02  0.23594277014E+02  0.00000000000E+00 0.  1.
          2   -1    0    0  501    0  0.00000000000E+00 -0.00000000000E+00 -0.74853075898E+03  0.74853075898E+03  0.00000000000E+00 0. -1.
         23    2    1    2    0    0 -0.39212342961E+01  0.69955843235E+02 -0.26830712293E+03  0.29351565584E+03  0.96195280156E+02 0.  0.
         23    2    1    2    0    0  0.39212342961E+01 -0.69955843235E+02 -0.45662935904E+03  0.47860938016E+03  0.12508945264E+03 0.  0.
          5    1    4    4  502    0 -0.31997234129E+02  0.40733251927E+01 -0.29884599281E+03  0.30061073631E+03  0.41800000000E+01 0.  1.
         -5    1    4    4    0  502  0.35918468425E+02 -0.74029168428E+02 -0.15778336623E+03  0.17799864385E+03  0.41800000000E+01 0.  1.
        -11    1    3    3    0    0 -0.32433303478E+02  0.23931366876E+01 -0.30233978335E+02  0.44404275962E+02  0.00000000000E+00 0.  1.
         11    1    3    3    0    0  0.28512069182E+02  0.67562706548E+02 -0.23807314460E+03  0.24911137988E+03  0.00000000000E+00 0. -1.
</event>
<event>
 8    1  0.5900800E-006  0.1157592E+03  0.7561462E-02  0.1250262E+00
          4   -1    0    0  501    0  0.00000000000E+00  0.00000000000E+00  0.98547696457E+02  0.98547696457E+02  0.00000000000E+00 0. -1.
         -4   -1    0    0    0  501 -0.00000000000E+00 -0.00000000000E+00 -0.23235586240E+03  0.23235586240E+03  0.00000000000E+00 0.  1.
         23    2    1    2    0    0 -0.94203311890E+02  0.22392250398E+02 -0.10466248576E+03  0.17005511660E+03  0.92675940291E+02 0.  0.
         23    2    1    2    0    0  0.94203311890E+02 -0.22392250398E+02 -0.29145680186E+02  0.16084844225E+03  0.12508826425E+03 0.  0.
          5    1    4    4  502    0  0.23811227689E+02 -0.84222540281E+01 -0.72509082050E+02  0.76895697583E+02  0.41800000000E+01 0.  1.
         -5    1    4    4    0  502  0.70392084201E+02 -0.13969996370E+02  0.43363401864E+02  0.83952744672E+02  0.41800000000E+01 0.  1.
        -11    1    3    3    0    0 -0.10243593214E+03  0.43564537165E+02 -0.87072387248E+02  0.14132441301E+03  0.00000000000E+00 0. -1.
         11    1    3    3    0    0  0.82326202527E+01 -0.21172286767E+02 -0.17590098511E+02  0.28730703591E+02  0.00000000000E+00 0.  1.
</event>
<event>
 8    1  0.5900800E-006  0.1235279E+03  0.7561462E-02  0.1237388E+00
          1   -1    0    0  501    0  0.00000000000E+00  0.00000000000E+00  0.49018804924E+03  0.49018804924E+03  0.00000000000E+00 0. -1.
         -1   -1    0    0    0  501 -0.00000000000E+00 -0.00000000000E+00 -0.34323801529E+02  0.34323801529E+02  0.00000000000E+00 0.  1.
         23    2    1    2    0    0  0.72248994287E+02  0.14809723413E+02  0.20029373001E+03  0.23056837132E+03  0.87206367236E+02 0.  0.
         23    2    1    2    0    0 -0.72248994287E+02 -0.14809723413E+02  0.25557051769E+03  0.29394347945E+03  0.12508890643E+03 0.  0.
          5    1    4    4  502    0 -0.48102047224E+01  0.48167688737E+02  0.56704534263E+02  0.74673562348E+02  0.41800000000E+01 0.  1.
         -5    1    4    4    0  502 -0.67438789565E+02 -0.62977412149E+02  0.19886598343E+03  0.21926991710E+03  0.41800000000E+01 0.  1.
        -11    1    3    3    0    0 -0.15176964685E+02 -0.58541721473E+01  0.75834567223E+01  0.17947713070E+02  0.00000000000E+00 0.  1.
         11    1    3    3    0    0  0.87425958972E+02  0.20663895560E+02  0.19271027329E+03  0.21262065825E+03  0.00000000000E+00 0. -1.
</event>
<event>
 8    1  0.5900800E-006  0.1267453E+03  0.7561462E-02  0.1232367E+00
          1   -1    0    0  501    0  0.00000000000E+00  0.00000000000E+00  0.21869941953E+03  0.21869941953E+03  0.00000000000E+00 0. -1.
         -1   -1    0    0    0  501 -0.00000000000E+00 -0.00000000000E+00 -0.94108530871E+02  0.94108530871E+02  0.00000000000E+00 0.  1.
         23    2    1    2    0    0  0.20798603796E+02  0.63581160633E+02 -0.16075116470E+02  0.11303419842E+03  0.89683748443E+02 0.  0.
         23    2    1    2    0    0 -0.20798603796E+02 -0.63581160633E+02  0.14066600512E+03  0.19977375198E+03  0.12508989198E+03 0.  0.
          5    1    4    4  502    0  0.28832822401E+02 -0.83267322516E+02  0.90775151758E+02  0.12657953714E+03  0.41800000000E+01 0.  1.
         -5    1    4    4    0  502 -0.49631426197E+02  0.19686161882E+02  0.49890853366E+02  0.73194214837E+02  0.41800000000E+01 0.  1.
        -11    1    3    3    0    0  0.54350747354E+02  0.22882868682E+02 -0.11577921745E+02  0.60097235286E+02  0.00000000000E+00 0.  1.
         11    1    3    3    0    0 -0.33552143558E+02  0.40698291951E+02 -0.44971947243E+01  0.52936963130E+02  0.00000000000E+00 0. -1.
</event>
<event>
 8    1  0.5900800E-006  0.1321521E+03  0.7561462E-02  0.1224297E+00
         -2   -1    0    0    0  501 -0.00000000000E+00  0.00000000000E+00  0.44460049786E+02  0.44460049786E+02  0.00000000000E+00 0.  1.
          2   -1    0    0  501    0  0.00000000000E+00 -0.00000000000E+00 -0.53239662696E+03  0.53239662696E+03  0.00000000000E+00 0. -1.
         23    2    1    2    0    0 -0.93329895361E+02  0.24908058830E+02 -0.13672065035E+03  0.19171760445E+03  0.93446363552E+02 0.  0.
         23    2    1    2    0    0  0.93329895361E+02 -0.24908058830E+02 -0.35121592682E+03  0.38513907229E+03  0.12509435236E+03 0.  0.
          5    1    4    4  502    0  0.38418385705E+02 -0.72554581506E+02 -0.14841712426E+03  0.16966217856E+03  0.41800000000E+01 0. -1.
         -5    1    4    4    0  502  0.54911509656E+02  0.47646522676E+02 -0.20279880256E+03  0.21547689374E+03  0.41800000000E+01 0. -1.
        -11    1    3    3    0    0 -0.20536476810E+02 -0.15767536533E+02  0.58570933026E+01  0.26545576469E+02  0.00000000000E+00 0.  1.
         11    1    3    3    0    0 -0.72793418551E+02  0.40675595363E+02 -0.14257774365E+03  0.16517202798E+03  0.00000000000E+00 0. -1.
</event>
<event>
 8    1  0.5900800E-006  0.9837941E+02  0.7561462E-02  0.1283741E+00
          1   -1    0    0  501    0  0.00000000000E+00  0.00000000000E+00  0.83834322503E+03  0.83834322503E+03  0.00000000000E+00 0. -1.
         -1   -1    0    0    0  501 -0.00000000000E+00 -0.00000000000E+00 -0.16924744479E+02  0.16924744479E+02  0.00000000000E+00 0.  1.
         23    2    1    2    0    0  0.57920569508E+01  0.42663858385E+02  0.19001935722E+03  0.21015194119E+03  0.78757409376E+02 0.  0.
         23    2    1    2    0    0 -0.57920569508E+01 -0.42663858385E+02  0.63139912333E+03  0.64511602832E+03  0.12512427548E+03 0.  0.
          5    1    4    4  502    0 -0.87260307052E+01  0.42342446000E+02  0.14677901142E+03  0.15307049663E+03  0.41800000000E+01 0.  1.
         -5    1    4    4    0  502  0.29339737544E+01 -0.85006304384E+02  0.48462011191E+03  0.49204553169E+03  0.41800000000E+01 0.  1.
        -11    1    3    3    0    0  0.29429820701E+02  0.25682053093E+02  0.35073058821E+02  0.52495729851E+02  0.00000000000E+00 0.  1.
         11    1    3    3    0    0 -0.23637763750E+02  0.16981805292E+02  0.15494629840E+03  0.15765621134E+03  0.00000000000E+00 0. -1.
</event>
<event>
 8    1  0.5900800E-006  0.1100704E+03  0.7561462E-02  0.1260440E+00
          1   -1    0    0  501    0  0.00000000000E+00  0.00000000000E+00  0.63957308868E+02  0.63957308868E+02  0.00000000000E+00 0. -1.
         -1   -1    0    0    0  501 -0.00000000000E+00 -0.00000000000E+00 -0.19490945215E+03  0.19490945215E+03  0.00000000000E+00 0.  1.
         23    2    1    2    0    0  0.22157330436E+02 -0.10177981263E+02 -0.56801421970E+02  0.11141519812E+03  0.92695233101E+02 0.  0.
         23    2    1    2    0    0 -0.22157330436E+02  0.10177981263E+02 -0.74150721309E+02  0.14745156290E+03  0.12509634421E+03 0.  0.
          5    1    4    4  502    0 -0.14229401541E+02 -0.55816947065E+02 -0.18451324403E+02  0.60629458352E+02  0.41800000000E+01 0.  1.
         -5    1    4    4    0  502 -0.79279288957E+01  0.65994928329E+02 -0.55699396907E+02  0.86822104544E+02  0.41800000000E+01 0.  1.
        -11    1    3    3    0    0 -0.36535502394E+02 -0.47543248158E+01 -0.23807969154E+02  0.43866455691E+02  0.00000000000E+00 0.  1.
         11    1    3    3    0    0  0.58692832831E+02 -0.54236564477E+01 -0.32993452816E+02  0.67548742429E+02  0.00000000000E+00 0. -1.
</event>
<event>
 8    1  0.5900800E-006  0.1169506E+03  0.7561462E-02  0.1248214E+00
         -2   -1    0    0    0  501 -0.00000000000E+00  0.00000000000E+00  0.24642557616E+02  0.24642557616E+02  0.00000000000E+00 0.  1.
          2   -1    0    0  501    0  0.00000000000E+00 -0.00000000000E+00 -0.71092066237E+03  0.71092066237E+03  0.00000000000E+00 0. -1.
         23    2    1    2    0    0 -0.73548842938E+02 -0.15862987242E+02 -0.28747127322E+03  0.31088108268E+03  0.91357801980E+02 0.  0.
         23    2    1    2    0    0  0.73548842938E+02  0.15862987242E+02 -0.39880683153E+03  0.42468213730E+03  0.12508781797E+03 0.  0.
          5    1    4    4  502    0 -0.16656529908E+02 -0.13150162159E+02 -0.23031328798E+03  0.23132671652E+03  0.41800000000E+01 0.  1.
         -5    1    4    4    0  502  0.90205372846E+02  0.29013149401E+02 -0.16849354355E+03  0.19335542079E+03  0.41800000000E+01 0.  1.
        -11    1    3    3    0    0 -0.85709513923E+02 -0.36748386568E+02 -0.24276672556E+03  0.26006200747E+03  0.00000000000E+00 0. -1.
         11    1    3    3    0    0  0.12160670985E+02  0.20885399326E+02 -0.44704547663E+02  0.50819075214E+02  0.00000000000E+00 0.  1.
</event>
<event>
 8    1  0.5900800E-006  0.1761848E+03  0.7561462E-02  0.1171547E+00
          1   -1    0    0  501    0  0.00000000000E+00  0.00000000000E+00  0.12995521325E+03  0.12995521325E+03  0.00000000000E+00 0. -1.
         -1   -1    0    0    0  501 -0.00000000000E+00 -0.00000000000E+00 -0.42118472194E+03  0.42118472194E+03  0.00000000000E+00 0.  1.
         23    2    1    2    0    0 -0.64391218957E+02  0.15051322361E+03 -0.28944834167E+03  0.34511068464E+03  0.92307001882E+02 0.  0.
         23    2    1    2    0    0  0.64391218957E+02 -0.15051322361E+03 -0.17811670185E+01  0.20602925055E+03  0.12507765573E+03 0.  0.
          5    1    4    4  502    0  0.42693206560E+02 -0.83586594194E+02  0.60689301233E+02  0.11184852390E+03  0.41800000000E+01 0. -1.
         -5    1    4    4    0  502  0.21698012398E+02 -0.66926629418E+02 -0.62470468252E+02  0.94180726642E+02  0.41800000000E+01 0. -1.
        -11    1    3    3    0    0 -0.74276584767E+02  0.56287264494E+02 -0.14411354703E+03  0.17162162342E+03  0.00000000000E+00 0. -1.
         11    1    3    3    0    0  0.98853658097E+01  0.94225959117E+02 -0.14533479464E+03  0.17348906122E+03  0.00000000000E+00 0.  1.
</event>
<event>
 8    1  0.5900800E-006  0.1394662E+03  0.7561462E-02  0.1214049E+00
          1   -1    0    0  501    0  0.00000000000E+00  0.00000000000E+00  0.85973317749E+03  0.85973317749E+03  0.00000000000E+00 0. -1.
         -1   -1    0    0    0  501 -0.00000000000E+00 -0.00000000000E+00 -0.37188292305E+02  0.37188292305E+02  0.00000000000E+00 0.  1.
         23    2    1    2    0    0 -0.85371328754E+02  0.51620964028E+02  0.13847984334E+03  0.19439418738E+03  0.93056140985E+02 0.  0.
         23    2    1    2    0    0  0.85371328754E+02 -0.51620964028E+02  0.68406504184E+03  0.70252728242E+03  0.12508642358E+03 0.  0.
          5    1    4    4  502    0  0.64680345311E+02  0.28864286837E+02  0.41054649190E+03  0.41663243817E+03  0.41800000000E+01 0. -1.
         -5    1    4    4    0  502  0.20690983443E+02 -0.80485250865E+02  0.27351854994E+03  0.28589484425E+03  0.41800000000E+01 0. -1.
        -11    1    3    3    0    0 -0.26752078247E+02  0.59871265774E+02  0.32936091980E+02  0.73382752134E+02  0.00000000000E+00 0.  1.
         11    1    3    3    0    0 -0.58619250507E+02 -0.82503017454E+01  0.10554375136E+03  0.12101143525E+03  0.00000000000E+00 0. -1.
</event>
<event>
 8    1  0.5900800E-006  0.1329825E+03  0.7561462E-02  0.1223096E+00
          2   -1    0    0  501    0  0.00000000000E+00  0.00000000000E+00  0.58417469750E+03  0.58417469750E+03  0.00000000000E+00 0. -1.
         -2   -1    0    0    0  501 -0.00000000000E+00 -0.00000000000E+00 -0.40649868158E+02  0.40649868158E+02  0.00000000000E+00 0.  1.
         23    2    1    2    0    0  0.20589275102E+02 -0.82780521621E+02  0.11633607579E+03  0.17159906823E+03  0.92928061841E+02 0.  0.
         23    2    1    2    0    0 -0.20589275102E+02  0.82780521621E+02  0.42718875355E+03  0.45322549743E+03  0.12508631960E+03 0.  0.
          5    1    4    4  502    0 -0.51421011514E+02  0.97926704802E+02  0.26147704092E+03  0.28393921051E+03  0.41800000000E+01 0.  1.
         -5    1    4    4    0  502  0.30831736413E+02 -0.15146183180E+02  0.16571171263E+03  0.16928628691E+03  0.41800000000E+01 0.  1.
        -11    1    3    3    0    0  0.53263066138E+02 -0.62926781657E+02  0.10107375471E+03  0.13043250345E+03  0.00000000000E+00 0. -1.
         11    1    3    3    0    0 -0.32673791036E+02 -0.19853739964E+02  0.15262321082E+02  0.41166564783E+02  0.00000000000E+00 0.  1.
</event>
<event>
 8    1  0.5900800E-006  0.8419742E+02  0.7561462E-02  0.1317545E+00
          2   -1    0    0  501    0  0.00000000000E+00  0.00000000000E+00  0.22200430415E+02  0.22200430415E+02  0.00000000000E+00 0. -1.
         -2   -1    0    0    0  501 -0.00000000000E+00 -0.00000000000E+00 -0.68813955792E+03  0.68813955792E+03  0.00000000000E+00 0.  1.
         23    2    1    2    0    0  0.54851872410E+02 -0.20532133545E+02 -0.31858441293E+03  0.33697916363E+03  0.92890430863E+02 0.  0.
         23    2    1    2    0    0 -0.54851872410E+02  0.20532133545E+02 -0.34735471457E+03  0.37336082470E+03  0.12374454037E+03 0.  0.
          5    1    4    4  502    0 -0.28304339845E+02  0.37502205215E+01 -0.46903491772E+01  0.29234766690E+02  0.41800000000E+01 0. -1.
         -5    1    4    4    0  502 -0.26547532565E+02  0.16781913024E+02 -0.34266436540E+03  0.34412605801E+03  0.41800000000E+01 0.  1.
        -11    1    3    3    0    0 -0.70292059114E+01  0.28216282037E+02 -0.60239215739E+02  0.66890443417E+02  0.00000000000E+00 0.  1.
         11    1    3    3    0    0  0.61881078322E+02 -0.48748415582E+02 -0.25834519719E+03  0.27008872022E+03  0.00000000000E+00 0. -1.
</event>
<event>
 8    1  0.5900800E-006  0.3439393E+03  0.7561462E-02  0.1065130E+00
          2   -1    0    0  501    0  0.00000000000E+00  0.00000000000E+00  0.68592368225E+03  0.68592368225E+03  0.00000000000E+00 0. -1.
         -2   -1    0    0    0  501 -0.00000000000E+00 -0.00000000000E+00 -0.25721119399E+03  0.25721119399E+03  0.00000000000E+00 0.  1.
         23    2    1    2    0    0  0.25028403075E+03 -0.22922857787E+03 -0.40554312832E+02  0.35351710602E+03  0.90232228175E+02 0.  0.
         23    2    1    2    0    0 -0.25028403075E+03  0.22922857787E+03  0.46926680110E+03  0.58961777021E+03  0.11067948040E+03 0.  0.
          5    1    4    4  502    0 -0.24616860919E+03  0.22565822407E+03  0.47500998851E+03  0.58066563513E+03  0.41800000000E+01 0. -1.
         -5    1    4    4    0  502 -0.41154215537E+01  0.35703538004E+01 -0.57431874125E+01  0.89521350794E+01  0.41800000000E+01 0.  1.
        -11    1    3    3    0    0  0.15010069422E+03 -0.18305581308E+03 -0.52751819608E+02  0.24253330406E+03  0.00000000000E+00 0.  1.
         11    1    3    3    0    0  0.10018333653E+03 -0.46172764795E+02  0.12197506776E+02  0.11098380196E+03  0.00000000000E+00 0. -1.
</event>
<event>
 7    1  0.5900800E-006  0.1443888E+03  0.7561462E-02  0.1207543E+00
          2   -1    0    0  501    0  0.00000000000E+00  0.00000000000E+00  0.19935145887E+04  0.19935145887E+04  0.00000000000E+00 0. -1.
         -2   -1    0    0    0  501 -0.00000000000E+00 -0.00000000000E+00 -0.17192933560E+02  0.17192933560E+02  0.00000000000E+00 0.  1.
         23    2    1    2    0    0 -0.29007757253E+02 -0.47571932345E+02  0.22166487923E+03  0.24585252258E+03  0.90573756939E+02 0.  0.
          5    1    1    2  502    0  0.59215612370E+00  0.11210212269E+03  0.12889071709E+04  0.12937798901E+04  0.41800000000E+01 0. -1.
         -5    1    1    2    0  502  0.28415601129E+02 -0.64530190344E+02  0.46574960502E+03  0.47107510954E+03  0.41800000000E+01 0.  1.
        -11    1    3    3    0    0  0.24119523375E+02  0.11323846352E+02  0.65115037949E+02  0.70355874461E+02  0.00000000000E+00 0. -1.
         11    1    3    3    0    0 -0.53127280628E+02 -0.58895778697E+02  0.15654984128E+03  0.17549664812E+03  0.00000000000E+00 0.  1.
</event>
<event>
 8    1  0.5900800E-006  0.1260142E+03  0.7561462E-02  0.1233493E+00
          4   -1    0    0  501    0  0.00000000000E+00  0.00000000000E+00  0.42692285160E+03  0.42692285160E+03  0.00000000000E+00 0. -1.
         -4   -1    0    0    0  501 -0.00000000000E+00 -0.00000000000E+00 -0.58862071322E+02  0.58862071322E+02  0.00000000000E+00 0.  1.
         23    2    1    2    0    0 -0.91988528344E+02 -0.33209799982E+02  0.81163738517E+02  0.15787367161E+03  0.93657693634E+02 0.  0.
         23    2    1    2    0    0  0.91988528344E+02  0.33209799982E+02  0.28689704176E+03  0.32791125131E+03  0.12510434046E+03 0.  0.
          5    1    4    4  502    0  0.21245354102E+02 -0.26106349491E+02  0.19375710038E+03  0.19670331187E+03  0.41800000000E+01 0.  1.
         -5    1    4    4    0  502  0.70743174242E+02  0.59316149474E+02  0.93139941383E+02  0.13120793944E+03  0.41800000000E+01 0.  1.
        -11    1    3    3    0    0 -0.47665033860E+02 -0.57871728586E+02  0.76214829459E+02  0.10691020836E+03  0.00000000000E+00 0. -1.
         11    1    3    3    0    0 -0.44323494484E+02  0.24661928604E+02  0.49489090579E+01  0.50963463252E+02  0.00000000000E+00 0.  1.
</event>
<event>
 8    1  0.5900800E-006  0.1174332E+03  0.7561462E-02  0.1247393E+00
         -2   -1    0    0    0  501 -0.00000000000E+00  0.00000000000E+00  0.47515079846E+02  0.47515079846E+02  0.00000000000E+00 0. -1.
          2   -1    0    0  501    0  0.00000000000E+00 -0.00000000000E+00 -0.34973774240E+03  0.34973774240E+03  0.00000000000E+00 0.  1.
         23    2    1    2    0    0 -0.46424753449E+01 -0.65767309257E+02 -0.10009234850E+03  0.15057316521E+03  0.91142242172E+02 0.  0.
         23    2    1    2    0    0  0.46424753449E+01  0.65767309257E+02 -0.20213031405E+03  0.24667965704E+03  0.12508915937E+03 0.  0.
          5    1    4    4  502    0  0.41226724257E+02  0.81337297474E+02 -0.17784086266E+03  0.19990058425E+03  0.41800000000E+01 0.  1.
         -5    1    4    4    0  502 -0.36584248912E+02 -0.15569988217E+02 -0.24289451390E+02  0.46779072782E+02  0.41800000000E+01 0.  1.
        -11    1    3    3    0    0  0.40921554773E+01 -0.83624234403E+02 -0.52060677113E+02  0.98590427616E+02  0.00000000000E+00 0.  1.
         11    1    3    3    0    0 -0.87346308222E+01  0.17856925146E+02 -0.48031671389E+02  0.51982737593E+02  0.00000000000E+00 0. -1.
</event>
<event>
 7    1  0.5900800E-006  0.1670987E+03  0.7561462E-02  0.1180908E+00
          1   -1    0    0  501    0  0.00000000000E+00  0.00000000000E+00  0.42916270756E+03  0.42916270756E+03  0.00000000000E+00 0. -1.
         -1   -1    0    0    0  501 -0.00000000000E+00 -0.00000000000E+00 -0.82359620450E+02  0.82359620450E+02  0.00000000000E+00 0.  1.
         23    2    1    2    0    0  0.12658180865E+03  0.45072711549E+02  0.10751132547E+03  0.19449709217E+03  0.90641768235E+02 0.  0.
          5    1    1    2  502    0 -0.17832914877E+02 -0.68576037911E+02  0.24495294462E+02  0.75087799804E+02  0.41800000000E+01 0. -1.
         -5    1    1    2    0  502 -0.10874889377E+03  0.23503326362E+02  0.21479646717E+03  0.24193743604E+03  0.41800000000E+01 0.  1.
        -11    1    3    3    0    0  0.13212633310E+03  0.29542342023E+02  0.11378513777E+03  0.17685354236E+03  0.00000000000E+00 0. -1.
         11    1    3    3    0    0 -0.55445244469E+01  0.15530369526E+02 -0.62738122938E+01  0.17643549804E+02  0.00000000000E+00 0.  1.
</event>
<event>
 8    1  0.5900800E-006  0.1462551E+03  0.7561462E-02  0.1205152E+00
          2   -1    0    0  501    0  0.00000000000E+00  0.00000000000E+00  0.19069132884E+04  0.19069132884E+04  0.00000000000E+00 0. -1.
         -2   -1    0    0    0  501 -0.00000000000E+00 -0.00000000000E+00 -0.20808827168E+02  0.20808827168E+02  0.00000000000E+00 0.  1.
         23    2    1    2    0    0  0.45250671436E+02  0.12056576277E+03  0.39578753216E+03  0.42695877221E+03  0.95196093094E+02 0.  0.
         23    2    1    2    0    0 -0.45250671436E+02 -0.12056576277E+03  0.14903169291E+04  0.15007633434E+04  0.12108813837E+03 0.  0.
          5    1    4    4  502    0 -0.48155803189E+02 -0.82397359925E+02  0.13904847083E+04  0.13937623551E+04  0.41800000000E+01 0. -1.
         -5    1    4    4    0  502  0.29051317526E+01 -0.38168402849E+02  0.99832220851E+02  0.10700098825E+03  0.41800000000E+01 0.  1.
        -11    1    3    3    0    0  0.34598270352E+01  0.11642836934E+03  0.31618888079E+03  0.33696133892E+03  0.00000000000E+00 0.  1.
         11    1    3    3    0    0  0.41790844401E+02  0.41373934324E+01  0.79598651365E+02  0.89997433293E+02  0.00000000000E+00 0. -1.
</event>
<event>
 8    1  0.5900800E-006  0.1356211E+03  0.7561462E-02  0.1219346E+00
          1   -1    0    0  501    0  0.00000000000E+00  0.00000000000E+00  0.29068110644E+03  0.29068110644E+03  0.00000000000E+00 0. -1.
         -1   -1    0    0    0  501 -0.00000000000E+00 -0.00000000000E+00 -0.68588883711E+02  0.68588883711E+02  0.00000000000E+00 0.  1.
         23    2    1    2    0    0 -0.86141490868E+01  0.93769984640E+02  0.79657626043E+02  0.14760631634E+03  0.81088061108E+02 0.  0.
         23    2    1    2    0    0  0.86141490868E+01 -0.93769984640E+02  0.14243459668E+03  0.21166367381E+03  0.12508750094E+03 0.  0.
          5    1    4    4  502    0 -0.56074443322E+02 -0.59375875366E+02  0.60848125425E+02  0.10193039064E+03  0.41800000000E+01 0.  1.
         -5    1    4    4    0  502  0.64688592408E+02 -0.34394109274E+02  0.81586471259E+02  0.10973328316E+03  0.41800000000E+01 0.  1.
        -11    1    3    3    0    0 -0.24641082706E+02  0.40846465007E+01  0.42330261016E+02  0.49149957189E+02  0.00000000000E+00 0. -1.
         11    1    3    3    0    0  0.16026933620E+02  0.89685338139E+02  0.37327365027E+02  0.98456359156E+02  0.00000000000E+00 0.  1.
</event>
<event>
 8    1  0.5900800E-006  0.1051080E+03  0.7561462E-02  0.1269907E+00
         -2   -1    0    0    0  501 -0.00000000000E+00  0.00000000000E+00  0.41786697622E+02  0.41786697622E+02  0.00000000000E+00 0.  1.
          2   -1    0    0  501    0  0.00000000000E+00 -0.00000000000E+00 -0.41243505824E+03  0.41243505824E+03  0.00000000000E+00 0. -1.
         23    2    1    2    0    0 -0.45521968358E+02  0.51146342804E+02 -0.11397448866E+03  0.16059475797E+03  0.90068275427E+02 0.  0.
         23    2    1    2    0    0  0.45521968358E+02 -0.51146342804E+02 -0.25667387196E+03  0.29362699789E+03  0.12508852608E+03 0.  0.
          5    1    4    4  502    0  0.45120403073E+02  0.13755623170E+01 -0.17300609502E+02  0.48523462719E+02  0.41800000000E+01 0.  1.
         -5    1    4    4    0  502  0.40156528520E+00 -0.52521905121E+02 -0.23937326246E+03  0.24510353517E+03  0.41800000000E+01 0.  1.
        -11    1    3    3    0    0 -0.61328108404E+02  0.28714757532E+01 -0.51957233228E+02  0.80429698110E+02  0.00000000000E+00 0.  1.
         11    1    3    3    0    0  0.15806140046E+02  0.48274867051E+02 -0.62017255430E+02  0.80165059864E+02  0.00000000000E+00 0. -1.
</event>
<event>
 8    1  0.5900800E-006  0.9999025E+02  0.7561462E-02  0.1280316E+00
         -1   -1    0    0    0  501 -0.00000000000E+00  0.00000000000E+00  0.26741358053E+03  0.26741358053E+03  0.00000000000E+00 0.  1.
          1   -1    0    0  501    0  0.00000000000E+00 -0.00000000000E+00 -0.81307906312E+02  0.81307906312E+02  0.00000000000E+00 0. -1.
         23    2    1    2    0    0 -0.99180888677E+01  0.33359430447E+02  0.19548815024E+03  0.21854273691E+03  0.91291242106E+02 0.  0.
         23    2    1    2    0    0  0.99180888677E+01 -0.33359430447E+02 -0.93824760203E+01  0.13017874993E+03  0.12508899229E+03 0.  0.
          5    1    4    4  502    0  0.38810460174E+02  0.19686373371E+02  0.34258496147E+02  0.55542074806E+02  0.41800000000E+01 0.  1.
         -5    1    4    4    0  502 -0.28892371307E+02 -0.53045803818E+02 -0.43640972168E+02  0.74636675128E+02  0.41800000000E+01 0.  1.
        -11    1    3    3    0    0  0.33643025641E+02 -0.91326251796E+01  0.51137436392E+02  0.61889380492E+02  0.00000000000E+00 0. -1.
         11    1    3    3    0    0 -0.43561114508E+02  0.42492055627E+02  0.14435071385E+03  0.15665335642E+03  0.00000000000E+00 0.  1.
</event>
<event>
 8    1  0.5900800E-006  0.6431650E+02  0.7561462E-02  0.1380561E+00
          1   -1    0    0  501    0  0.00000000000E+00  0.00000000000E+00  0.20005484674E+03  0.20005484674E+03  0.00000000000E+00 0. -1.
         -1   -1    0    0    0  501 -0.00000000000E+00 -0.00000000000E+00 -0.64935258487E+02  0.64935258487E+02  0.00000000000E+00 0.  1.
         23    2    1    2    0    0 -0.18580507422E+02 -0.27178551838E+02  0.45691573904E+02  0.10773443700E+03  0.91842691891E+02 0.  0.
         23    2    1    2    0    0  0.18580507422E+02  0.27178551838E+02  0.89428014345E+02  0.15725566822E+03  0.12509223198E+03 0.  0.
          5    1    4    4  502    0 -0.10106979342E+02 -0.54435347947E+01 -0.28770803966E+02  0.31257233776E+02  0.41800000000E+01 0.  1.
         -5    1    4    4    0  502  0.28687486764E+02  0.32622086633E+02  0.11819881831E+03  0.12599843445E+03  0.41800000000E+01 0.  1.
        -11    1    3    3    0    0 -0.10663827273E+02  0.21211060855E+02  0.53080600882E+02  0.58147884783E+02  0.00000000000E+00 0. -1.
         11    1    3    3    0    0 -0.79166801492E+01 -0.48389612693E+02 -0.73890269778E+01  0.49586552218E+02  0.00000000000E+00 0.  1.
</event>
<event>
 7    1  0.5900800E-006  0.1719864E+03  0.7561462E-02  0.1175792E+00
         -1   -1    0    0    0  501 -0.00000000000E+00  0.00000000000E+00  0.28298459554E+03  0.28298459554E+03  0.00000000000E+00 0.  1.
          1   -1    0    0  501    0  0.00000000000E+00 -0.00000000000E+00 -0.16898181758E+03  0.16898181758E+03  0.00000000000E+00 0. -1.
         23    2    1    2    0    0  0.13008232853E+03 -0.69568851818E+02  0.16702895397E+03  0.23877094340E+03  0.85741790328E+02 0.  0.
          5    1    1    2  502    0 -0.83788582277E+02  0.10747863543E+03 -0.66534765450E+02  0.15171200021E+03  0.41800000000E+01 0. -1.
         -5    1    1    2    0  502 -0.46293746250E+02 -0.37909783608E+02  0.13508589451E+02  0.61483469518E+02  0.41800000000E+01 0.  1.
        -11    1    3    3    0    0  0.41630612309E+02 -0.19004685978E+02  0.32384818859E+01  0.45877813104E+02  0.00000000000E+00 0. -1.
         11    1    3    3    0    0  0.88451716218E+02 -0.50564165840E+02  0.16379047208E+03  0.19289313029E+03  0.00000000000E+00 0.  1.
</event>
<event>
 8    1  0.5900800E-006  0.8901302E+02  0.7561462E-02  0.1305260E+00
          1   -1    0    0  501    0  0.00000000000E+00  0.00000000000E+00  0.80129167735E+02  0.80129167735E+02  0.00000000000E+00 0. -1.
         -1   -1    0    0    0  501 -0.00000000000E+00 -0.00000000000E+00 -0.15470260914E+03  0.15470260914E+03  0.00000000000E+00 0.  1.
         23    2    1    2    0    0  0.28177349199E+02  0.17642981151E+02 -0.45256412049E+02  0.10592661681E+03  0.89816855463E+02 0.  0.
         23    2    1    2    0    0 -0.28177349199E+02 -0.17642981151E+02 -0.29317029353E+02  0.12890516006E+03  0.12104467890E+03 0.  0.
          5    1    4    4  502    0 -0.27932018836E+02 -0.61426414289E+02  0.11876917121E+02  0.68643540184E+02  0.41800000000E+01 0. -1.
         -5    1    4    4    0  502 -0.24533036263E+00  0.43783433137E+02 -0.41193946474E+02  0.60261619879E+02  0.41800000000E+01 0.  1.
        -11    1    3    3    0    0  0.40405176593E+02  0.29008825577E+02 -0.63850284708E+02  0.80937933715E+02  0.00000000000E+00 0.  1.
         11    1    3    3    0    0 -0.12227827394E+02 -0.11365844426E+02  0.18593872659E+02  0.24988683093E+02  0.00000000000E+00 0. -1.
</event>
<event>
 8    1  0.5900800E-006  0.1422257E+03  0.7561462E-02  0.1210365E+00
         -3   -1    0    0    0  501 -0.00000000000E+00  0.00000000000E+00  0.10510109740E+03  0.10510109740E+03  0.00000000000E+00 0.  1.
          3   -1    0    0  501    0  0.00000000000E+00 -0.00000000000E+00 -0.21865600268E+03  0.21865600268E+03  0.00000000000E+00 0. -1.
         23    2    1    2    0    0 -0.59926551555E+02 -0.83281679025E+02 -0.66129118012E+02  0.15516283711E+03  0.95788392455E+02 0.  0.
         23    2    1    2    0    0  0.59926551555E+02  0.83281679025E+02 -0.47425787269E+02  0.16859426297E+03  0.12509112904E+03 0.  0.
          5    1    4    4  502    0  0.25458275985E+02 -0.29603077236E+02  0.46062632075E+01  0.39536768440E+02  0.41800000000E+01 0. -1.
         -5    1    4    4    0  502  0.34468275570E+02  0.11288475626E+03 -0.52032050477E+02  0.12905749453E+03  0.41800000000E+01 0. -1.
        -11    1    3    3    0    0 -0.53954847034E+02 -0.97625352282E+02 -0.29504950976E+02  0.11537927482E+03  0.00000000000E+00 0.  1.
         11    1    3    3    0    0 -0.59717045209E+01  0.14343673256E+02 -0.36624167036E+02  0.39783562289E+02  0.00000000000E+00 0. -1.
</event>
<event>
 8    1  0.5900800E-006  0.1076017E+03  0.7561462E-02  0.1265077E+00
         -2   -1    0    0    0  501 -0.00000000000E+00  0.00000000000E+00  0.99948893990E+01  0.99948893990E+01  0.00000000000E+00 0.  1.
          2   -1    0    0  501    0  0.00000000000E+00 -0.00000000000E+00 -0.13991555039E+04  0.13991555039E+04  0.00000000000E+00 0. -1.
         23    2    1    2    0    0  0.16614022321E+02  0.30638616936E+02 -0.40678558066E+03  0.41823039690E+03  0.90705047670E+02 0.  0.
         23    2    1    2    0    0 -0.16614022321E+02 -0.30638616936E+02 -0.98237503380E+03  0.99091999636E+03  0.12508789535E+03 0.  0.
          5    1    4    4  502    0  0.34390800721E+02 -0.53086296544E+02 -0.32171546489E+03  0.32790119671E+03  0.41800000000E+01 0. -1.
         -5    1    4    4    0  502 -0.51004823042E+02  0.22447679608E+02 -0.66065956891E+03  0.66301879965E+03  0.41800000000E+01 0. -1.
        -11    1    3    3    0    0 -0.32072208563E+02 -0.88189638797E+01 -0.11088484630E+03  0.11576635878E+03  0.00000000000E+00 0.  1.
         11    1    3    3    0    0  0.48686230884E+02  0.39457580815E+02 -0.29590073436E+03  0.30246403812E+03  0.00000000000E+00 0. -1.
</event>
<event>
 8    1  0.5900800E-006  0.8677893E+02  0.7561462E-02  0.1310845E+00
          1   -1    0    0  501    0  0.00000000000E+00  0.00000000000E+00  0.12919649986E+03  0.12919649986E+03  0.00000000000E+00 0.  1.
         -1   -1    0    0    0  501 -0.00000000000E+00 -0.00000000000E+00 -0.14232646576E+03  0.14232646576E+03  0.00000000000E+00 0. -1.
         23    2    1    2    0    0  0.15731991921E+02 -0.24067279229E+02 -0.81827003036E+02  0.12594283746E+03  0.91319277167E+02 0.  0.
         23    2    1    2    0    0 -0.15731991921E+02  0.24067279229E+02  0.68697037134E+02  0.14558012816E+03  0.12509021266E+03 0.  0.
          5    1    4    4  502    0 -0.63370539507E+02 -0.12964410783E+02  0.51247750312E+02  0.82629931238E+02  0.41800000000E+01 0. -1.
         -5    1    4    4    0  502  0.47638547586E+02  0.37031690012E+02  0.17449286823E+02  0.62950196917E+02  0.41800000000E+01 0. -1.
        -11    1    3    3    0    0  0.22817420421E+02  0.36204948116E+00 -0.94716868483E+02  0.97427157045E+02  0.00000000000E+00 0. -1.
         11    1    3    3    0    0 -0.70854284997E+01 -0.24429328710E+02  0.12889865448E+02  0.28515680415E+02  0.00000000000E+00 0.  1.
</event>
<event>
 8    1  0.5900800E-006  0.7615647E+02  0.7561462E-02  0.1340327E+00
          3   -1    0    0  501    0  0.00000000000E+00  0.00000000000E+00  0.61643394250E+03  0.61643394250E+03  0.00000000000E+00 0. -1.
         -3   -1    0    0    0  501 -0.00000000000E+00 -0.00000000000E+00 -0.47060975121E+02  0.47060975121E+02  0.00000000000E+00 0.  1.
         23    2    1    2    0    0 -0.95996944709E-01  0.98265419990E+01  0.12607852045E+02  0.92765892248E+02  0.91378239687E+02 0.  0.
         23    2    1    2    0    0  0.95996944709E-01 -0.98265419990E+01  0.55676511534E+03  0.57072902538E+03  0.12509059360E+03 0.  0.
          5    1    4    4  502    0 -0.28541523795E+01 -0.38680645752E+02  0.52875261702E+03  0.53018972165E+03  0.41800000000E+01 0.  1.
         -5    1    4    4    0  502  0.29501493243E+01  0.28854103753E+02  0.28012498319E+02  0.40539303724E+02  0.41800000000E+01 0.  1.
        -11    1    3    3    0    0 -0.24848944833E+02 -0.28851820762E+02  0.24565096763E+02  0.45313812459E+02  0.00000000000E+00 0.  1.
         11    1    3    3    0    0  0.24752947888E+02  0.38678362761E+02 -0.11957244718E+02  0.47452079789E+02  0.00000000000E+00 0. -1.
</event>
<event>
 8    1  0.5900800E-006  0.1170781E+03  0.7561462E-02  0.1247997E+00
          2   -1    0    0  501    0  0.00000000000E+00  0.00000000000E+00  0.17948436861E+03  0.17948436861E+03  0.00000000000E+00 0. -1.
         -2   -1    0    0    0  501 -0.00000000000E+00 -0.00000000000E+00 -0.12503010722E+03  0.12503010722E+03  0.00000000000E+00 0.  1.
         23    2    1    2    0    0  0.70632827075E+02  0.22824094505E+02 -0.47606472934E+02  0.12682356900E+03  0.91147714391E+02 0.  0.
         23    2    1    2    0    0 -0.70632827075E+02 -0.22824094505E+02  0.10206073433E+03  0.17769090683E+03  0.12509088427E+03 0.  0.
          5    1    4    4  502    0 -0.34009407835E+02 -0.68160392841E+02  0.90081528854E+02  0.11804504739E+03  0.41800000000E+01 0. -1.
         -5    1    4    4    0  502 -0.36623419240E+02  0.45336298336E+02  0.11979205473E+02  0.59645859432E+02  0.41800000000E+01 0. -1.
        -11    1    3    3    0    0  0.53088420897E+02  0.46085502285E+02 -0.62531497175E+02  0.94087417294E+02  0.00000000000E+00 0.  1.
         11    1    3    3    0    0  0.17544406179E+02 -0.23261407780E+02  0.14925024241E+02  0.32736151708E+02  0.00000000000E+00 0. -1.
</event>
<event>
 8    1  0.5900800E-006  0.1164813E+03  0.7561462E-02  0.1249017E+00
          2   -1    0    0  501    0  0.00000000000E+00  0.00000000000E+00  0.12707693596E+03  0.12707693596E+03  0.00000000000E+00 0. -1.
         -2   -1    0    0    0  501 -0.00000000000E+00 -0.00000000000E+00 -0.14570350493E+03  0.14570350493E+03  0.00000000000E+00 0.  1.
         23    2    1    2    0    0  0.77902217678E+02 -0.64900099898E+01 -0.32668303960E+02  0.12460762794E+03  0.91372682501E+02 0.  0.
         23    2    1    2    0    0 -0.77902217678E+02  0.64900099898E+01  0.14041734992E+02  0.14817281295E+03  0.12508851437E+03 0.  0.
          5    1    4    4  502    0 -0.65730451333E+02 -0.53688355113E+02  0.16605708112E+02  0.86580330613E+02  0.41800000000E+01 0. -1.
         -5    1    4    4    0  502 -0.12171766345E+02  0.60178365103E+02 -0.25639731196E+01  0.61592482338E+02  0.41800000000E+01 0. -1.
        -11    1    3    3    0    0  0.82539866937E+01 -0.14150943709E+02 -0.49842121687E+02  0.52465365704E+02  0.00000000000E+00 0.  1.
         11    1    3    3    0    0  0.69648230984E+02  0.76609337193E+01  0.17173817727E+02  0.72142262232E+02  0.00000000000E+00 0. -1.
</event>
<event>
 8    1  0.5900800E-006  0.1032757E+03  0.7561462E-02  0.1273555E+00
          1   -1    0    0  501    0  0.00000000000E+00  0.00000000000E+00  0.36119102287E+03  0.36119102287E+03  0.00000000000E+00 0. -1.
         -1   -1    0    0    0  501 -0.00000000000E+00 -0.00000000000E+00 -0.42152222745E+02  0.42152222745E+02  0.00000000000E+00 0.  1.
         23    2    1    2    0    0 -0.48994577032E+02  0.14165279532E+02  0.10739314456E+03  0.15225117146E+03  0.95110504097E+02 0.  0.
         23    2    1    2    0    0  0.48994577032E+02 -0.14165279532E+02  0.21164565557E+03  0.25109207416E+03  0.12510884246E+03 0.  0.
          5    1    4    4  502    0 -0.20373668171E+02 -0.20344588037E+02  0.91073515939E+00  0.29108254082E+02  0.41800000000E+01 0. -1.
         -5    1    4    4    0  502  0.69368245203E+02  0.61793085054E+01  0.21073492041E+03  0.22198382008E+03  0.41800000000E+01 0. -1.
        -11    1    3    3    0    0 -0.74202802760E+02 -0.73253449992E+01  0.78884226941E+02  0.10854693859E+03  0.00000000000E+00 0.  1.
         11    1    3    3    0    0  0.25208225728E+02  0.21490624531E+02  0.28508917619E+02  0.43704232871E+02  0.00000000000E+00 0. -1.
</event>
<event>
 8    1  0.5900800E-006  0.8612655E+02  0.7561462E-02  0.1312513E+00
          1   -1    0    0  501    0  0.00000000000E+00  0.00000000000E+00  0.37026544805E+03  0.37026544805E+03  0.00000000000E+00 0. -1.
         -1   -1    0    0    0  501 -0.00000000000E+00 -0.00000000000E+00 -0.51271615035E+02  0.51271615035E+02  0.00000000000E+00 0.  1.
         23    2    1    2    0    0 -0.73592769342E+02  0.14284678947E+02  0.94680061613E+02  0.15398440251E+03  0.95534990435E+02 0.  0.
         23    2    1    2    0    0  0.73592769342E+02 -0.14284678947E+02  0.22431377140E+03  0.26755266057E+03  0.12509120827E+03 0.  0.
          5    1    4    4  502    0  0.45025501027E+02 -0.74451452579E+01  0.48404462187E+01  0.46082841169E+02  0.41800000000E+01 0. -1.
         -5    1    4    4    0  502  0.28567268316E+02 -0.68395336895E+01  0.21947332518E+03  0.22146981940E+03  0.41800000000E+01 0. -1.
        -11    1    3    3    0    0  0.95227803056E+01 -0.59273498697E+01 -0.12539854071E+02  0.16824528562E+02  0.00000000000E+00 0.  1.
         11    1    3    3    0    0 -0.83115549648E+02  0.20212028817E+02  0.10721991568E+03  0.13715987395E+03  0.00000000000E+00 0. -1.
</event>
<event>
 8    1  0.7634538E-006  0.1350234E+03  0.7561462E-02  0.1220187E+00
          2   -1    0    0  501    0  0.00000000000E+00  0.00000000000E+00  0.62407412659E+02  0.62407412659E+02  0.00000000000E+00 0. -1.
         -2   -1    0    0    0  501 -0.00000000000E+00 -0.00000000000E+00 -0.37417060667E+03  0.37417060667E+03  0.00000000000E+00 0.  1.
         23    2    1    2    0    0 -0.10293286466E+03  0.13291267656E+02 -0.18232912522E+03  0.22879847217E+03  0.91285259150E+02 0.  0.
         23    2    1    2    0    0  0.10293286466E+03 -0.13291267656E+02 -0.12943406879E+03  0.20777954716E+03  0.12508928664E+03 0.  0.
          5    1    4    4  502    0  0.11433952720E+03  0.27442274410E+02 -0.10988483399E+03  0.16099302794E+03  0.41800000000E+01 0. -1.
         -5    1    4    4    0  502 -0.11406662541E+02 -0.40733542066E+02 -0.19549234803E+02  0.46786519222E+02  0.41800000000E+01 0. -1.
        -11    1    3    3    0    0 -0.20315857233E+02  0.17979695951E+02 -0.12553621942E+03  0.12843420848E+03  0.00000000000E+00 0.  1.
         11    1    3    3    0    0 -0.82617007427E+02 -0.46884282948E+01 -0.56792905808E+02  0.10036426369E+03  0.00000000000E+00 0. -1.
</event>
<event>
 8    1  0.5900800E-006  0.1358448E+03  0.7561462E-02  0.1219032E+00
         -2   -1    0    0    0  501 -0.00000000000E+00  0.00000000000E+00  0.66694255858E+02  0.66694255858E+02  0.00000000000E+00 0.  1.
          2   -1    0    0  501    0  0.00000000000E+00 -0.00000000000E+00 -0.31414975434E+03  0.31414975434E+03  0.00000000000E+00 0. -1.
         23    2    1    2    0    0  0.27774517045E+02 -0.86281659955E+02 -0.76791592434E+02  0.15064914439E+03  0.92640527826E+02 0.  0.
         23    2    1    2    0    0 -0.27774517045E+02  0.86281659955E+02 -0.17066390604E+03  0.23019486580E+03  0.12509020255E+03 0.  0.
          5    1    4    4  502    0  0.37995929020E+02  0.63576192525E+02 -0.12950076504E+03  0.14924323578E+03  0.41800000000E+01 0. -1.
         -5    1    4    4    0  502 -0.65770446065E+02  0.22705467430E+02 -0.41163141001E+02  0.80951630026E+02  0.41800000000E+01 0. -1.
        -11    1    3    3    0    0  0.12982210367E+02 -0.10395079085E+03 -0.71992442302E+02  0.12711103985E+03  0.00000000000E+00 0. -1.
         11    1    3    3    0    0  0.14792306678E+02  0.17669130892E+02 -0.47991501323E+01  0.23538104540E+02  0.00000000000E+00 0.  1.
</event>
<event>
 8    1  0.5900800E-006  0.1805844E+03  0.7561462E-02  0.1167239E+00
         -2   -1    0    0    0  501 -0.00000000000E+00  0.00000000000E+00  0.48752728595E+02  0.48752728595E+02  0.00000000000E+00 0.  1.
          2   -1    0    0  501    0  0.00000000000E+00 -0.00000000000E+00 -0.73240615458E+03  0.73240615458E+03  0.00000000000E+00 0. -1.
         23    2    1    2    0    0  0.13799022630E+03 -0.56720091288E+02 -0.39448710734E+03  0.43160748154E+03  0.91686798136E+02 0.  0.
         23    2    1    2    0    0 -0.13799022630E+03  0.56720091288E+02 -0.28916631865E+03  0.34955140164E+03  0.12771276850E+03 0.  0.
          5    1    4    4  502    0 -0.16109776783E+03  0.52348886407E+02 -0.22942975009E+03  0.28521637284E+03  0.41800000000E+01 0.  1.
         -5    1    4    4    0  502  0.23107541534E+02  0.43712048806E+01 -0.59736568555E+02  0.64335028799E+02  0.41800000000E+01 0.  1.
        -11    1    3    3    0    0  0.34302917237E+02 -0.54176298623E+02 -0.94544443792E+02  0.11423840561E+03  0.00000000000E+00 0.  1.
         11    1    3    3    0    0  0.10368730906E+03 -0.25437926644E+01 -0.29994266355E+03  0.31736907593E+03  0.00000000000E+00 0. -1.
</event>
<event>
 8    1  0.5900800E-006  0.1757478E+03  0.7561462E-02  0.1171983E+00
          1   -1    0    0  501    0  0.00000000000E+00  0.00000000000E+00  0.13516269127E+04  0.13516269127E+04  0.00000000000E+00 0. -1.
         -1   -1    0    0    0  501 -0.00000000000E+00 -0.00000000000E+00 -0.27143206284E+02  0.27143206284E+02  0.00000000000E+00 0.  1.
         23    2    1    2    0    0 -0.11815409801E+03 -0.87960527457E+02  0.42352612046E+03  0.45732063247E+03  0.89835076133E+02 0.  0.
         23    2    1    2    0    0  0.11815409801E+03  0.87960527457E+02  0.90095758600E+03  0.92144948655E+03  0.12508852560E+03 0.  0.
          5    1    4    4  502    0  0.41801774333E+02  0.10607727846E+03  0.49822796425E+03  0.51112459744E+03  0.41800000000E+01 0. -1.
         -5    1    4    4    0  502  0.76352323677E+02 -0.18116751001E+02  0.40272962174E+03  0.41032488912E+03  0.41800000000E+01 0. -1.
        -11    1    3    3    0    0 -0.71070976848E+02 -0.16041829147E+02  0.10787787184E+03  0.13017703049E+03  0.00000000000E+00 0.  1.
         11    1    3    3    0    0 -0.47083121163E+02 -0.71918698311E+02  0.31564824861E+03  0.32714360198E+03  0.00000000000E+00 0. -1.
</event>
<event>
 8    1  0.5900800E-006  0.1779358E+03  0.7561462E-02  0.1169816E+00
          2   -1    0    0  501    0  0.00000000000E+00  0.00000000000E+00  0.85979313770E+03  0.85979313770E+03  0.00000000000E+00 0. -1.
         -2   -1    0    0    0  501 -0.00000000000E+00 -0.00000000000E+00 -0.42250028115E+02  0.42250028115E+02  0.00000000000E+00 0.  1.
         23    2    1    2    0    0 -0.84730461877E+02 -0.12753670810E+03  0.31400270627E+03  0.36107504755E+03  0.91283225907E+02 0.  0.
         23    2    1    2    0    0  0.84730461877E+02  0.12753670810E+03  0.50354040331E+03  0.54096811826E+03  0.12509478060E+03 0.  0.
          5    1    4    4  502    0 -0.27711389928E+02  0.35691817652E+01  0.10401220181E+03  0.10778066021E+03  0.41800000000E+01 0. -1.
         -5    1    4    4    0  502  0.11244185180E+03  0.12396752633E+03  0.39952820150E+03  0.43318745805E+03  0.41800000000E+01 0. -1.
        -11    1    3    3    0    0 -0.45506916566E+02 -0.28532789917E+02  0.19085739998E+03  0.19827139653E+03  0.00000000000E+00 0. -1.
         11    1    3    3    0    0 -0.39223545311E+02 -0.99003918179E+02  0.12314530629E+03  0.16280365101E+03  0.00000000000E+00 0.  1.
</event>
<event>
 8    1  0.5900800E-006  0.7750266E+02  0.7561462E-02  0.1336292E+00
         -2   -1    0    0    0  501 -0.00000000000E+00  0.00000000000E+00  0.44448384183E+02  0.44448384183E+02  0.00000000000E+00 0.  1.
          2   -1    0    0  501    0  0.00000000000E+00 -0.00000000000E+00 -0.53881563743E+03  0.53881563743E+03  0.00000000000E+00 0. -1.
         23    2    1    2    0    0  0.20480612330E+02  0.21209418568E+02 -0.26463099569E+02  0.99231830727E+02  0.90980028981E+02 0.  0.
         23    2    1    2    0    0 -0.20480612330E+02 -0.21209418568E+02 -0.46790415368E+03  0.48403219088E+03  0.12034770404E+03 0.  0.
          5    1    4    4  502    0 -0.21702593223E+01  0.17142592950E+02 -0.41788673889E+03  0.41826472175E+03  0.41800000000E+01 0. -1.
         -5    1    4    4    0  502 -0.18310353008E+02 -0.38352011518E+02 -0.50017414786E+02  0.65767469136E+02  0.41800000000E+01 0.  1.
        -11    1    3    3    0    0  0.20064271842E+02  0.56126015529E+02 -0.93103071022E+01  0.60327327490E+02  0.00000000000E+00 0.  1.
         11    1    3    3    0    0  0.41634048803E+00 -0.34916596961E+02 -0.17152792467E+02  0.38904503238E+02  0.00000000000E+00 0. -1.
</event>
<event>
 8    1  0.5900800E-006  0.8749574E+02  0.7561462E-02  0.1309032E+00
          2   -1    0    0  501    0  0.00000000000E+00  0.00000000000E+00  0.37763531025E+03  0.37763531025E+03  0.00000000000E+00 0. -1.
         -2   -1    0    0    0  501 -0.00000000000E+00 -0.00000000000E+00 -0.41892618053E+02  0.41892618053E+02  0.00000000000E+00 0.  1.
         23    2    1    2    0    0 -0.24741116839E+02 -0.50657217328E+02  0.95154999085E+02  0.14257326774E+03  0.89968807330E+02 0.  0.
         23    2    1    2    0    0  0.24741116839E+02  0.50657217328E+02  0.24058769311E+03  0.27695466057E+03  0.12507265650E+03 0.  0.
          5    1    4    4  502    0  0.33774487942E+02  0.23520807434E+02  0.74533253050E+01  0.42035328906E+02  0.41800000000E+01 0. -1.
         -5    1    4    4    0  502 -0.90333711031E+01  0.27136409894E+02  0.23313436781E+03  0.23491933166E+03  0.41800000000E+01 0. -1.
        -11    1    3    3    0    0 -0.44829400506E+02  0.54155929900E+01  0.52862000318E+02  0.69522621317E+02  0.00000000000E+00 0.  1.
         11    1    3    3    0    0  0.20088283667E+02 -0.56072810318E+02  0.42292998767E+02  0.73050646420E+02  0.00000000000E+00 0. -1.
</event>
<event>
 8    1  0.5900800E-006  0.1186388E+03  0.7561462E-02  0.1245360E+00
         -1   -1    0    0    0  501 -0.00000000000E+00  0.00000000000E+00  0.22769737621E+02  0.22769737621E+02  0.00000000000E+00 0.  1.
          1   -1    0    0  501    0  0.00000000000E+00 -0.00000000000E+00 -0.86554137980E+03  0.86554137980E+03  0.00000000000E+00 0. -1.
         23    2    1    2    0    0 -0.87189280881E+01 -0.53968268904E+02 -0.16787097328E+03  0.19974256818E+03  0.93422888623E+02 0.  0.
         23    2    1    2    0    0  0.87189280881E+01  0.53968268904E+02 -0.67490066890E+03  0.68856854924E+03  0.12508853011E+03 0.  0.
          5    1    4    4  502    0  0.37786530839E+02  0.83474980733E+02 -0.52690981872E+03  0.53483392168E+03  0.41800000000E+01 0.  1.
         -5    1    4    4    0  502 -0.29067602750E+02 -0.29506711829E+02 -0.14799085018E+03  0.15373462756E+03  0.41800000000E+01 0.  1.
        -11    1    3    3    0    0  0.40004332684E+02 -0.22090171326E+02 -0.10235200930E+03  0.11209039259E+03  0.00000000000E+00 0. -1.
         11    1    3    3    0    0 -0.48723260772E+02 -0.31878097578E+02 -0.65518963977E+02  0.87652175592E+02  0.00000000000E+00 0.  1.
</event>
<event>
 8    1  0.5900800E-006  0.9886791E+02  0.7561462E-02  0.1282695E+00
          1   -1    0    0  501    0  0.00000000000E+00  0.00000000000E+00  0.14832960977E+03  0.14832960977E+03  0.00000000000E+00 0. -1.
         -1   -1    0    0    0  501 -0.00000000000E+00 -0.00000000000E+00 -0.93722708918E+02  0.93722708918E+02  0.00000000000E+00 0.  1.
         23    2    1    2    0    0 -0.43582315166E+02  0.15371520106E+02  0.12479615815E+02  0.10220336734E+03  0.90299975967E+02 0.  0.
         23    2    1    2    0    0  0.43582315166E+02 -0.15371520106E+02  0.42127285038E+02  0.13984895135E+03  0.12508924503E+03 0.  0.
          5    1    4    4  502    0  0.85256984441E+02  0.14128662690E+01  0.41017673407E+02  0.94713629003E+02  0.41800000000E+01 0.  1.
         -5    1    4    4    0  502 -0.41674669275E+02 -0.16784386375E+02  0.11096116311E+01  0.45135322345E+02  0.41800000000E+01 0.  1.
        -11    1    3    3    0    0 -0.52984447511E+02  0.20161955359E+02 -0.25952506642E+02  0.62348927199E+02  0.00000000000E+00 0.  1.
         11    1    3    3    0    0  0.94021323448E+01 -0.47904352530E+01  0.38432122458E+02  0.39854440143E+02  0.00000000000E+00 0. -1.
</event>
<event>
 8    1  0.5900800E-006  0.1259509E+03  0.7561462E-02  0.1233591E+00
         -2   -1    0    0    0  501 -0.00000000000E+00  0.00000000000E+00  0.70532302969E+02  0.70532302969E+02  0.00000000000E+00 0.  1.
          2   -1    0    0  501    0  0.00000000000E+00 -0.00000000000E+00 -0.27216610625E+03  0.27216610625E+03  0.00000000000E+00 0. -1.
         23    2    1    2    0    0 -0.55408684857E+02 -0.64186658022E+02 -0.87331567283E+02  0.15322200618E+03  0.93059825418E+02 0.  0.
         23    2    1    2    0    0  0.55408684857E+02  0.64186658022E+02 -0.11430223600E+03  0.18947640304E+03  0.12508499802E+03 0.  0.
          5    1    4    4  502    0  0.32960963926E+01  0.81784143020E+02 -0.10553607646E+03  0.13362202714E+03  0.41800000000E+01 0.  1.
         -5    1    4    4    0  502  0.52112588464E+02 -0.17597484998E+02 -0.87661595341E+01  0.55854375904E+02  0.41800000000E+01 0.  1.
        -11    1    3    3    0    0 -0.47861652428E+02  0.22538935185E+01 -0.68787582460E+02  0.83830479599E+02  0.00000000000E+00 0. -1.
         11    1    3    3    0    0 -0.75470324289E+01 -0.66440551540E+02 -0.18543984822E+02  0.69391526576E+02  0.00000000000E+00 0.  1.
</event>
<event>
 8    1  0.5900800E-006  0.1698311E+03  0.7561462E-02  0.1178024E+00
          2   -1    0    0  501    0  0.00000000000E+00  0.00000000000E+00  0.22437755763E+03  0.22437755763E+03  0.00000000000E+00 0.  1.
         -2   -1    0    0    0  501 -0.00000000000E+00 -0.00000000000E+00 -0.16300320997E+03  0.16300320997E+03  0.00000000000E+00 0. -1.
         23    2    1    2    0    0 -0.11795458550E+03  0.75407770542E+02 -0.45019267328E+02  0.17158933382E+03  0.88411249008E+02 0.  0.
         23    2    1    2    0    0  0.11795458550E+03 -0.75407770542E+02  0.10639361498E+03  0.21579143378E+03  0.12508687176E+03 0.  0.
          5    1    4    4  502    0  0.12390396343E+03 -0.29200193970E+02  0.37968027813E+02  0.13290555676E+03  0.41800000000E+01 0. -1.
         -5    1    4    4    0  502 -0.59493779289E+01 -0.46207576572E+02  0.68425587168E+02  0.82885877021E+02  0.41800000000E+01 0. -1.
        -11    1    3    3    0    0 -0.19253669341E+02 -0.20339954330E+02 -0.93462504056E+01  0.29525750150E+02  0.00000000000E+00 0.  1.
         11    1    3    3    0    0 -0.98700916159E+02  0.95747724872E+02 -0.35673016922E+02  0.14206358367E+03  0.00000000000E+00 0. -1.
</event>
<event>
 8    1  0.5900800E-006  0.2888551E+03  0.7561462E-02  0.1090948E+00
          2   -1    0    0  501    0  0.00000000000E+00  0.00000000000E+00  0.16720133426E+04  0.16720133426E+04  0.00000000000E+00 0.  1.
         -2   -1    0    0    0  501 -0.00000000000E+00 -0.00000000000E+00 -0.59428304305E+02  0.59428304305E+02  0.00000000000E+00 0. -1.
         23    2    1    2    0    0  0.18378123486E+03  0.20940892131E+03  0.60058641290E+03  0.67436271048E+03  0.12819277407E+03 0.  0.
         23    2    1    2    0    0 -0.18378123486E+03 -0.20940892131E+03  0.10119986254E+04  0.10570789364E+04  0.12508805461E+03 0.  0.
          5    1    4    4  502    0 -0.15465496323E+03 -0.19649431461E+03  0.98119365077E+03  0.10125643812E+04  0.41800000000E+01 0.  1.
         -5    1    4    4    0  502 -0.29126271633E+02 -0.12914606697E+02  0.30804974590E+02  0.44514555202E+02  0.41800000000E+01 0.  1.
        -11    1    3    3    0    0  0.27203359405E+02  0.10210594759E+03  0.13405357084E+03  0.17069272730E+03  0.00000000000E+00 0. -1.
         11    1    3    3    0    0  0.15657787545E+03  0.10730297372E+03  0.46653284205E+03  0.50366998319E+03  0.00000000000E+00 0.  1.
</event>
<event>
 7    1  0.5900800E-006  0.1598861E+03  0.7561462E-02  0.1188825E+00
          1   -1    0    0  501    0  0.00000000000E+00  0.00000000000E+00  0.31830381780E+03  0.31830381780E+03  0.00000000000E+00 0. -1.
         -1   -1    0    0    0  501 -0.00000000000E+00 -0.00000000000E+00 -0.19027951410E+03  0.19027951410E+03  0.00000000000E+00 0.  1.
         23    2    1    2    0    0 -0.27489824989E+02  0.91142221275E+02 -0.11331220736E+03  0.17378548263E+03  0.91099630395E+02 0.  0.
          5    1    1    2  502    0 -0.23432469536E+02 -0.14688333496E+03  0.19788361008E+03  0.24758673279E+03  0.41800000000E+01 0. -1.
         -5    1    1    2    0  502  0.50922294525E+02  0.55741113685E+02  0.43452900984E+02  0.87211116484E+02  0.41800000000E+01 0.  1.
        -11    1    3    3    0    0 -0.18294414755E+02  0.51181984917E+02 -0.12046716511E+03  0.13216133724E+03  0.00000000000E+00 0.  1.
         11    1    3    3    0    0 -0.91954102338E+01  0.39960236358E+02  0.71549577454E+01  0.41624145390E+02  0.00000000000E+00 0. -1.
</event>
<event>
 8    1  0.5900800E-006  0.8874344E+02  0.7561462E-02  0.1305923E+00
          2   -1    0    0  501    0  0.00000000000E+00  0.00000000000E+00  0.35436294740E+03  0.35436294740E+03  0.00000000000E+00 0. -1.
         -2   -1    0    0    0  501 -0.00000000000E+00 -0.00000000000E+00 -0.32713657192E+02  0.32713657192E+02  0.00000000000E+00 0.  1.
         23    2    1    2    0    0  0.16038795058E+01  0.36358688669E+01  0.13983029511E+03  0.16634788100E+03  0.90018409845E+02 0.  0.
         23    2    1    2    0    0 -0.16038795058E+01 -0.36358688669E+01  0.18181899510E+03  0.22072872359E+03  0.12508889027E+03 0.  0.
          5    1    4    4  502    0  0.26201640054E+02 -0.45629082173E+02  0.29985397983E+02  0.60705317507E+02  0.41800000000E+01 0.  1.
         -5    1    4    4    0  502 -0.27805519560E+02  0.41993213306E+02  0.15183359711E+03  0.16002340608E+03  0.41800000000E+01 0.  1.
        -11    1    3    3    0    0 -0.12463142314E+02  0.36419187727E+02  0.11892610689E+03  0.12500042421E+03  0.00000000000E+00 0. -1.
         11    1    3    3    0    0  0.14067021820E+02 -0.32783318860E+02  0.20904188215E+02  0.41347456793E+02  0.00000000000E+00 0.  1.
</event>
<event>
 8    1  0.5900800E-006  0.1354266E+03  0.7561462E-02  0.1219619E+00
          2   -1    0    0  501    0  0.00000000000E+00  0.00000000000E+00  0.21943968687E+03  0.21943968687E+03  0.00000000000E+00 0. -1.
         -2   -1    0    0    0  501 -0.00000000000E+00 -0.00000000000E+00 -0.98358551074E+02  0.98358551074E+02  0.00000000000E+00 0.  1.
         23    2    1    2    0    0 -0.68736248095E+02  0.65024137711E+02  0.25925743702E+02  0.13434398516E+03  0.91778820401E+02 0.  0.
         23    2    1    2    0    0  0.68736248095E+02 -0.65024137711E+02  0.95155392091E+02  0.18345425278E+03  0.12509238160E+03 0.  0.
          5    1    4    4  502    0  0.14477033941E+02 -0.93949173330E+02  0.60368158748E+02  0.11268459820E+03  0.41800000000E+01 0.  1.
         -5    1    4    4    0  502  0.54259214154E+02  0.28925035619E+02  0.34787233343E+02  0.70769654583E+02  0.41800000000E+01 0.  1.
        -11    1    3    3    0    0 -0.20956994524E+02  0.62842488783E+02  0.47860412388E+02  0.81725106851E+02  0.00000000000E+00 0. -1.
         11    1    3    3    0    0 -0.47779253571E+02  0.21816489276E+01 -0.21934668685E+02  0.52618878306E+02  0.00000000000E+00 0.  1.
</event>
<event>
 8    1  0.5900800E-006  0.1573809E+03  0.7561462E-02  0.1191686E+00
         -2   -1    0    0    0  501 -0.00000000000E+00  0.00000000000E+00  0.21986573034E+03  0.21986573034E+03  0.00000000000E+00 0. -1.
          2   -1    0    0  501    0  0.00000000000E+00 -0.00000000000E+00 -0.22047332265E+03  0.22047332265E+03  0.00000000000E+00 0.  1.
         23    2    1    2    0    0  0.26839474823E+02 -0.14094153770E+03  0.12584232449E+03  0.21181310727E+03  0.91889212210E+02 0.  0.
         23    2    1    2    0    0 -0.26839474823E+02  0.14094153770E+03 -0.12644991680E+03  0.22852594572E+03  0.12509856894E+03 0.  0.
          5    1    4    4  502    0 -0.41011207691E+02  0.51066241187E+02 -0.12054563275E+03  0.13725305869E+03  0.41800000000E+01 0.  1.
         -5    1    4    4    0  502  0.14171732868E+02  0.89875296515E+02 -0.59042840458E+01  0.91272887027E+02  0.41800000000E+01 0.  1.
        -11    1    3    3    0    0 -0.20052886507E+02 -0.71506134385E+02  0.20170739665E+02  0.76955209379E+02  0.00000000000E+00 0.  1.
         11    1    3    3    0    0  0.46892361330E+02 -0.69435403317E+02  0.10567158482E+03  0.13485789789E+03  0.00000000000E+00 0. -1.
</event>
<event>
 8    1  0.5900800E-006  0.8458287E+02  0.7561462E-02  0.1316527E+00
         -2   -1    0    0    0  501 -0.00000000000E+00  0.00000000000E+00  0.56505161044E+03  0.56505161044E+03  0.00000000000E+00 0. -1.
          2   -1    0    0  501    0  0.00000000000E+00 -0.00000000000E+00 -0.27661749551E+02  0.27661749551E+02  0.00000000000E+00 0.  1.
         23    2    1    2    0    0 -0.23723389017E+02  0.57921477326E+02  0.24212548544E+03  0.26599334948E+03  0.90609130600E+02 0.  0.
         23    2    1    2    0    0  0.23723389017E+02 -0.57921477326E+02  0.29526437545E+03  0.32672001051E+03  0.12508883697E+03 0.  0.
          5    1    4    4  502    0  0.33809243395E+02 -0.38928278412E+02  0.28506572398E+02  0.59064141990E+02  0.41800000000E+01 0. -1.
         -5    1    4    4    0  502 -0.10085854378E+02 -0.18993198914E+02  0.26675780305E+03  0.26765586852E+03  0.41800000000E+01 0. -1.
        -11    1    3    3    0    0 -0.43495486727E+02  0.11377161735E+02  0.49628914262E+02  0.66965112600E+02  0.00000000000E+00 0.  1.
         11    1    3    3    0    0  0.19772097710E+02  0.46544315591E+02  0.19249657118E+03  0.19902823688E+03  0.00000000000E+00 0. -1.
</event>
<event>
 8    1  0.5900800E-006  0.9908179E+02  0.7561462E-02  0.1282239E+00
          1   -1    0    0  501    0  0.00000000000E+00  0.00000000000E+00  0.84252717120E+03  0.84252717120E+03  0.00000000000E+00 0. -1.
         -1   -1    0    0    0  501 -0.00000000000E+00 -0.00000000000E+00 -0.19324807864E+02  0.19324807864E+02  0.00000000000E+00 0.  1.
         23    2    1    2    0    0 -0.32756699502E+02 -0.74343931990E+01  0.16300306350E+03  0.18907121975E+03  0.89719874395E+02 0.  0.
         23    2    1    2    0    0  0.32756699502E+02  0.74343931990E+01  0.66019929984E+03  0.67278075932E+03  0.12507023243E+03 0.  0.
          5    1    4    4  502    0  0.79875492928E+02 -0.61566511564E+01  0.41929957525E+03  0.42690467898E+03  0.41800000000E+01 0. -1.
         -5    1    4    4    0  502 -0.47118793426E+02  0.13591044355E+02  0.24089972459E+03  0.24587608035E+03  0.41800000000E+01 0. -1.
        -11    1    3    3    0    0  0.16835707074E+02 -0.90340476838E+01  0.44757192993E+00  0.19111655367E+02  0.00000000000E+00 0.  1.
         11    1    3    3    0    0 -0.49592406576E+02  0.15996544848E+01  0.16255549157E+03  0.16995956438E+03  0.00000000000E+00 0. -1.
</event>
<event>
 8    1  0.5900800E-006  0.1011212E+03  0.7561462E-02  0.1277956E+00
         -1   -1    0    0    0  501 -0.00000000000E+00  0.00000000000E+00  0.35677429430E+03  0.35677429430E+03  0.00000000000E+00 0.  1.
          1   -1    0    0  501    0  0.00000000000E+00 -0.00000000000E+00 -0.42777203954E+02  0.42777203954E+02  0.00000000000E+00 0. -1.
         23    2    1    2    0    0  0.49972563832E+02 -0.14741569538E+02  0.18339872884E+03  0.21135222567E+03  0.91214574208E+02 0.  0.
         23    2    1    2    0    0 -0.49972563832E+02  0.14741569538E+02  0.13059836150E+03  0.18819927258E+03  0.12509381745E+03 0.  0.
          5    1    4    4  502    0 -0.58089011016E+02  0.47390096927E+02  0.27983223936E+02  0.80129193865E+02  0.41800000000E+01 0.  1.
         -5    1    4    4    0  502  0.81164471845E+01 -0.32648527389E+02  0.10261513757E+03  0.10807007872E+03  0.41800000000E+01 0.  1.
        -11    1    3    3    0    0 -0.12465160514E+02 -0.26899141351E+02  0.19350752699E+02  0.35403328404E+02  0.00000000000E+00 0. -1.
         11    1    3    3    0    0  0.62437724345E+02  0.12157571813E+02  0.16404797614E+03  0.17594889727E+03  0.00000000000E+00 0.  1.
</event>
<event>
 8    1  0.5900800E-006  0.1094921E+03  0.7561462E-02  0.1261513E+00
          2   -1    0    0  501    0  0.00000000000E+00  0.00000000000E+00  0.20143259730E+04  0.20143259730E+04  0.00000000000E+00 0.  1.
         -2   -1    0    0    0  501 -0.00000000000E+00 -0.00000000000E+00 -0.98150721822E+01  0.98150721822E+01  0.00000000000E+00 0. -1.
         23    2    1    2    0    0  0.26433605504E+02  0.24183450672E+02  0.31607438180E+03  0.33069822575E+03  0.90414196315E+02 0.  0.
         23    2    1    2    0    0 -0.26433605504E+02 -0.24183450672E+02  0.16884365190E+04  0.16934428194E+04  0.12508848532E+03 0.  0.
          5    1    4    4  502    0  0.26531905523E+02  0.38303964076E+02  0.50234439988E+03  0.50451809102E+03  0.41800000000E+01 0. -1.
         -5    1    4    4    0  502 -0.52965511027E+02 -0.62487414747E+02  0.11860921191E+04  0.11889247284E+04  0.41800000000E+01 0. -1.
        -11    1    3    3    0    0 -0.29513652188E+02  0.16197079525E+02  0.18378238305E+03  0.18684048107E+03  0.00000000000E+00 0. -1.
         11    1    3    3    0    0  0.55947257692E+02  0.79863711468E+01  0.13229199876E+03  0.14385774467E+03  0.00000000000E+00 0.  1.
</event>
<event>
 8    1  0.5900800E-006  0.1373074E+03  0.7561462E-02  0.1216999E+00
          2   -1    0    0  501    0  0.00000000000E+00  0.00000000000E+00  0.56616926796E+03  0.56616926796E+03  0.00000000000E+00 0. -1.
         -2   -1    0    0    0  501 -0.00000000000E+00 -0.00000000000E+00 -0.37138067249E+02  0.37138067249E+02  0.00000000000E+00 0.  1.
         23    2    1    2    0    0  0.36259811207E+02 -0.84025980624E+02  0.30053897448E+03  0.32720801413E+03  0.91467316574E+02 0.  0.
         23    2    1    2    0    0 -0.36259811207E+02  0.84025980624E+02  0.22849222623E+03  0.27609932108E+03  0.12508796235E+03 0.  0.
          5    1    4    4  502    0 -0.72837222728E+01 -0.28292282210E+02  0.15026339657E+02  0.33117504832E+02  0.41800000000E+01 0.  1.
         -5    1    4    4    0  502 -0.28976088934E+02  0.11231826283E+03  0.21346588658E+03  0.24298181625E+03  0.41800000000E+01 0.  1.
        -11    1    3    3    0    0  0.44333528162E+02  0.28529667649E+00  0.91980753026E+02  0.10210779618E+03  0.00000000000E+00 0.  1.
         11    1    3    3    0    0 -0.80737169551E+01 -0.84311277300E+02  0.20855822145E+03  0.22510021795E+03  0.00000000000E+00 0. -1.
</event>
<event>
 8    1  0.5900800E-006  0.1017762E+03  0.7561462E-02  0.1276605E+00
         -2   -1    0    0    0  501 -0.00000000000E+00  0.00000000000E+00  0.13153364259E+03  0.13153364259E+03  0.00000000000E+00 0.  1.
          2   -1    0    0  501    0  0.00000000000E+00 -0.00000000000E+00 -0.12856771212E+03  0.12856771212E+03  0.00000000000E+00 0. -1.
         23    2    1    2    0    0 -0.56455900964E+02 -0.92247436420E+01  0.44667864104E+02  0.11636944309E+03  0.90962984516E+02 0.  0.
         23    2    1    2    0    0  0.56455900964E+02  0.92247436420E+01 -0.41701933628E+02  0.14373191162E+03  0.12508975378E+03 0.  0.
          5    1    4    4  502    0  0.70934658889E+02  0.24029016699E+02  0.20730281549E+02  0.77822467504E+02  0.41800000000E+01 0.  1.
         -5    1    4    4    0  502 -0.14478757925E+02 -0.14804273057E+02 -0.62432215177E+02  0.65909444116E+02  0.41800000000E+01 0.  1.
        -11    1    3    3    0    0 -0.37634955732E+02 -0.49956700944E+02  0.27547260509E+02  0.68344081117E+02  0.00000000000E+00 0.  1.
         11    1    3    3    0    0 -0.18820945232E+02  0.40731957302E+02  0.17120603595E+02  0.48025361971E+02  0.00000000000E+00 0. -1.
</event>
<event>
 8    1  0.5900800E-006  0.1105463E+03  0.7561462E-02  0.1259562E+00
         -2   -1    0    0    0  501 -0.00000000000E+00  0.00000000000E+00  0.57749272967E+02  0.57749272967E+02  0.00000000000E+00 0.  1.
          2   -1    0    0  501    0  0.00000000000E+00 -0.00000000000E+00 -0.65891623874E+03  0.65891623874E+03  0.00000000000E+00 0. -1.
         23    2    1    2    0    0 -0.79190335072E+01 -0.75832763824E+02 -0.21285505176E+02  0.11856549970E+03  0.88268827042E+02 0.  0.
         23    2    1    2    0    0  0.79190335072E+01  0.75832763824E+02 -0.57988146060E+03  0.59810001201E+03  0.12509115420E+03 0.  0.
          5    1    4    4  502    0 -0.45862421384E+02  0.56878836568E+02 -0.18251691083E+03  0.19664297314E+03  0.41800000000E+01 0.  1.
         -5    1    4    4    0  502  0.53781454891E+02  0.18953927256E+02 -0.39736454977E+03  0.40145703887E+03  0.41800000000E+01 0.  1.
        -11    1    3    3    0    0 -0.23293051070E+02 -0.14357414219E+02  0.27347623884E+02  0.38685838537E+02  0.00000000000E+00 0.  1.
         11    1    3    3    0    0  0.15374017563E+02 -0.61475349606E+02 -0.48633129060E+02  0.79879661162E+02  0.00000000000E+00 0. -1.
</event>
<event>
 8    1  0.5900800E-006  0.1675357E+03  0.7561462E-02  0.1180442E+00
         -1   -1    0    0    0  501 -0.00000000000E+00  0.00000000000E+00  0.11658211469E+03  0.11658211469E+03  0.00000000000E+00 0.  1.
          1   -1    0    0  501    0  0.00000000000E+00 -0.00000000000E+00 -0.29438056203E+03  0.29438056203E+03  0.00000000000E+00 0. -1.
         23    2    1    2    0    0 -0.10243972898E+03 -0.95288832473E+02 -0.12379895086E+02  0.16079149702E+03  0.78273776211E+02 0.  0.
         23    2    1    2    0    0  0.10243972898E+03  0.95288832473E+02 -0.16541855225E+03  0.25017117970E+03  0.12509381302E+03 0.  0.
          5    1    4    4  502    0 -0.17820595789E+02  0.36795677686E+02 -0.84091507333E+02  0.93596738919E+02  0.41800000000E+01 0. -1.
         -5    1    4    4    0  502  0.12026032477E+03  0.58493154787E+02 -0.81327044918E+02  0.15657444078E+03  0.41800000000E+01 0. -1.
        -11    1    3    3    0    0 -0.89296212647E+02 -0.30946125810E+02 -0.40420273184E+01  0.94592887051E+02  0.00000000000E+00 0. -1.
         11    1    3    3    0    0 -0.13143516334E+02 -0.64342706663E+02 -0.83378677672E+01  0.66198609964E+02  0.00000000000E+00 0.  1.
</event>
<event>
 8    1  0.5900800E-006  0.7099935E+02  0.7561462E-02  0.1356727E+00
          1   -1    0    0  501    0  0.00000000000E+00  0.00000000000E+00  0.43258986030E+02  0.43258986030E+02  0.00000000000E+00 0. -1.
         -1   -1    0    0    0  501 -0.00000000000E+00 -0.00000000000E+00 -0.27286423259E+03  0.27286423259E+03  0.00000000000E+00 0.  1.
         23    2    1    2    0    0  0.19263677902E+02 -0.23708911726E+01 -0.14652479606E+03  0.17368160395E+03  0.91208953929E+02 0.  0.
         23    2    1    2    0    0 -0.19263677902E+02  0.23708911726E+01 -0.83080450492E+02  0.14244161467E+03  0.11406376254E+03 0.  0.
          5    1    4    4  502    0 -0.54089490327E+00 -0.34791401575E+02  0.13216576258E+02  0.37455099504E+02  0.41800000000E+01 0. -1.
         -5    1    4    4    0  502 -0.18722782999E+02  0.37162292748E+02 -0.96297026751E+02  0.10498651516E+03  0.41800000000E+01 0.  1.
        -11    1    3    3    0    0  0.41577210579E+02 -0.74689667753E+01 -0.23087624392E+02  0.48140298132E+02  0.00000000000E+00 0. -1.
         11    1    3    3    0    0 -0.22313532677E+02  0.50980756027E+01 -0.12343717167E+03  0.12554130581E+03  0.00000000000E+00 0.  1.
</event>
<event>
 8    1  0.5900800E-006  0.1265639E+03  0.7561462E-02  0.1232645E+00
          2   -1    0    0  501    0  0.00000000000E+00  0.00000000000E+00  0.20438761246E+02  0.20438761246E+02  0.00000000000E+00 0. -1.
         -2   -1    0    0    0  501 -0.00000000000E+00 -0.00000000000E+00 -0.88009981642E+03  0.88009981642E+03  0.00000000000E+00 0.  1.
         23    2    1    2    0    0 -0.34909897016E+02  0.58457669006E+02 -0.52224856815E+03  0.53429972737E+03  0.89981285577E+02 0.  0.
         23    2    1    2    0    0  0.34909897016E+02 -0.58457669006E+02 -0.33741248703E+03  0.36623885030E+03  0.12509080339E+03 0.  0.
          5    1    4    4  502    0  0.47700645026E+02 -0.92246783829E+02 -0.27523996919E+03  0.29420967642E+03  0.41800000000E+01 0.  1.
         -5    1    4    4    0  502 -0.12790748009E+02  0.33789114823E+02 -0.62172517842E+02  0.72029173881E+02  0.41800000000E+01 0.  1.
        -11    1    3    3    0    0 -0.49194616223E+02  0.75794496115E+02 -0.41470797629E+03  0.42443800667E+03  0.00000000000E+00 0. -1.
         11    1    3    3    0    0  0.14284719207E+02 -0.17336827109E+02 -0.10754059186E+03  0.10986172070E+03  0.00000000000E+00 0.  1.
</event>
<event>
 8    1  0.5900800E-006  0.3496518E+03  0.7561462E-02  0.1062758E+00
         -2   -1    0    0    0  501 -0.00000000000E+00  0.00000000000E+00  0.87939072606E+02  0.87939072606E+02  0.00000000000E+00 0. -1.
          2   -1    0    0  501    0  0.00000000000E+00 -0.00000000000E+00 -0.14897550305E+04  0.14897550305E+04  0.00000000000E+00 0.  1.
         23    2    1    2    0    0 -0.27668876642E+03 -0.20435862116E+03 -0.63422987013E+03  0.72730885110E+03  0.91714324006E+02 0.  0.
         23    2    1    2    0    0  0.27668876642E+03  0.20435862116E+03 -0.76758608774E+03  0.85038525197E+03  0.12509018817E+03 0.  0.
          5    1    4    4  502    0  0.25461304413E+03  0.17068622943E+03 -0.74111981091E+03  0.80202097084E+03  0.41800000000E+01 0. -1.
         -5    1    4    4    0  502  0.22075722293E+02  0.33672391734E+02 -0.26466276835E+02  0.48364281131E+02  0.41800000000E+01 0. -1.
        -11    1    3    3    0    0 -0.23730050737E+02 -0.51505909775E+02 -0.67654561529E+02  0.88278614316E+02  0.00000000000E+00 0. -1.
         11    1    3    3    0    0 -0.25295871568E+03 -0.15285271138E+03 -0.56657530860E+03  0.63903023679E+03  0.00000000000E+00 0.  1.
</event>
<event>
 8    1  0.5900800E-006  0.9833920E+02  0.7561462E-02  0.1283828E+00
         -2   -1    0    0    0  501 -0.00000000000E+00  0.00000000000E+00  0.26955697573E+02  0.26955697573E+02  0.00000000000E+00 0.  1.
          2   -1    0    0  501    0  0.00000000000E+00 -0.00000000000E+00 -0.57411296599E+03  0.57411296599E+03  0.00000000000E+00 0. -1.
         23    2    1    2    0    0  0.29012033928E+02  0.45558959040E+02 -0.16241099252E+03  0.19290754860E+03  0.88986936967E+02 0.  0.
         23    2    1    2    0    0 -0.29012033928E+02 -0.45558959040E+02 -0.38474627589E+03  0.40816111496E+03  0.12509389312E+03 0.  0.
          5    1    4    4  502    0 -0.31053756653E+02 -0.68449118150E+02 -0.11527052133E+03  0.13767491807E+03  0.41800000000E+01 0.  1.
         -5    1    4    4    0  502  0.20417227248E+01  0.22890159110E+02 -0.26947575455E+03  0.27048619689E+03  0.41800000000E+01 0.  1.
        -11    1    3    3    0    0  0.56815696909E+02  0.19882445008E+02 -0.65962361436E+02  0.89299317808E+02  0.00000000000E+00 0.  1.
         11    1    3    3    0    0 -0.27803662981E+02  0.25676514032E+02 -0.96448631088E+02  0.10360823079E+03  0.00000000000E+00 0. -1.
</event>
<event>
 8    1  0.5900800E-006  0.1525520E+03  0.7561462E-02  0.1197372E+00
          1   -1    0    0  501    0  0.00000000000E+00  0.00000000000E+00  0.61376212678E+03  0.61376212678E+03  0.00000000000E+00 0. -1.
         -1   -1    0    0    0  501 -0.00000000000E+00 -0.00000000000E+00 -0.56407985254E+02  0.56407985254E+02  0.00000000000E+00 0.  1.
         23    2    1    2    0    0 -0.93329391371E+02 -0.85354844752E+02  0.11625422212E+03  0.19455264467E+03  0.91322848028E+02 0.  0.
         23    2    1    2    0    0  0.93329391371E+02  0.85354844752E+02  0.44109991941E+03  0.47561746737E+03  0.12508801519E+03 0.  0.
          5    1    4    4  502    0  0.43870699109E+02 -0.16758279918E+02  0.24083958253E+03  0.24541119595E+03  0.41800000000E+01 0. -1.
         -5    1    4    4    0  502  0.49458692262E+02  0.10211312467E+03  0.20026033688E+03  0.23020627141E+03  0.41800000000E+01 0. -1.
        -11    1    3    3    0    0 -0.29834101828E+02 -0.74170265363E+02  0.26865774478E+02  0.84339028535E+02  0.00000000000E+00 0. -1.
         11    1    3    3    0    0 -0.63495289543E+02 -0.11184579388E+02  0.89388447640E+02  0.11021361614E+03  0.00000000000E+00 0.  1.
</event>
<event>
 8    1  0.5900800E-006  0.1175219E+03  0.7561462E-02  0.1247242E+00
         -2   -1    0    0    0  501 -0.00000000000E+00  0.00000000000E+00  0.36282003493E+03  0.36282003493E+03  0.00000000000E+00 0.  1.
          2   -1    0    0  501    0  0.00000000000E+00 -0.00000000000E+00 -0.77827407640E+02  0.77827407640E+02  0.00000000000E+00 0. -1.
         23    2    1    2    0    0  0.74963972178E+01  0.85005152505E+02  0.25784931237E+03  0.28680517744E+03  0.92135063855E+02 0.  0.
         23    2    1    2    0    0 -0.74963972178E+01 -0.85005152505E+02  0.27143314920E+02  0.15384226513E+03  0.12509440864E+03 0.  0.
          5    1    4    4  502    0  0.20136396328E+02 -0.84981560158E+02  0.63445608187E+02  0.10802850375E+03  0.41800000000E+01 0. -1.
         -5    1    4    4    0  502 -0.27632793546E+02 -0.23592346597E-01 -0.36302293267E+02  0.45813761385E+02  0.41800000000E+01 0. -1.
        -11    1    3    3    0    0  0.45757048920E+02  0.50410249632E+02  0.10192893944E+03  0.12257409795E+03  0.00000000000E+00 0. -1.
         11    1    3    3    0    0 -0.38260651702E+02  0.34594902872E+02  0.15592037294E+03  0.16423107949E+03  0.00000000000E+00 0.  1.
</event>
<event>
 8    1  0.5900800E-006  0.1078739E+03  0.7561462E-02  0.1264559E+00
         -2   -1    0    0    0  501 -0.00000000000E+00  0.00000000000E+00  0.24226164486E+03  0.24226164486E+03  0.00000000000E+00 0.  1.
          2   -1    0    0  501    0  0.00000000000E+00 -0.00000000000E+00 -0.62764385895E+02  0.62764385895E+02  0.00000000000E+00 0. -1.
         23    2    1    2    0    0 -0.32357997236E+02 -0.66386372672E+01  0.13864415186E+03  0.16934965586E+03  0.91465805672E+02 0.  0.
         23    2    1    2    0    0  0.32357997236E+02  0.66386372672E+01  0.40853107107E+02  0.13567637489E+03  0.12509192961E+03 0.  0.
          5    1    4    4  502    0 -0.29925979460E+02 -0.40933400255E+02  0.15000935806E+02  0.53043453678E+02  0.41800000000E+01 0.  1.
         -5    1    4    4    0  502  0.62283976695E+02  0.47572037522E+02  0.25852171301E+02  0.82632921212E+02  0.41800000000E+01 0.  1.
        -11    1    3    3    0    0 -0.13716499156E+02 -0.43210896381E+02  0.11088699472E+03  0.11979670076E+03  0.00000000000E+00 0.  1.
         11    1    3    3    0    0 -0.18641498079E+02  0.36572259114E+02  0.27757157141E+02  0.49552955107E+02  0.00000000000E+00 0. -1.
</event>
<event>
 8    1  0.5900800E-006  0.1062319E+03  0.7561462E-02  0.1267711E+00
          2   -1    0    0  501    0  0.00000000000E+00  0.00000000000E+00  0.48657515534E+02  0.48657515534E+02  0.00000000000E+00 0. -1.
         -2   -1    0    0    0  501 -0.00000000000E+00 -0.00000000000E+00 -0.24853756565E+03  0.24853756565E+03  0.00000000000E+00 0.  1.
         23    2    1    2    0    0 -0.69103305155E+01  0.13881418261E+02 -0.97297901886E+02  0.13468026184E+03  0.91822898983E+02 0.  0.
         23    2    1    2    0    0  0.69103305155E+01 -0.13881418261E+02 -0.10258214823E+03  0.16251481935E+03  0.12509005928E+03 0.  0.
          5    1    4    4  502    0 -0.14927223903E+02 -0.64827923330E+02 -0.35920675837E+02  0.75718221118E+02  0.41800000000E+01 0. -1.
         -5    1    4    4    0  502  0.21837554419E+02  0.50946505069E+02 -0.66661472397E+02  0.86796598227E+02  0.41800000000E+01 0. -1.
        -11    1    3    3    0    0 -0.45739420329E+02  0.21679480856E+02 -0.70784479369E+02  0.87020325107E+02  0.00000000000E+00 0. -1.
         11    1    3    3    0    0  0.38829089813E+02 -0.77980625953E+01 -0.26513422517E+02  0.47659936735E+02  0.00000000000E+00 0.  1.
</event>
<event>
 8    1  0.5900800E-006  0.2297583E+03  0.7561462E-02  0.1126810E+00
          4   -1    0    0  501    0  0.00000000000E+00  0.00000000000E+00  0.18256559881E+03  0.18256559881E+03  0.00000000000E+00 0. -1.
         -4   -1    0    0    0  501 -0.00000000000E+00 -0.00000000000E+00 -0.30274078774E+03  0.30274078774E+03  0.00000000000E+00 0.  1.
         23    2    1    2    0    0 -0.20032923026E+03  0.57057505931E+02 -0.59823681231E+02  0.23495358320E+03  0.90757666012E+02 0.  0.
         23    2    1    2    0    0  0.20032923026E+03 -0.57057505931E+02 -0.60351507706E+02  0.25035280335E+03  0.12508741816E+03 0.  0.
          5    1    4    4  502    0  0.17517137446E+03 -0.18824582264E+01 -0.70212028216E+02  0.18877435044E+03  0.41800000000E+01 0. -1.
         -5    1    4    4    0  502  0.25157855806E+02 -0.55175047705E+02  0.98605205093E+01  0.61578452909E+02  0.41800000000E+01 0. -1.
        -11    1    3    3    0    0 -0.54654855091E+01 -0.14826419973E+02  0.62567489524E+01  0.16995327844E+02  0.00000000000E+00 0. -1.
         11    1    3    3    0    0 -0.19486374476E+03  0.71883925905E+02 -0.66080430184E+02  0.21795825535E+03  0.00000000000E+00 0.  1.
</event>
<event>
 8    1  0.5900800E-006  0.1044289E+03  0.7561462E-02  0.1271249E+00
         -1   -1    0    0    0  501 -0.00000000000E+00  0.00000000000E+00  0.65183922106E+02  0.65183922106E+02  0.00000000000E+00 0.  1.
          1   -1    0    0  501    0  0.00000000000E+00 -0.00000000000E+00 -0.31777140302E+03  0.31777140302E+03  0.00000000000E+00 0. -1.
         23    2    1    2    0    0 -0.61925369573E+02 -0.68532696809E+02 -0.98182399369E+02  0.16382445409E+03  0.93097724381E+02 0.  0.
         23    2    1    2    0    0  0.61925369573E+02  0.68532696809E+02 -0.15440508155E+03  0.21913087104E+03  0.12508368200E+03 0.  0.
          5    1    4    4  502    0  0.60076831622E+02  0.41453555759E+02 -0.11983465016E+02  0.74085753128E+02  0.41800000000E+01 0. -1.
         -5    1    4    4    0  502  0.18485379515E+01  0.27079141050E+02 -0.14242161653E+03  0.14504511791E+03  0.41800000000E+01 0. -1.
        -11    1    3    3    0    0 -0.58196635473E+02 -0.22962452989E+02 -0.10012111272E+03  0.11806083110E+03  0.00000000000E+00 0. -1.
         11    1    3    3    0    0 -0.37287340997E+01 -0.45570243820E+02  0.19387133559E+01  0.45763622991E+02  0.00000000000E+00 0.  1.
</event>
<event>
 8    1  0.5900800E-006  0.1238838E+03  0.7561462E-02  0.1236824E+00
         -3   -1    0    0    0  501 -0.00000000000E+00  0.00000000000E+00  0.14325439571E+03  0.14325439571E+03  0.00000000000E+00 0.  1.
          3   -1    0    0  501    0  0.00000000000E+00 -0.00000000000E+00 -0.16614802489E+03  0.16614802489E+03  0.00000000000E+00 0. -1.
         23    2    1    2    0    0  0.13686807938E+02  0.66948863375E+02  0.70612646179E+02  0.13892934228E+03  0.98212714688E+02 0.  0.
         23    2    1    2    0    0 -0.13686807938E+02 -0.66948863375E+02 -0.93506275359E+02  0.17047307832E+03  0.12509263720E+03 0.  0.
          5    1    4    4  502    0 -0.22761953792E+02 -0.10227425031E+03 -0.60240202540E+02  0.12093172958E+03  0.41800000000E+01 0. -1.
         -5    1    4    4    0  502  0.90751458534E+01  0.35325386933E+02 -0.33266072819E+02  0.49541348740E+02  0.41800000000E+01 0. -1.
        -11    1    3    3    0    0  0.48004772353E+02  0.36293717195E+02  0.72430378713E+01  0.60614797485E+02  0.00000000000E+00 0. -1.
         11    1    3    3    0    0 -0.34317964415E+02  0.30655146180E+02  0.63369608308E+02  0.78314544792E+02  0.00000000000E+00 0.  1.
</event>
<event>
 8    1  0.5900800E-006  0.1416351E+03  0.7561462E-02  0.1211146E+00
         -1   -1    0    0    0  501 -0.00000000000E+00  0.00000000000E+00  0.56542676185E+02  0.56542676185E+02  0.00000000000E+00 0.  1.
          1   -1    0    0  501    0  0.00000000000E+00 -0.00000000000E+00 -0.47985461042E+03  0.47985461042E+03  0.00000000000E+00 0. -1.
         23    2    1    2    0    0 -0.11064948280E+03 -0.32086500713E+02 -0.11935276146E+03  0.18809908605E+03  0.88675435908E+02 0.  0.
         23    2    1    2    0    0  0.11064948280E+03  0.32086500713E+02 -0.30395917278E+03  0.34829820055E+03  0.12509039220E+03 0.  0.
          5    1    4    4  502    0 -0.25147213146E+02 -0.64240812674E+01 -0.28640692744E+02  0.38876893266E+02  0.41800000000E+01 0. -1.
         -5    1    4    4    0  502  0.13579669595E+03  0.38510581980E+02 -0.27531848003E+03  0.30942130729E+03  0.41800000000E+01 0. -1.
        -11    1    3    3    0    0 -0.46925283963E+02 -0.19481456560E+02  0.15702249704E+01  0.50832814511E+02  0.00000000000E+00 0.  1.
         11    1    3    3    0    0 -0.63724198841E+02 -0.12605044153E+02 -0.12092298643E+03  0.13726627154E+03  0.00000000000E+00 0. -1.
</event>
<event>
 8    1  0.6776675E-006  0.1730737E+03  0.7561462E-02  0.1174680E+00
         -1   -1    0    0    0  501 -0.00000000000E+00  0.00000000000E+00  0.32193058665E+02  0.32193058665E+02  0.00000000000E+00 0.  1.
          1   -1    0    0  501    0  0.00000000000E+00 -0.00000000000E+00 -0.11050671977E+04  0.11050671977E+04  0.00000000000E+00 0. -1.
         23    2    1    2    0    0 -0.42490289295E+01  0.15275721794E+03 -0.45945591828E+03  0.49283620195E+03  0.91842034145E+02 0.  0.
         23    2    1    2    0    0  0.42490289295E+01 -0.15275721794E+03 -0.61341822080E+03  0.64442405446E+03  0.12509047315E+03 0.  0.
          5    1    4    4  502    0  0.14776822380E+02  0.28541644568E+01 -0.51232402855E+01  0.16438391814E+02  0.41800000000E+01 0.  1.
         -5    1    4    4    0  502 -0.10527793451E+02 -0.15561138239E+03 -0.60829498052E+03  0.62798566264E+03  0.41800000000E+01 0.  1.
        -11    1    3    3    0    0 -0.43425774505E+02  0.97854183222E+02 -0.23042719851E+03  0.25408253163E+03  0.00000000000E+00 0.  1.
         11    1    3    3    0    0  0.39176745576E+02  0.54903034715E+02 -0.22902871977E+03  0.23875367032E+03  0.00000000000E+00 0. -1.
</event>
<event>
 8    1  0.5900800E-006  0.1062056E+03  0.7561462E-02  0.1267762E+00
         -2   -1    0    0    0  501 -0.00000000000E+00  0.00000000000E+00  0.16397646902E+02  0.16397646902E+02  0.00000000000E+00 0.  1.
          2   -1    0    0  501    0  0.00000000000E+00 -0.00000000000E+00 -0.12003369103E+04  0.12003369103E+04  0.00000000000E+00 0. -1.
         23    2    1    2    0    0 -0.73707204792E+02  0.41355230885E+02 -0.40647153909E+03  0.42474617661E+03  0.89706160879E+02 0.  0.
         23    2    1    2    0    0  0.73707204792E+02 -0.41355230885E+02 -0.77746772426E+03  0.79198838054E+03  0.12508607229E+03 0.  0.
          5    1    4    4  502    0  0.68869834513E+01 -0.30640539906E+02 -0.38246984542E+02  0.49664649937E+02  0.41800000000E+01 0.  1.
         -5    1    4    4    0  502  0.66820221341E+02 -0.10714690978E+02 -0.73922073972E+03  0.74232373060E+03  0.41800000000E+01 0.  1.
        -11    1    3    3    0    0 -0.87654892435E+02  0.24431760450E+02 -0.37805119874E+03  0.38884829941E+03  0.00000000000E+00 0. -1.
         11    1    3    3    0    0  0.13947687643E+02  0.16923470434E+02 -0.28420340348E+02  0.35897877202E+02  0.00000000000E+00 0.  1.
</event>
<event>
 8    1  0.5900800E-006  0.1097364E+03  0.7561462E-02  0.1261059E+00
          1   -1    0    0  501    0  0.00000000000E+00  0.00000000000E+00  0.59154133385E+03  0.59154133385E+03  0.00000000000E+00 0. -1.
         -1   -1    0    0    0  501 -0.00000000000E+00 -0.00000000000E+00 -0.25761434458E+02  0.25761434458E+02  0.00000000000E+00 0.  1.
         23    2    1    2    0    0  0.56244800483E+02  0.14910210320E+02  0.25529609710E+03  0.27754829413E+03  0.92038939717E+02 0.  0.
         23    2    1    2    0    0 -0.56244800483E+02 -0.14910210320E+02  0.31048380229E+03  0.33975447418E+03  0.12508844586E+03 0.  0.
          5    1    4    4  502    0 -0.72779148450E+01 -0.50774386166E+02  0.24509427366E+03  0.25043897803E+03  0.41800000000E+01 0. -1.
         -5    1    4    4    0  502 -0.48966885638E+02  0.35864175846E+02  0.65389528626E+02  0.89315496148E+02  0.41800000000E+01 0. -1.
        -11    1    3    3    0    0  0.15261340164E+01  0.44795732504E+02  0.83179802581E+02  0.94487386952E+02  0.00000000000E+00 0.  1.
         11    1    3    3    0    0  0.54718666467E+02 -0.29885522184E+02  0.17211629452E+03  0.18306090718E+03  0.00000000000E+00 0. -1.
</event>
<event>
 8    1  0.5900800E-006  0.8511144E+02  0.7561462E-02  0.1315141E+00
         -2   -1    0    0    0  501 -0.00000000000E+00  0.00000000000E+00  0.19943721084E+03  0.19943721084E+03  0.00000000000E+00 0.  1.
          2   -1    0    0  501    0  0.00000000000E+00 -0.00000000000E+00 -0.12593267872E+03  0.12593267872E+03  0.00000000000E+00 0. -1.
         23    2    1    2    0    0 -0.48014380013E+01  0.26729278398E+02  0.15116525103E+03  0.17748327744E+03  0.88948707255E+02 0.  0.
         23    2    1    2    0    0  0.48014380013E+01 -0.26729278398E+02 -0.77660718917E+02  0.14788661211E+03  0.12288919663E+03 0.  0.
          5    1    4    4  502    0 -0.42159682429E+01  0.27215362340E+02 -0.87792938200E+02  0.92106040700E+02  0.41800000000E+01 0. -1.
         -5    1    4    4    0  502  0.90174062442E+01 -0.53944640738E+02  0.10132219284E+02  0.55780571414E+02  0.41800000000E+01 0.  1.
        -11    1    3    3    0    0  0.35856706100E+02 -0.46485536329E+01  0.93584490373E+02  0.10032631390E+03  0.00000000000E+00 0.  1.
         11    1    3    3    0    0 -0.40658144101E+02  0.31377832030E+02  0.57580760658E+02  0.77156963539E+02  0.00000000000E+00 0. -1.
</event>
<event>
 8    1  0.5900800E-006  0.9030375E+02  0.7561462E-02  0.1302118E+00
          2   -1    0    0  501    0  0.00000000000E+00  0.00000000000E+00  0.39494211688E+03  0.39494211688E+03  0.00000000000E+00 0. -1.
         -2   -1    0    0    0  501 -0.00000000000E+00 -0.00000000000E+00 -0.34371348581E+02  0.34371348581E+02  0.00000000000E+00 0.  1.
         23    2    1    2    0    0  0.36582523406E+02 -0.83693695634E+01  0.10597531737E+03  0.14317439503E+03  0.88655581531E+02 0.  0.
         23    2    1    2    0    0 -0.36582523406E+02  0.83693695634E+01  0.25459545094E+03  0.28613907043E+03  0.12509355149E+03 0.  0.
          5    1    4    4  502    0  0.30603379346E+02  0.24241397829E+02  0.25467305779E+02  0.46800301919E+02  0.41800000000E+01 0.  1.
         -5    1    4    4    0  502 -0.67185902752E+02 -0.15872028265E+02  0.22912814516E+03  0.23933876851E+03  0.41800000000E+01 0.  1.
        -11    1    3    3    0    0 -0.16998018532E+02  0.33728448044E+01  0.81125770764E+02  0.82956008812E+02  0.00000000000E+00 0. -1.
         11    1    3    3    0    0  0.53580541938E+02 -0.11742214368E+02  0.24849546602E+02  0.60218386220E+02  0.00000000000E+00 0.  1.
</event>
<event>
 8    1  0.5900800E-006  0.1310874E+03  0.7561462E-02  0.1225851E+00
          2   -1    0    0  501    0  0.00000000000E+00  0.00000000000E+00  0.56091351042E+03  0.56091351042E+03  0.00000000000E+00 0. -1.
         -2   -1    0    0    0  501 -0.00000000000E+00 -0.00000000000E+00 -0.41967576020E+02  0.41967576020E+02  0.00000000000E+00 0.  1.
         23    2    1    2    0    0 -0.84738822367E+02  0.31597992086E+02  0.12148749382E+03  0.17650518241E+03  0.90640869055E+02 0.  0.
         23    2    1    2    0    0  0.84738822367E+02 -0.31597992086E+02  0.39745844059E+03  0.42637590404E+03  0.12507637038E+03 0.  0.
          5    1    4    4  502    0  0.56053978504E+02 -0.73416420542E+02  0.17232834233E+03  0.19556725003E+03  0.41800000000E+01 0.  1.
         -5    1    4    4    0  502  0.28684843863E+02  0.41818428456E+02  0.22513009825E+03  0.23080865401E+03  0.41800000000E+01 0.  1.
        -11    1    3    3    0    0 -0.26069004781E+02  0.50798100381E+02  0.25852111202E+02  0.62676723480E+02  0.00000000000E+00 0.  1.
         11    1    3    3    0    0 -0.58669817586E+02 -0.19200108295E+02  0.95635382615E+02  0.11382845893E+03  0.00000000000E+00 0. -1.
</event>
<event>
 8    1  0.5900800E-006  0.1061765E+03  0.7561462E-02  0.1267819E+00
         -1   -1    0    0    0  501 -0.00000000000E+00  0.00000000000E+00  0.31506632439E+02  0.31506632439E+02  0.00000000000E+00 0.  1.
          1   -1    0    0  501    0  0.00000000000E+00 -0.00000000000E+00 -0.60203603094E+03  0.60203603094E+03  0.00000000000E+00 0. -1.
         23    2    1    2    0    0 -0.32045049108E+02  0.46247223825E+02 -0.11105758148E+03  0.15403957786E+03  0.90712260806E+02 0.  0.
         23    2    1    2    0    0  0.32045049108E+02 -0.46247223825E+02 -0.45947181702E+03  0.47950308551E+03  0.12507264888E+03 0.  0.
          5    1    4    4  502    0  0.28384060216E+01 -0.75700447317E+02 -0.15923340773E+03  0.17638413991E+03  0.41800000000E+01 0.  1.
         -5    1    4    4    0  502  0.29206643086E+02  0.29453223492E+02 -0.30023840928E+03  0.30311894560E+03  0.41800000000E+01 0.  1.
        -11    1    3    3    0    0 -0.51971468428E+02  0.92720113249E+01 -0.95740999383E+02  0.10933134357E+03  0.00000000000E+00 0. -1.
         11    1    3    3    0    0  0.19926419320E+02  0.36975212500E+02 -0.15316582098E+02  0.44708234292E+02  0.00000000000E+00 0.  1.
</event>
<event>
 8    1  0.5900800E-006  0.1274942E+03  0.7561462E-02  0.1231222E+00
          1   -1    0    0  501    0  0.00000000000E+00  0.00000000000E+00  0.41176608285E+02  0.41176608285E+02  0.00000000000E+00 0. -1.
         -1   -1    0    0    0  501 -0.00000000000E+00 -0.00000000000E+00 -0.43266074303E+03  0.43266074303E+03  0.00000000000E+00 0.  1.
         23    2    1    2    0    0 -0.17477941372E+02  0.66181642738E+02 -0.23181104073E+03  0.25976032243E+03  0.95150292880E+02 0.  0.
         23    2    1    2    0    0  0.17477941372E+02 -0.66181642738E+02 -0.15967309401E+03  0.21407702888E+03  0.12509192249E+03 0.  0.
          5    1    4    4  502    0  0.68129491323E+02 -0.60115421674E+02 -0.11023934227E+03  0.14291842601E+03  0.41800000000E+01 0. -1.
         -5    1    4    4    0  502 -0.50651549951E+02 -0.60662210645E+01 -0.49433751747E+02  0.71158602868E+02  0.41800000000E+01 0. -1.
        -11    1    3    3    0    0 -0.30629659333E+02 -0.12494689717E+02 -0.39247603724E+02  0.51329014213E+02  0.00000000000E+00 0. -1.
         11    1    3    3    0    0  0.13151717961E+02  0.78676332455E+02 -0.19256343701E+03  0.20843130822E+03  0.00000000000E+00 0.  1.
</event>
<event>
 8    1  0.5900800E-006  0.1012943E+03  0.7561462E-02  0.1277598E+00
          1   -1    0    0  501    0  0.00000000000E+00  0.00000000000E+00  0.85144545237E+03  0.85144545237E+03  0.00000000000E+00 0. -1.
         -1   -1    0    0    0  501 -0.00000000000E+00 -0.00000000000E+00 -0.18768467542E+02  0.18768467542E+02  0.00000000000E+00 0.  1.
         23    2    1    2    0    0 -0.19837035099E+02  0.48316971891E+02  0.22778647489E+03  0.25032446370E+03  0.89708534986E+02 0.  0.
         23    2    1    2    0    0  0.19837035099E+02 -0.48316971891E+02  0.60489050994E+03  0.61988945621E+03  0.12506946540E+03 0.  0.
          5    1    4    4  502    0  0.21514449260E+02  0.40295275515E+02  0.24206316430E+03  0.24637091684E+03  0.41800000000E+01 0.  1.
         -5    1    4    4    0  502 -0.16774141613E+01 -0.88612247406E+02  0.36282734564E+03  0.37351853937E+03  0.41800000000E+01 0.  1.
        -11    1    3    3    0    0  0.83329288610E+01  0.36508033289E+02  0.21322108205E+03  0.21648441983E+03  0.00000000000E+00 0. -1.
         11    1    3    3    0    0 -0.28169963959E+02  0.11808938603E+02  0.14565392835E+02  0.33840043866E+02  0.00000000000E+00 0.  1.
</event>
<event>
 8    1  0.5900800E-006  0.1180586E+03  0.7561462E-02  0.1246335E+00
         -2   -1    0    0    0  501 -0.00000000000E+00  0.00000000000E+00  0.16098524112E+02  0.16098524112E+02  0.00000000000E+00 0.  1.
          2   -1    0    0  501    0  0.00000000000E+00 -0.00000000000E+00 -0.13080425385E+04  0.13080425385E+04  0.00000000000E+00 0. -1.
         23    2    1    2    0    0  0.42695536525E+02  0.21833773246E+02 -0.21368322190E+03  0.23758860060E+03  0.92131435037E+02 0.  0.
         23    2    1    2    0    0 -0.42695536525E+02 -0.21833773246E+02 -0.10782607925E+04  0.10865524620E+04  0.12510113343E+03 0.  0.
          5    1    4    4  502    0 -0.85902533395E+02 -0.22628659769E+01 -0.65701684246E+03  0.66262581408E+03  0.41800000000E+01 0.  1.
         -5    1    4    4    0  502  0.43206996869E+02 -0.19570907269E+02 -0.42124395004E+03  0.42392664794E+03  0.41800000000E+01 0.  1.
        -11    1    3    3    0    0  0.45155145302E+02  0.53895063215E+02 -0.12749748941E+03  0.14559970739E+03  0.00000000000E+00 0.  1.
         11    1    3    3    0    0 -0.24596087770E+01 -0.32061289970E+02 -0.86185732487E+02  0.91988893211E+02  0.00000000000E+00 0. -1.
</event>
<event>
 8    1  0.5900800E-006  0.1364508E+03  0.7561462E-02  0.1218186E+00
         -1   -1    0    0    0  501 -0.00000000000E+00  0.00000000000E+00  0.69336137109E+02  0.69336137109E+02  0.00000000000E+00 0.  1.
          1   -1    0    0  501    0  0.00000000000E+00 -0.00000000000E+00 -0.65130977284E+03  0.65130977284E+03  0.00000000000E+00 0. -1.
         23    2    1    2    0    0  0.41125545658E+02 -0.86356304914E+02 -0.16278715933E+02  0.13343765656E+03  0.91607257856E+02 0.  0.
         23    2    1    2    0    0 -0.41125545658E+02  0.86356304914E+02 -0.56569491980E+03  0.58720825339E+03  0.12511622061E+03 0.  0.
          5    1    4    4  502    0  0.35438382906E+02  0.18640758195E+02 -0.67297211614E+02  0.78420303111E+02  0.41800000000E+01 0. -1.
         -5    1    4    4    0  502 -0.76563928564E+02  0.67715546720E+02 -0.49839770819E+03  0.50878795028E+03  0.41800000000E+01 0. -1.
        -11    1    3    3    0    0  0.51644386275E+02 -0.91797742425E+01  0.50046557349E+01  0.52692100621E+02  0.00000000000E+00 0.  1.
         11    1    3    3    0    0 -0.10518840617E+02 -0.77176530672E+02 -0.21283371668E+02  0.80745555940E+02  0.00000000000E+00 0. -1.
</event>
<event>
 8    1  0.5900800E-006  0.1375297E+03  0.7561462E-02  0.1216692E+00
          2   -1    0    0  501    0  0.00000000000E+00  0.00000000000E+00  0.56342758610E+03  0.56342758610E+03  0.00000000000E+00 0.  1.
         -2   -1    0    0    0  501 -0.00000000000E+00 -0.00000000000E+00 -0.45373842913E+02  0.45373842913E+02  0.00000000000E+00 0. -1.
         23    2    1    2    0    0  0.87542283516E+02 -0.26300065013E+02  0.10342185128E+03  0.16616994957E+03  0.92525823394E+02 0.  0.
         23    2    1    2    0    0 -0.87542283516E+02  0.26300065013E+02  0.41463189191E+03  0.44263147944E+03  0.12509067105E+03 0.  0.
          5    1    4    4  502    0 -0.11696076704E+03  0.44707449508E+01  0.29325440818E+03  0.31577749905E+03  0.41800000000E+01 0.  1.
         -5    1    4    4    0  502  0.29418483519E+02  0.21829320063E+02  0.12137748372E+03  0.12685398039E+03  0.41800000000E+01 0.  1.
        -11    1    3    3    0    0  0.94943367909E+02 -0.41918103598E+02  0.61051665171E+02  0.12041044946E+03  0.00000000000E+00 0.  1.
         11    1    3    3    0    0 -0.74010843927E+01  0.15618038584E+02  0.42370186105E+02  0.45759500106E+02  0.00000000000E+00 0. -1.
</event>
<event>
 8    1  0.5900800E-006  0.7380550E+02  0.7561462E-02  0.1347610E+00
          2   -1    0    0  501    0  0.00000000000E+00  0.00000000000E+00  0.48713902322E+03  0.48713902322E+03  0.00000000000E+00 0.  1.
         -2   -1    0    0    0  501 -0.00000000000E+00 -0.00000000000E+00 -0.29742287037E+02  0.29742287037E+02  0.00000000000E+00 0. -1.
         23    2    1    2    0    0 -0.44797567597E+02  0.69316032562E+01  0.15401342124E+03  0.18560540590E+03  0.93136263564E+02 0.  0.
         23    2    1    2    0    0  0.44797567597E+02 -0.69316032562E+01  0.30338331494E+03  0.33127590435E+03  0.12508964720E+03 0.  0.
          5    1    4    4  502    0  0.56333135937E+02 -0.30589873187E+02  0.64928552480E+02  0.91336476137E+02  0.41800000000E+01 0.  1.
         -5    1    4    4    0  502 -0.11535568340E+02  0.23658269931E+02  0.23845476246E+03  0.23993942822E+03  0.41800000000E+01 0.  1.
        -11    1    3    3    0    0 -0.59547788047E+01 -0.12085755331E+02 -0.94893631369E+01  0.16479468598E+02  0.00000000000E+00 0. -1.
         11    1    3    3    0    0 -0.38842788792E+02  0.19017358587E+02  0.16350278438E+03  0.16912593730E+03  0.00000000000E+00 0.  1.
</event>
<event>
 8    1  0.5900800E-006  0.2086407E+03  0.7561462E-02  0.1142647E+00
          2   -1    0    0  501    0  0.00000000000E+00  0.00000000000E+00  0.48521782001E+02  0.48521782001E+02  0.00000000000E+00 0. -1.
         -2   -1    0    0    0  501 -0.00000000000E+00 -0.00000000000E+00 -0.93953197244E+03  0.93953197244E+03  0.00000000000E+00 0.  1.
         23    2    1    2    0    0  0.12746898997E+03  0.13156506584E+03 -0.45140084362E+03  0.49565065282E+03  0.91373618031E+02 0.  0.
         23    2    1    2    0    0 -0.12746898997E+03 -0.13156506584E+03 -0.43960934682E+03  0.49240310162E+03  0.12508687667E+03 0.  0.
          5    1    4    4  502    0 -0.14013445336E+03 -0.82590761638E+02 -0.38432682957E+03  0.41735294806E+03  0.41800000000E+01 0.  1.
         -5    1    4    4    0  502  0.12665463391E+02 -0.48974304206E+02 -0.55282517253E+02  0.75050153559E+02  0.41800000000E+01 0.  1.
        -11    1    3    3    0    0  0.98202129998E+02  0.37205623892E+02 -0.20927735974E+03  0.23414724018E+03  0.00000000000E+00 0.  1.
         11    1    3    3    0    0  0.29266859970E+02  0.94359441952E+02 -0.24212348388E+03  0.26150341264E+03  0.00000000000E+00 0. -1.
</event>
<event>
 8    1  0.5900800E-006  0.1542519E+03  0.7561462E-02  0.1195343E+00
         -1   -1    0    0    0  501 -0.00000000000E+00  0.00000000000E+00  0.44956160801E+02  0.44956160801E+02  0.00000000000E+00 0.  1.
          1   -1    0    0  501    0  0.00000000000E+00 -0.00000000000E+00 -0.74004705779E+03  0.74004705779E+03  0.00000000000E+00 0. -1.
         23    2    1    2    0    0  0.61150525363E+02  0.11530016127E+03 -0.20349880710E+03  0.26123331990E+03  0.98982670172E+02 0.  0.
         23    2    1    2    0    0 -0.61150525363E+02 -0.11530016127E+03 -0.49159208989E+03  0.52376989869E+03  0.12505442812E+03 0.  0.
          5    1    4    4  502    0  0.65414450609E+01 -0.10638413170E+03 -0.35986597643E+03  0.37534166751E+03  0.41800000000E+01 0.  1.
         -5    1    4    4    0  502 -0.67691970424E+02 -0.89160295720E+01 -0.13172611346E+03  0.14842823118E+03  0.41800000000E+01 0.  1.
        -11    1    3    3    0    0  0.42383796341E+02  0.10192806700E+03 -0.21003817254E+03  0.23727990003E+03  0.00000000000E+00 0. -1.
         11    1    3    3    0    0  0.18766729022E+02  0.13372094267E+02  0.65393654361E+01  0.23953419872E+02  0.00000000000E+00 0.  1.
</event>
<event>
 8    1  0.5900800E-006  0.1102734E+03  0.7561462E-02  0.1260064E+00
          2   -1    0    0  501    0  0.00000000000E+00  0.00000000000E+00  0.18831768241E+03  0.18831768241E+03  0.00000000000E+00 0.  1.
         -2   -1    0    0    0  501 -0.00000000000E+00 -0.00000000000E+00 -0.77687214956E+02  0.77687214956E+02  0.00000000000E+00 0. -1.
         23    2    1    2    0    0  0.19490544554E+02  0.42267625115E+02  0.26193939668E+02  0.10806864924E+03  0.93948267754E+02 0.  0.
         23    2    1    2    0    0 -0.19490544554E+02 -0.42267625115E+02  0.84436527788E+02  0.15793624813E+03  0.12509155762E+03 0.  0.
          5    1    4    4  502    0 -0.65040451955E+02  0.55447443660E+01  0.55229438607E+02  0.85608223142E+02  0.41800000000E+01 0. -1.
         -5    1    4    4    0  502  0.45549907400E+02 -0.47812369481E+02  0.29207089181E+02  0.72328024984E+02  0.41800000000E+01 0. -1.
        -11    1    3    3    0    0 -0.24837928891E+02 -0.36961234909E+01  0.35555839603E+02  0.43529320812E+02  0.00000000000E+00 0.  1.
         11    1    3    3    0    0  0.44328473446E+02  0.45963748606E+02 -0.93618999357E+01  0.64539328431E+02  0.00000000000E+00 0. -1.
</event>
<event>
 8    1  0.5900800E-006  0.1216400E+03  0.7561462E-02  0.1240416E+00
         -4   -1    0    0    0  501 -0.00000000000E+00  0.00000000000E+00  0.10773955655E+03  0.10773955655E+03  0.00000000000E+00 0. -1.
          4   -1    0    0  501    0  0.00000000000E+00 -0.00000000000E+00 -0.14579792983E+03  0.14579792983E+03  0.00000000000E+00 0.  1.
         23    2    1    2    0    0  0.30911974217E+02  0.51290189769E+02 -0.34870174096E+01  0.11060800022E+03  0.92928664610E+02 0.  0.
         23    2    1    2    0    0 -0.30911974217E+02 -0.51290189769E+02 -0.34571355862E+02  0.14292948616E+03  0.12508967044E+03 0.  0.
          5    1    4    4  502    0  0.47518945288E+02 -0.13093629911E+02 -0.13449250425E+01  0.49485094008E+02  0.41800000000E+01 0. -1.
         -5    1    4    4    0  502 -0.78430919505E+02 -0.38196559857E+02 -0.33226430820E+02  0.93444392150E+02  0.41800000000E+01 0. -1.
        -11    1    3    3    0    0  0.30210065396E+02  0.75985293681E+02  0.10135186778E+02  0.82396206940E+02  0.00000000000E+00 0.  1.
         11    1    3    3    0    0  0.70190882086E+00 -0.24695103913E+02 -0.13622204187E+02  0.28211793282E+02  0.00000000000E+00 0. -1.
</event>
<event>
 8    1  0.5900800E-006  0.7683474E+02  0.7561462E-02  0.1338282E+00
         -1   -1    0    0    0  501 -0.00000000000E+00  0.00000000000E+00  0.35122779855E+02  0.35122779855E+02  0.00000000000E+00 0.  1.
          1   -1    0    0  501    0  0.00000000000E+00 -0.00000000000E+00 -0.54389035392E+03  0.54389035392E+03  0.00000000000E+00 0. -1.
         23    2    1    2    0    0  0.10150898130E+02 -0.60352155052E+02 -0.10155750263E+03  0.14864908790E+03  0.89650441379E+02 0.  0.
         23    2    1    2    0    0 -0.10150898130E+02  0.60352155052E+02 -0.40721007144E+03  0.43036404588E+03  0.12509095233E+03 0.  0.
          5    1    4    4  502    0  0.21115431053E+02  0.41227601390E+02 -0.38394440729E+03  0.38675102693E+03  0.41800000000E+01 0.  1.
         -5    1    4    4    0  502 -0.31266329183E+02  0.19124553662E+02 -0.23265664144E+02  0.43613018944E+02  0.41800000000E+01 0.  1.
        -11    1    3    3    0    0 -0.10188909315E+02 -0.40819605325E+02 -0.11116305913E+03  0.11885823391E+03  0.00000000000E+00 0. -1.
         11    1    3    3    0    0  0.20339807444E+02 -0.19532549727E+02  0.96055565012E+01  0.29790853990E+02  0.00000000000E+00 0.  1.
</event>
<event>
 8    1  0.5900800E-006  0.9992240E+02  0.7561462E-02  0.1280459E+00
         -1   -1    0    0    0  501 -0.00000000000E+00  0.00000000000E+00  0.33487912889E+02  0.33487912889E+02  0.00000000000E+00 0.  1.
          1   -1    0    0  501    0  0.00000000000E+00 -0.00000000000E+00 -0.81327221307E+03  0.81327221307E+03  0.00000000000E+00 0. -1.
         23    2    1    2    0    0  0.38464187023E+02 -0.46677194379E+02 -0.72230402624E+02  0.12569377782E+03  0.83207214603E+02 0.  0.
         23    2    1    2    0    0 -0.38464187023E+02  0.46677194379E+02 -0.70755389755E+03  0.72106634813E+03  0.12508359727E+03 0.  0.
          5    1    4    4  502    0 -0.62259243897E+02  0.14106857274E+02 -0.63276368872E+03  0.63598944570E+03  0.41800000000E+01 0. -1.
         -5    1    4    4    0  502  0.23795056874E+02  0.32570337106E+02 -0.74790208831E+02  0.85076902435E+02  0.41800000000E+01 0. -1.
        -11    1    3    3    0    0  0.24909778181E+02 -0.66665620173E+02 -0.72429387786E+02  0.10154219900E+03  0.00000000000E+00 0. -1.
         11    1    3    3    0    0  0.13554408842E+02  0.19988425793E+02  0.19898516232E+00  0.24151578827E+02  0.00000000000E+00 0.  1.
</event>
<event>
 8    1  0.5900800E-006  0.1389478E+03  0.7561462E-02  0.1214752E+00
          1   -1    0    0  501    0  0.00000000000E+00  0.00000000000E+00  0.68196024382E+03  0.68196024382E+03  0.00000000000E+00 0. -1.
         -1   -1    0    0    0  501 -0.00000000000E+00 -0.00000000000E+00 -0.31408723842E+02  0.31408723842E+02  0.00000000000E+00 0.  1.
         23    2    1    2    0    0 -0.92351726138E+02  0.19379743853E+02  0.23143309708E+03  0.26591883325E+03  0.90813719558E+02 0.  0.
         23    2    1    2    0    0  0.92351726138E+02 -0.19379743853E+02  0.41911842289E+03  0.44745013441E+03  0.12508778750E+03 0.  0.
          5    1    4    4  502    0  0.11576895044E+03  0.10952339268E+01  0.38017015066E+03  0.39742982435E+03  0.41800000000E+01 0. -1.
         -5    1    4    4    0  502 -0.23417224305E+02 -0.20474977780E+02  0.38948272230E+02  0.50020310064E+02  0.41800000000E+01 0. -1.
        -11    1    3    3    0    0 -0.54201349088E+01 -0.30133445772E+02  0.46843172775E+02  0.55961462206E+02  0.00000000000E+00 0.  1.
         11    1    3    3    0    0 -0.86931591229E+02  0.49513189626E+02  0.18458992431E+03  0.20995737105E+03  0.00000000000E+00 0. -1.
</event>
<event>
 8    1  0.5900800E-006  0.9624204E+02  0.7561462E-02  0.1288403E+00
         -2   -1    0    0    0  501 -0.00000000000E+00  0.00000000000E+00  0.36195950247E+02  0.36195950247E+02  0.00000000000E+00 0.  1.
          2   -1    0    0  501    0  0.00000000000E+00 -0.00000000000E+00 -0.13311979303E+04  0.13311979303E+04  0.00000000000E+00 0. -1.
         23    2    1    2    0    0 -0.54677197147E+02 -0.39522620279E+02 -0.64994397117E+02  0.13054778423E+03  0.90922048526E+02 0.  0.
         23    2    1    2    0    0  0.54677197147E+02  0.39522620279E+02 -0.12300075829E+04  0.12368460963E+04  0.11098638882E+03 0.  0.
          5    1    4    4  502    0  0.85651141445E+02  0.36802802231E+02 -0.10487532476E+04  0.10528966763E+04  0.41800000000E+01 0. -1.
         -5    1    4    4    0  502 -0.30973944298E+02  0.27198180476E+01 -0.18125433532E+03  0.18394941997E+03  0.41800000000E+01 0.  1.
        -11    1    3    3    0    0 -0.26462756720E+02 -0.23237998200E+02 -0.85215039653E+02  0.92205667052E+02  0.00000000000E+00 0. -1.
         11    1    3    3    0    0 -0.28214440426E+02 -0.16284622079E+02  0.20220642536E+02  0.38342117174E+02  0.00000000000E+00 0.  1.
</event>
<event>
 8    1  0.5900800E-006  0.9766553E+02  0.7561462E-02  0.1285283E+00
          1   -1    0    0  501    0  0.00000000000E+00  0.00000000000E+00  0.78969535554E+03  0.78969535554E+03  0.00000000000E+00 0. -1.
         -1   -1    0    0    0  501 -0.00000000000E+00 -0.00000000000E+00 -0.24319671231E+02  0.24319671231E+02  0.00000000000E+00 0.  1.
         23    2    1    2    0    0  0.26273038370E+02 -0.42725126299E+02  0.12261851564E+03  0.15993208999E+03  0.89595000246E+02 0.  0.
         23    2    1    2    0    0 -0.26273038370E+02  0.42725126299E+02  0.64275716867E+03  0.65408293678E+03  0.11032679342E+03 0.  0.
          5    1    4    4  502    0  0.30592667594E+02  0.38141579890E+02  0.45930864170E+03  0.46192271233E+03  0.41800000000E+01 0. -1.
         -5    1    4    4    0  502 -0.56865705964E+02  0.45835464094E+01  0.18344852697E+03  0.19216022444E+03  0.41800000000E+01 0.  1.
        -11    1    3    3    0    0 -0.48479350910E+01  0.19171543738E+02  0.79994463236E+00  0.19791171652E+02  0.00000000000E+00 0. -1.
         11    1    3    3    0    0  0.31120973461E+02 -0.61896670037E+02  0.12181857101E+03  0.14014091834E+03  0.00000000000E+00 0.  1.
</event>
<event>
 8    1  0.5900800E-006  0.1070389E+03  0.7561462E-02  0.1266154E+00
          1   -1    0    0  501    0  0.00000000000E+00  0.00000000000E+00  0.87439891646E+02  0.87439891646E+02  0.00000000000E+00 0. -1.
         -1   -1    0    0    0  501 -0.00000000000E+00 -0.00000000000E+00 -0.15860890466E+03  0.15860890466E+03  0.00000000000E+00 0.  1.
         23    2    1    2    0    0 -0.23007260917E+02 -0.76992994908E+01 -0.73054461343E+02  0.11861228867E+03  0.90240276114E+02 0.  0.
         23    2    1    2    0    0  0.23007260917E+02  0.76992994908E+01  0.18854483274E+01  0.12743650764E+03  0.12509154766E+03 0.  0.
          5    1    4    4  502    0  0.31835309290E+02  0.60426590008E+02 -0.17132287131E+02  0.70539686418E+02  0.41800000000E+01 0.  1.
         -5    1    4    4    0  502 -0.88280483729E+01 -0.52727290517E+02  0.19017735458E+02  0.56896821223E+02  0.41800000000E+01 0.  1.
        -11    1    3    3    0    0  0.14049651296E+01 -0.46317452702E+02 -0.47073239524E+02  0.66054297598E+02  0.00000000000E+00 0.  1.
         11    1    3    3    0    0 -0.24412226046E+02  0.38618153211E+02 -0.25981221819E+02  0.52557991069E+02  0.00000000000E+00 0. -1.
</event>
<event>
 7    1  0.5900800E-006  0.1119375E+03  0.7561462E-02  0.1257023E+00
          2   -1    0    0  501    0  0.00000000000E+00  0.00000000000E+00  0.12922461913E+04  0.12922461913E+04  0.00000000000E+00 0. -1.
         -2   -1    0    0    0  501 -0.00000000000E+00 -0.00000000000E+00 -0.26415090874E+02  0.26415090874E+02  0.00000000000E+00 0.  1.
         23    2    1    2    0    0  0.35247806150E+02  0.82696543373E+01  0.11182058021E+03  0.14977978056E+03  0.92840430227E+02 0.  0.
          5    1    1    2  502    0 -0.98547038241E+02 -0.46268671480E+02  0.58184306073E+03  0.59195534327E+03  0.41800000000E+01 0. -1.
         -5    1    1    2    0  502  0.63299232092E+02  0.37999017143E+02  0.57216745946E+03  0.57692615832E+03  0.41800000000E+01 0.  1.
        -11    1    3    3    0    0  0.22601924360E+02 -0.44579919505E+01  0.12526110960E+03  0.12736194979E+03  0.00000000000E+00 0. -1.
         11    1    3    3    0    0  0.12645881790E+02  0.12727646288E+02 -0.13440529385E+02  0.22417830770E+02  0.00000000000E+00 0.  1.
</event>
<event>
 8    1  0.5900800E-006  0.2597822E+03  0.7561462E-02  0.1107274E+00
         -1   -1    0    0    0  501 -0.00000000000E+00  0.00000000000E+00  0.49298198057E+02  0.49298198057E+02  0.00000000000E+00 0.  1.
          1   -1    0    0  501    0  0.00000000000E+00 -0.00000000000E+00 -0.15942343401E+04  0.15942343401E+04  0.00000000000E+00 0. -1.
         23    2    1    2    0    0 -0.12771453311E+03  0.21835555906E+03 -0.90463703089E+03  0.94380323671E+03  0.91685548702E+02 0.  0.
         23    2    1    2    0    0  0.12771453311E+03 -0.21835555906E+03 -0.64029911120E+03  0.69972930149E+03  0.12509193186E+03 0.  0.
          5    1    4    4  502    0  0.22526123066E+01  0.23291206382E+01 -0.12663369288E+03  0.12674408719E+03  0.41800000000E+01 0.  1.
         -5    1    4    4    0  502  0.12546192080E+03 -0.22068467970E+03 -0.51366541832E+03  0.57298521430E+03  0.41800000000E+01 0.  1.
        -11    1    3    3    0    0 -0.10227021490E+03  0.11478590299E+03 -0.41186397596E+03  0.43962135421E+03  0.00000000000E+00 0.  1.
         11    1    3    3    0    0 -0.25444318212E+02  0.10356965607E+03 -0.49277305492E+03  0.50418188250E+03  0.00000000000E+00 0. -1.
</event>
<event>
 8    1  0.5900800E-006  0.1332084E+03  0.7561462E-02  0.1222771E+00
          2   -1    0    0  501    0  0.00000000000E+00  0.00000000000E+00  0.78889921965E+03  0.78889921965E+03  0.00000000000E+00 0. -1.
         -2   -1    0    0    0  501 -0.00000000000E+00 -0.00000000000E+00 -0.30473463269E+02  0.30473463269E+02  0.00000000000E+00 0.  1.
         23    2    1    2    0    0 -0.17965977912E+02  0.83618569347E+02  0.16551968658E+03  0.20740438663E+03  0.91131616058E+02 0.  0.
         23    2    1    2    0    0  0.17965977912E+02 -0.83618569347E+02  0.59290606980E+03  0.61196829629E+03  0.12511093699E+03 0.  0.
          5    1    4    4  502    0 -0.33559973704E+02 -0.90330932717E+02  0.43907837877E+03  0.44954782209E+03  0.41800000000E+01 0.  1.
         -5    1    4    4    0  502  0.51525951616E+02  0.67123633695E+01  0.15382769103E+03  0.16242047420E+03  0.41800000000E+01 0.  1.
        -11    1    3    3    0    0 -0.50284883833E+02  0.56576455941E+02  0.70413570355E+02  0.10338053878E+03  0.00000000000E+00 0. -1.
         11    1    3    3    0    0  0.32318905920E+02  0.27042113406E+02  0.95106116224E+02  0.10402384785E+03  0.00000000000E+00 0.  1.
</event>
<event>
 8    1  0.5900800E-006  0.8850659E+02  0.7561462E-02  0.1306509E+00
         -1   -1    0    0    0  501 -0.00000000000E+00  0.00000000000E+00  0.31887260230E+03  0.31887260230E+03  0.00000000000E+00 0.  1.
          1   -1    0    0  501    0  0.00000000000E+00 -0.00000000000E+00 -0.48928450245E+02  0.48928450245E+02  0.00000000000E+00 0. -1.
         23    2    1    2    0    0 -0.50202027925E+02  0.46837825605E+02  0.12861300475E+03  0.16697470661E+03  0.81395467569E+02 0.  0.
         23    2    1    2    0    0  0.50202027925E+02 -0.46837825605E+02  0.14133114731E+03  0.20082634594E+03  0.12507078999E+03 0.  0.
          5    1    4    4  502    0  0.33675372094E+02 -0.39503746311E+02 -0.59178847830E+01  0.52412502502E+02  0.41800000000E+01 0.  1.
         -5    1    4    4    0  502  0.16526655831E+02 -0.73340792948E+01  0.14724903209E+03  0.14841384344E+03  0.41800000000E+01 0.  1.
        -11    1    3    3    0    0  0.83425213525E+01  0.47099802504E+02  0.54106668522E+02  0.72218561582E+02  0.00000000000E+00 0. -1.
         11    1    3    3    0    0 -0.58544549278E+02 -0.26197689896E+00  0.74506336226E+02  0.94756145024E+02  0.00000000000E+00 0.  1.
</event>
<event>
 8    1  0.5900800E-006  0.2446933E+03  0.7561462E-02  0.1116705E+00
          3   -1    0    0  501    0  0.00000000000E+00  0.00000000000E+00  0.47835766288E+02  0.47835766288E+02  0.00000000000E+00 0. -1.
         -3   -1    0    0    0  501 -0.00000000000E+00 -0.00000000000E+00 -0.15240453901E+04  0.15240453901E+04  0.00000000000E+00 0.  1.
         23    2    1    2    0    0  0.23570460895E+03 -0.37649855958E+02 -0.90417506464E+03  0.93956973745E+03  0.91019611600E+02 0.  0.
         23    2    1    2    0    0 -0.23570460895E+03  0.37649855958E+02 -0.57203455917E+03  0.63231141893E+03  0.12498007558E+03 0.  0.
          5    1    4    4  502    0 -0.54665659005E+02  0.22163221226E+02 -0.29576786097E+03  0.30162168794E+03  0.41800000000E+01 0.  1.
         -5    1    4    4    0  502 -0.18103894994E+03  0.15486634731E+02 -0.27626669820E+03  0.33068973100E+03  0.41800000000E+01 0.  1.
        -11    1    3    3    0    0  0.74334860957E+02  0.20277521335E+02 -0.18840509442E+03  0.20355178464E+03  0.00000000000E+00 0.  1.
         11    1    3    3    0    0  0.16136974799E+03 -0.57927377293E+02 -0.71576997022E+03  0.73601795282E+03  0.00000000000E+00 0. -1.
</event>
<event>
 8    1  0.5900800E-006  0.1622839E+03  0.7561462E-02  0.1186142E+00
          2   -1    0    0  501    0  0.00000000000E+00  0.00000000000E+00  0.22111726613E+03  0.22111726613E+03  0.00000000000E+00 0. -1.
         -2   -1    0    0    0  501 -0.00000000000E+00 -0.00000000000E+00 -0.16729875975E+03  0.16729875975E+03  0.00000000000E+00 0.  1.
         23    2    1    2    0    0 -0.95808990646E+02 -0.12095227423E+03 -0.98880498784E+01  0.17981682458E+03  0.91801424512E+02 0.  0.
         23    2    1    2    0    0  0.95808990646E+02  0.12095227423E+03  0.63706556257E+02  0.20859920130E+03  0.12508511559E+03 0.  0.
          5    1    4    4  502    0  0.40107910042E+02  0.43990148259E+01  0.68113258830E+02  0.79277261607E+02  0.41800000000E+01 0.  1.
         -5    1    4    4    0  502  0.55701080605E+02  0.11655325941E+03 -0.44067025740E+01  0.12932193970E+03  0.41800000000E+01 0.  1.
        -11    1    3    3    0    0 -0.71931465922E+02 -0.82102535085E+02 -0.49085763133E+02  0.11968447769E+03  0.00000000000E+00 0.  1.
         11    1    3    3    0    0 -0.23877524724E+02 -0.38849739149E+02  0.39197713255E+02  0.60132346897E+02  0.00000000000E+00 0. -1.
</event>
<event>
 8    1  0.5900800E-006  0.1173724E+03  0.7561462E-02  0.1247496E+00
         -3   -1    0    0    0  501 -0.00000000000E+00  0.00000000000E+00  0.25766589059E+03  0.25766589059E+03  0.00000000000E+00 0.  1.
          3   -1    0    0  501    0  0.00000000000E+00 -0.00000000000E+00 -0.11423450549E+03  0.11423450549E+03  0.00000000000E+00 0. -1.
         23    2    1    2    0    0  0.61067015666E+02  0.70871779302E+02  0.16857178468E+03  0.21368768697E+03  0.92162852963E+02 0.  0.
         23    2    1    2    0    0 -0.61067015666E+02 -0.70871779302E+02 -0.25140399581E+02  0.15821270911E+03  0.12508889690E+03 0.  0.
          5    1    4    4  502    0 -0.99962083418E+01 -0.66515000427E+02 -0.64629797396E+02  0.93373725290E+02  0.41800000000E+01 0.  1.
         -5    1    4    4    0  502 -0.51070807324E+02 -0.43567788754E+01  0.39489397815E+02  0.64838983819E+02  0.41800000000E+01 0.  1.
        -11    1    3    3    0    0  0.67209752183E+02  0.28318045974E+02  0.52369910679E+02  0.89786803378E+02  0.00000000000E+00 0. -1.
         11    1    3    3    0    0 -0.61427365175E+01  0.42553733329E+02  0.11620187400E+03  0.12390088359E+03  0.00000000000E+00 0.  1.
</event>
<event>
 8    1  0.6969639E-006  0.8890297E+02  0.7561462E-02  0.1305530E+00
          2   -1    0    0  501    0  0.00000000000E+00  0.00000000000E+00  0.84428191481E+03  0.84428191481E+03  0.00000000000E+00 0.  1.
         -2   -1    0    0    0  501 -0.00000000000E+00 -0.00000000000E+00 -0.17679063000E+02  0.17679063000E+02  0.00000000000E+00 0. -1.
         23    2    1    2    0    0 -0.44361881045E+02 -0.90378850266E+01  0.25500236495E+03  0.27508397111E+03  0.92710976583E+02 0.  0.
         23    2    1    2    0    0  0.44361881045E+02  0.90378850266E+01  0.57160048686E+03  0.58687700669E+03  0.12509134484E+03 0.  0.
          5    1    4    4  502    0 -0.27958032741E+02  0.29438860781E+02  0.82753300905E+02  0.92270685103E+02  0.41800000000E+01 0.  1.
         -5    1    4    4    0  502  0.72319913786E+02 -0.20400975754E+02  0.48884718596E+03  0.49460632159E+03  0.41800000000E+01 0.  1.
        -11    1    3    3    0    0 -0.45384274677E+02 -0.20802448545E+02  0.25809302437E+03  0.26287731640E+03  0.00000000000E+00 0.  1.
         11    1    3    3    0    0  0.10223936322E+01  0.11764563519E+02 -0.30906594194E+01  0.12206654708E+02  0.00000000000E+00 0. -1.
</event>
<event>
 8    1  0.5900800E-006  0.1009685E+03  0.7561462E-02  0.1278272E+00
         -3   -1    0    0    0  501 -0.00000000000E+00  0.00000000000E+00  0.21555706681E+02  0.21555706681E+02  0.00000000000E+00 0.  1.
          3   -1    0    0  501    0  0.00000000000E+00 -0.00000000000E+00 -0.62110289334E+03  0.62110289334E+03  0.00000000000E+00 0. -1.
         23    2    1    2    0    0 -0.33184076598E+02 -0.19307806595E+02 -0.23387754862E+03  0.25428489899E+03  0.92131035878E+02 0.  0.
         23    2    1    2    0    0  0.33184076598E+02  0.19307806595E+02 -0.36566963804E+03  0.38837370103E+03  0.12508346466E+03 0.  0.
          5    1    4    4  502    0 -0.41574338910E+02 -0.12618422935E+02 -0.18715390377E+03  0.19217623773E+03  0.41800000000E+01 0.  1.
         -5    1    4    4    0  502  0.74758415509E+02  0.31926229530E+02 -0.17851573427E+03  0.19619746330E+03  0.41800000000E+01 0.  1.
        -11    1    3    3    0    0 -0.28560141181E+02 -0.43623010180E+02 -0.21961273216E+03  0.22571752437E+03  0.00000000000E+00 0. -1.
         11    1    3    3    0    0 -0.46239354178E+01  0.24315203585E+02 -0.14264816460E+02  0.28567374622E+02  0.00000000000E+00 0.  1.
</event>
<event>
 8    1  0.5900800E-006  0.8580037E+02  0.7561462E-02  0.1313353E+00
         -1   -1    0    0    0  501 -0.00000000000E+00  0.00000000000E+00  0.17517394165E+02  0.17517394165E+02  0.00000000000E+00 0.  1.
          1   -1    0    0  501    0  0.00000000000E+00 -0.00000000000E+00 -0.85689357425E+03  0.85689357425E+03  0.00000000000E+00 0. -1.
         23    2    1    2    0    0 -0.52268897521E+02  0.15641803884E+02 -0.32107754955E+03  0.33844662180E+03  0.92079418476E+02 0.  0.
         23    2    1    2    0    0  0.52268897521E+02 -0.15641803884E+02 -0.51829863053E+03  0.53596434661E+03  0.12509039431E+03 0.  0.
          5    1    4    4  502    0  0.28696602290E+02 -0.26289157407E+02 -0.36708203968E+02  0.53661712782E+02  0.41800000000E+01 0. -1.
         -5    1    4    4    0  502  0.23572295231E+02  0.10647353523E+02 -0.48159042656E+03  0.48230263383E+03  0.41800000000E+01 0. -1.
        -11    1    3    3    0    0  0.12993489747E+02 -0.25843488253E+02 -0.70365015576E+02  0.76078591456E+02  0.00000000000E+00 0.  1.
         11    1    3    3    0    0 -0.65262387268E+02  0.41485292137E+02 -0.25071253398E+03  0.26236803035E+03  0.00000000000E+00 0. -1.
</event>
<event>
 8    1  0.5900800E-006  0.7853899E+02  0.7561462E-02  0.1333249E+00
          4   -1    0    0  501    0  0.00000000000E+00  0.00000000000E+00  0.63773492355E+02  0.63773492355E+02  0.00000000000E+00 0. -1.
         -4   -1    0    0    0  501 -0.00000000000E+00 -0.00000000000E+00 -0.19786534396E+03  0.19786534396E+03  0.00000000000E+00 0.  1.
         23    2    1    2    0    0  0.70430276675E+01 -0.30166370398E+02 -0.57399355668E+02  0.11183290333E+03  0.90842160329E+02 0.  0.
         23    2    1    2    0    0 -0.70430276675E+01  0.30166370398E+02 -0.76692495936E+02  0.14980593299E+03  0.12490181938E+03 0.  0.
          5    1    4    4  502    0  0.33728527516E+02 -0.14427241239E+02  0.15051948632E+02  0.39872201040E+02  0.41800000000E+01 0. -1.
         -5    1    4    4    0  502 -0.40771555183E+02  0.44593611637E+02 -0.91744444569E+02  0.10993373195E+03  0.41800000000E+01 0. -1.
        -11    1    3    3    0    0 -0.15508071812E+02  0.62787973083E+01  0.18329743248E+02  0.24817394595E+02  0.00000000000E+00 0. -1.
         11    1    3    3    0    0  0.22551099480E+02 -0.36445167706E+02 -0.75729098916E+02  0.87015508730E+02  0.00000000000E+00 0.  1.
</event>
<event>
 8    1  0.5900800E-006  0.2842541E+03  0.7561462E-02  0.1093388E+00
          2   -1    0    0  501    0  0.00000000000E+00  0.00000000000E+00  0.22613606072E+03  0.22613606072E+03  0.00000000000E+00 0.  1.
         -2   -1    0    0    0  501 -0.00000000000E+00 -0.00000000000E+00 -0.43261458882E+03  0.43261458882E+03  0.00000000000E+00 0. -1.
         23    2    1    2    0    0 -0.19353331670E+03  0.19409852154E+03 -0.21065689582E+03  0.35742934001E+03  0.90829646064E+02 0.  0.
         23    2    1    2    0    0  0.19353331670E+03 -0.19409852154E+03  0.41783677152E+01  0.30132130954E+03  0.12509073541E+03 0.  0.
          5    1    4    4  502    0  0.12016694452E+03 -0.15619287762E+03  0.54522157815E+02  0.20451515266E+03  0.41800000000E+01 0. -1.
         -5    1    4    4    0  502  0.73366372185E+02 -0.37905643927E+02 -0.50343790099E+02  0.96806156884E+02  0.41800000000E+01 0. -1.
        -11    1    3    3    0    0 -0.10095104320E+03  0.16169260094E+03 -0.14209773258E+03  0.23775486520E+03  0.00000000000E+00 0.  1.
         11    1    3    3    0    0 -0.92582273501E+02  0.32405920605E+02 -0.68559163238E+02  0.11967447481E+03  0.00000000000E+00 0. -1.
</event>
<event>
 7    1  0.5900800E-006  0.9491077E+02  0.7561462E-02  0.1291377E+00
         -2   -1    0    0    0  501 -0.00000000000E+00  0.00000000000E+00  0.16355161821E+02  0.16355161821E+02  0.00000000000E+00 0.  1.
          2   -1    0    0  501    0  0.00000000000E+00 -0.00000000000E+00 -0.57168060456E+03  0.57168060456E+03  0.00000000000E+00 0. -1.
         23    2    1    2    0    0 -0.46299300601E+02  0.21213907326E+02 -0.34355884163E+03  0.36481285186E+03  0.11163370512E+03 0.  0.
          5    1    3    3  502    0 -0.82949197590E+02  0.14316734303E+02 -0.25709422035E+03  0.27055581457E+03  0.41800000000E+01 0. -1.
         -5    1    3    3    0  502  0.36649896989E+02  0.68971730232E+01 -0.86464621286E+02  0.94257037292E+02  0.41800000000E+01 0.  1.
        -11    1    1    2    0    0  0.14728263711E+02 -0.31531111619E+02 -0.13805441697E+03  0.14237329383E+03  0.00000000000E+00 0. -1.
         11    1    1    2    0    0  0.31571036890E+02  0.10317204293E+02 -0.73712184132E+02  0.80849620681E+02  0.00000000000E+00 0.  1.
</event>
<event>
 8    1  0.5900800E-006  0.1109263E+03  0.7561462E-02  0.1258864E+00
          1   -1    0    0  501    0  0.00000000000E+00  0.00000000000E+00  0.22018943203E+03  0.22018943203E+03  0.00000000000E+00 0. -1.
         -1   -1    0    0    0  501 -0.00000000000E+00 -0.00000000000E+00 -0.16285845531E+03  0.16285845531E+03  0.00000000000E+00 0.  1.
         23    2    1    2    0    0  0.66350943584E+02  0.68557122618E+02 -0.83659247158E+02  0.17179516398E+03  0.11581097510E+03 0.  0.
         23    2    1    2    0    0 -0.66350943584E+02 -0.68557122618E+02  0.14099022387E+03  0.21125272337E+03  0.12508774171E+03 0.  0.
          5    1    4    4  502    0 -0.10606889649E+02  0.13119028260E+02 -0.17328147169E+02  0.24542862401E+02  0.41800000000E+01 0. -1.
         -5    1    4    4    0  502 -0.55744053936E+02 -0.81676150878E+02  0.15831837104E+03  0.18670986096E+03  0.41800000000E+01 0. -1.
        -11    1    3    3    0    0  0.10201099111E+02  0.42298810021E+02 -0.98825675949E+02  0.10798039627E+03  0.00000000000E+00 0.  1.
         11    1    3    3    0    0  0.56149844474E+02  0.26258312597E+02  0.15166428791E+02  0.63814767704E+02  0.00000000000E+00 0. -1.
</event>
<event>
 8    1  0.5900800E-006  0.1616009E+03  0.7561462E-02  0.1186901E+00
          2   -1    0    0  501    0  0.00000000000E+00  0.00000000000E+00  0.55873406619E+03  0.55873406619E+03  0.00000000000E+00 0. -1.
         -2   -1    0    0    0  501 -0.00000000000E+00 -0.00000000000E+00 -0.49745677410E+02  0.49745677410E+02  0.00000000000E+00 0.  1.
         23    2    1    2    0    0 -0.13018754309E+02 -0.12500174198E+03  0.18738978409E+03  0.24123600521E+03  0.85351951145E+02 0.  0.
         23    2    1    2    0    0  0.13018754309E+02  0.12500174198E+03  0.32159860468E+03  0.36724373839E+03  0.12508947753E+03 0.  0.
          5    1    4    4  502    0 -0.12902893862E+01  0.14900190165E+03  0.27073942125E+03  0.30906397098E+03  0.41800000000E+01 0. -1.
         -5    1    4    4    0  502  0.14309043696E+02 -0.24000159669E+02  0.50859183433E+02  0.58179767403E+02  0.41800000000E+01 0. -1.
        -11    1    3    3    0    0 -0.24998808256E+02 -0.13037700244E+03  0.14378358130E+03  0.19569573688E+03  0.00000000000E+00 0.  1.
         11    1    3    3    0    0  0.11980053946E+02  0.53752604636E+01  0.43606202793E+02  0.45540268330E+02  0.00000000000E+00 0. -1.
</event>
<event>
 8    1  0.5900800E-006  0.9628508E+02  0.7561462E-02  0.1288308E+00
         -1   -1    0    0    0  501 -0.00000000000E+00  0.00000000000E+00  0.30170946225E+03  0.30170946225E+03  0.00000000000E+00 0. -1.
          1   -1    0    0  501    0  0.00000000000E+00 -0.00000000000E+00 -0.59379046178E+02  0.59379046178E+02  0.00000000000E+00 0.  1.
         23    2    1    2    0    0  0.32984325084E+02  0.63568668211E+02  0.15861531043E+03  0.19440097628E+03  0.86625525092E+02 0.  0.
         23    2    1    2    0    0 -0.32984325084E+02 -0.63568668211E+02  0.83715105643E+02  0.16668753215E+03  0.12509026014E+03 0.  0.
          5    1    4    4  502    0 -0.24520340684E+02 -0.38699991591E+01 -0.29237110125E+02  0.38581148365E+02  0.41800000000E+01 0. -1.
         -5    1    4    4    0  502 -0.84639844004E+01 -0.59698669052E+02  0.11295221577E+03  0.12810638378E+03  0.41800000000E+01 0. -1.
        -11    1    3    3    0    0  0.22042504967E+02  0.82334276076E+02  0.97305953876E+02  0.12935707828E+03  0.00000000000E+00 0. -1.
         11    1    3    3    0    0  0.10941820117E+02 -0.18765607865E+02  0.61309356550E+02  0.65043897996E+02  0.00000000000E+00 0.  1.
</event>
<event>
 8    1  0.5900800E-006  0.5743618E+02  0.7561462E-02  0.1408917E+00
         -1   -1    0    0    0  501 -0.00000000000E+00  0.00000000000E+00  0.31346980455E+02  0.31346980455E+02  0.00000000000E+00 0.  1.
          1   -1    0    0  501    0  0.00000000000E+00 -0.00000000000E+00 -0.70894037480E+03  0.70894037480E+03  0.00000000000E+00 0. -1.
         23    2    1    2    0    0 -0.39820342366E+02 -0.12601707161E+02 -0.81099273031E+02  0.12938675607E+03  0.91757167953E+02 0.  0.
         23    2    1    2    0    0  0.39820342366E+02  0.12601707161E+02 -0.59649412132E+03  0.61090059919E+03  0.12509933106E+03 0.  0.
          5    1    4    4  502    0  0.31199544562E+01 -0.14730074760E+02 -0.52910931507E+03  0.52934001257E+03  0.41800000000E+01 0.  1.
         -5    1    4    4    0  502  0.36700387910E+02  0.27331781921E+02 -0.67384806248E+02  0.81560586614E+02  0.41800000000E+01 0.  1.
        -11    1    3    3    0    0 -0.21121834943E+02  0.10489677937E+02  0.15566588169E+02  0.28257457808E+02  0.00000000000E+00 0.  1.
         11    1    3    3    0    0 -0.18698507423E+02 -0.23091385098E+02 -0.96665861199E+02  0.10112929826E+03  0.00000000000E+00 0. -1.
</event>
<event>
 8    1  0.5900800E-006  0.1062726E+03  0.7561462E-02  0.1267632E+00
          2   -1    0    0  501    0  0.00000000000E+00  0.00000000000E+00  0.15209462565E+03  0.15209462565E+03  0.00000000000E+00 0.  1.
         -2   -1    0    0    0  501 -0.00000000000E+00 -0.00000000000E+00 -0.80047914523E+02  0.80047914523E+02  0.00000000000E+00 0. -1.
         23    2    1    2    0    0  0.24997389570E+02 -0.14537568979E+02  0.21417802905E+02  0.94132717912E+02  0.86982963292E+02 0.  0.
         23    2    1    2    0    0 -0.24997389570E+02  0.14537568979E+02  0.50628908220E+02  0.13800982226E+03  0.12508882562E+03 0.  0.
          5    1    4    4  502    0 -0.57673122966E+02 -0.33541178011E+02  0.42373162578E+02  0.79146427853E+02  0.41800000000E+01 0.  1.
         -5    1    4    4    0  502  0.32675733395E+02  0.48078746990E+02  0.82557456419E+01  0.58863394407E+02  0.41800000000E+01 0.  1.
        -11    1    3    3    0    0  0.44294773391E+02 -0.37062275102E+02  0.27319795316E+02  0.63890612782E+02  0.00000000000E+00 0. -1.
         11    1    3    3    0    0 -0.19297383821E+02  0.22524706124E+02 -0.59019924107E+01  0.30242105130E+02  0.00000000000E+00 0.  1.
</event>
<event>
 8    1  0.5900800E-006  0.2083274E+03  0.7561462E-02  0.1142897E+00
         -2   -1    0    0    0  501 -0.00000000000E+00  0.00000000000E+00  0.37062448186E+02  0.37062448186E+02  0.00000000000E+00 0.  1.
          2   -1    0    0  501    0  0.00000000000E+00 -0.00000000000E+00 -0.13062104919E+04  0.13062104919E+04  0.00000000000E+00 0. -1.
         23    2    1    2    0    0 -0.77879511224E+02 -0.17375959941E+03 -0.65499494400E+03  0.68822384738E+03  0.91520876218E+02 0.  0.
         23    2    1    2    0    0  0.77879511224E+02  0.17375959941E+03 -0.61415309971E+03  0.65504909270E+03  0.12509063637E+03 0.  0.
          5    1    4    4  502    0 -0.98668393700E+01  0.12532083381E+03 -0.38121047519E+03  0.40142441967E+03  0.41800000000E+01 0. -1.
         -5    1    4    4    0  502  0.87746350594E+02  0.48438765596E+02 -0.23294262452E+03  0.25362467304E+03  0.41800000000E+01 0. -1.
        -11    1    3    3    0    0 -0.30009991136E+02 -0.76006612062E+02 -0.14222543369E+03  0.16402950537E+03  0.00000000000E+00 0. -1.
         11    1    3    3    0    0 -0.47869520088E+02 -0.97752987349E+02 -0.51276951031E+03  0.52419434201E+03  0.00000000000E+00 0.  1.
</event>
<event>
 8    1  0.5900800E-006  0.2103110E+03  0.7561462E-02  0.1141320E+00
         -1   -1    0    0    0  501 -0.00000000000E+00  0.00000000000E+00  0.20036391118E+03  0.20036391118E+03  0.00000000000E+00 0.  1.
          1   -1    0    0  501    0  0.00000000000E+00 -0.00000000000E+00 -0.27549462987E+03  0.27549462987E+03  0.00000000000E+00 0. -1.
         23    2    1    2    0    0 -0.47551586715E+02 -0.19108631981E+03  0.29227018737E+02  0.22029305987E+03  0.94338107820E+02 0.  0.
         23    2    1    2    0    0  0.47551586715E+02  0.19108631981E+03 -0.10435773742E+03  0.25556548117E+03  0.12509213719E+03 0.  0.
          5    1    4    4  502    0  0.40314101904E+02  0.94441083756E+01  0.72045502288E+01  0.42235008456E+02  0.41800000000E+01 0. -1.
         -5    1    4    4    0  502  0.72374848111E+01  0.18164221143E+03 -0.11156228765E+03  0.21333047271E+03  0.41800000000E+01 0. -1.
        -11    1    3    3    0    0 -0.59106259574E+01 -0.40687884768E+02 -0.32563941247E+02  0.52448543694E+02  0.00000000000E+00 0. -1.
         11    1    3    3    0    0 -0.41640960758E+02 -0.15039843504E+03  0.61790959985E+02  0.16784451618E+03  0.00000000000E+00 0.  1.
</event>
<event>
 8    1  0.5900800E-006  0.1329728E+03  0.7561462E-02  0.1223110E+00
         -2   -1    0    0    0  501 -0.00000000000E+00  0.00000000000E+00  0.40084683450E+02  0.40084683450E+02  0.00000000000E+00 0.  1.
          2   -1    0    0  501    0  0.00000000000E+00 -0.00000000000E+00 -0.70872344497E+03  0.70872344497E+03  0.00000000000E+00 0. -1.
         23    2    1    2    0    0  0.13066479280E+03 -0.73917033494E+00 -0.24781692302E+03  0.29456516265E+03  0.91003149744E+02 0.  0.
         23    2    1    2    0    0 -0.13066479280E+03  0.73917033494E+00 -0.42082183850E+03  0.45424296577E+03  0.11032596133E+03 0.  0.
          5    1    4    4  502    0 -0.28986517523E+02  0.10786771147E+02 -0.27134914487E+03  0.27313806665E+03  0.41800000000E+01 0. -1.
         -5    1    4    4    0  502 -0.10167827527E+03 -0.10047600812E+02 -0.14947269363E+03  0.18110489912E+03  0.41800000000E+01 0.  1.
        -11    1    3    3    0    0  0.11180792174E+03 -0.84005425206E+01 -0.25010049813E+03  0.27408363622E+03  0.00000000000E+00 0.  1.
         11    1    3    3    0    0  0.18856871055E+02  0.76613721856E+01  0.22835751078E+01  0.20481526433E+02  0.00000000000E+00 0. -1.
</event>
<event>
 8    1  0.5900800E-006  0.1059269E+03  0.7561462E-02  0.1268304E+00
          2   -1    0    0  501    0  0.00000000000E+00  0.00000000000E+00  0.39140862137E+03  0.39140862137E+03  0.00000000000E+00 0. -1.
         -2   -1    0    0    0  501 -0.00000000000E+00 -0.00000000000E+00 -0.50410346323E+02  0.50410346323E+02  0.00000000000E+00 0.  1.
         23    2    1    2    0    0 -0.11710339818E+02  0.77842087366E+02  0.88564895410E+02  0.14930475444E+03  0.90838573169E+02 0.  0.
         23    2    1    2    0    0  0.11710339818E+02 -0.77842087366E+02  0.25243337964E+03  0.29251421326E+03  0.12508169801E+03 0.  0.
          5    1    4    4  502    0  0.48588370295E+02 -0.70662775360E+02  0.84814951670E+02  0.12068598086E+03  0.41800000000E+01 0. -1.
         -5    1    4    4    0  502 -0.36878030477E+02 -0.71793120066E+01  0.16761842797E+03  0.17182823240E+03  0.41800000000E+01 0. -1.
        -11    1    3    3    0    0  0.12840691482E+02  0.10734832140E+02 -0.15670440087E+02  0.22927770745E+02  0.00000000000E+00 0.  1.
         11    1    3    3    0    0 -0.24551031301E+02  0.67107255226E+02  0.10423533550E+03  0.12637698370E+03  0.00000000000E+00 0. -1.
</event>
<event>
 8    1  0.5900800E-006  0.1512191E+03  0.7561462E-02  0.1198983E+00
         -4   -1    0    0    0  501 -0.00000000000E+00  0.00000000000E+00  0.44662235268E+03  0.44662235268E+03  0.00000000000E+00 0.  1.
          4   -1    0    0  501    0  0.00000000000E+00 -0.00000000000E+00 -0.79039007804E+02  0.79039007804E+02  0.00000000000E+00 0. -1.
         23    2    1    2    0    0 -0.14752762346E+03 -0.27279482185E+02  0.21691992698E+03  0.27897238932E+03  0.90899776940E+02 0.  0.
         23    2    1    2    0    0  0.14752762346E+03  0.27279482185E+02  0.15066341789E+03  0.24668897117E+03  0.12508962056E+03 0.  0.
          5    1    4    4  502    0  0.74139550341E+02  0.32940238307E+01 -0.32967630316E+01  0.74403390811E+02  0.41800000000E+01 0. -1.
         -5    1    4    4    0  502  0.73388073116E+02  0.23985458354E+02  0.15396018092E+03  0.17228558036E+03  0.41800000000E+01 0. -1.
        -11    1    3    3    0    0 -0.97378785618E+02 -0.25238158008E+02  0.20351976506E+03  0.22702397952E+03  0.00000000000E+00 0.  1.
         11    1    3    3    0    0 -0.50148837839E+02 -0.20413241766E+01  0.13400161929E+02  0.51948409800E+02  0.00000000000E+00 0. -1.
</event>
<event>
 8    1  0.5900800E-006  0.8468837E+02  0.7561462E-02  0.1316249E+00
         -1   -1    0    0    0  501 -0.00000000000E+00  0.00000000000E+00  0.38728115767E+02  0.38728115767E+02  0.00000000000E+00 0.  1.
          1   -1    0    0  501    0  0.00000000000E+00 -0.00000000000E+00 -0.39972712713E+03  0.39972712713E+03  0.00000000000E+00 0. -1.
         23    2    1    2    0    0 -0.12399241794E+02 -0.32685984349E+02 -0.69617204859E+02  0.11943291232E+03  0.90529280139E+02 0.  0.
         23    2    1    2    0    0  0.12399241794E+02  0.32685984349E+02 -0.29138180651E+03  0.31902233058E+03  0.12509906265E+03 0.  0.
          5    1    4    4  502    0  0.36494594722E+02  0.58783952113E+01 -0.27779635087E+03  0.28027610660E+03  0.41800000000E+01 0.  1.
         -5    1    4    4    0  502 -0.24095352928E+02  0.26807589138E+02 -0.13585455641E+02  0.38746223985E+02  0.41800000000E+01 0.  1.
        -11    1    3    3    0    0 -0.43495527656E+02  0.84642366423E+01 -0.23073371482E+02  0.49958830046E+02  0.00000000000E+00 0. -1.
         11    1    3    3    0    0  0.31096285862E+02 -0.41150220992E+02 -0.46543833377E+02  0.69474082272E+02  0.00000000000E+00 0.  1.
</event>
<event>
 8    1  0.5900800E-006  0.1411267E+03  0.7561462E-02  0.1211821E+00
          2   -1    0    0  501    0  0.00000000000E+00  0.00000000000E+00  0.10572445128E+04  0.10572445128E+04  0.00000000000E+00 0. -1.
         -2   -1    0    0    0  501 -0.00000000000E+00 -0.00000000000E+00 -0.22984963035E+02  0.22984963035E+02  0.00000000000E+00 0.  1.
         23    2    1    2    0    0 -0.11013439764E+03  0.59036665640E+01  0.52778575859E+03  0.54700620168E+03  0.92160397583E+02 0.  0.
         23    2    1    2    0    0  0.11013439764E+03 -0.59036665640E+01  0.50647379115E+03  0.53322327413E+03  0.12508764980E+03 0.  0.
          5    1    4    4  502    0  0.94625843270E+02  0.44291988291E+02  0.41181049829E+03  0.42487785226E+03  0.41800000000E+01 0.  1.
         -5    1    4    4    0  502  0.15508554367E+02 -0.50195654855E+02  0.94663292856E+02  0.10834542187E+03  0.41800000000E+01 0.  1.
        -11    1    3    3    0    0 -0.84039189290E+02  0.30231775456E+02  0.47481326959E+03  0.48313992441E+03  0.00000000000E+00 0.  1.
         11    1    3    3    0    0 -0.26095208347E+02 -0.24328108892E+02  0.52972489005E+02  0.63866277270E+02  0.00000000000E+00 0. -1.
</event>
<event>
 8    1  0.5900800E-006  0.8360141E+02  0.7561462E-02  0.1319131E+00
         -1   -1    0    0    0  501 -0.00000000000E+00  0.00000000000E+00  0.38433622745E+02  0.38433622745E+02  0.00000000000E+00 0.  1.
          1   -1    0    0  501    0  0.00000000000E+00 -0.00000000000E+00 -0.43847256492E+03  0.43847256492E+03  0.00000000000E+00 0. -1.
         23    2    1    2    0    0  0.24263090528E+02  0.23514354611E+02 -0.66466429558E+02  0.11905813942E+03  0.92819350728E+02 0.  0.
         23    2    1    2    0    0 -0.24263090528E+02 -0.23514354611E+02 -0.33357251261E+03  0.35784804824E+03  0.12507190741E+03 0.  0.
          5    1    4    4  502    0  0.30546018996E+01 -0.61203389281E+02 -0.28043357710E+03  0.28708125857E+03  0.41800000000E+01 0. -1.
         -5    1    4    4    0  502 -0.27317692428E+02  0.37689034670E+02 -0.53138935509E+02  0.70766789675E+02  0.41800000000E+01 0. -1.
        -11    1    3    3    0    0  0.37504379434E+02  0.25916948247E+02  0.54325580875E+01  0.45910558378E+02  0.00000000000E+00 0.  1.
         11    1    3    3    0    0 -0.13241288906E+02 -0.24025936357E+01 -0.71898987646E+02  0.73147581044E+02  0.00000000000E+00 0. -1.
</event>
<event>
 8    1  0.5900800E-006  0.2874387E+03  0.7561462E-02  0.1091694E+00
         -1   -1    0    0    0  501 -0.00000000000E+00  0.00000000000E+00  0.10493053618E+04  0.10493053618E+04  0.00000000000E+00 0.  1.
          1   -1    0    0  501    0  0.00000000000E+00 -0.00000000000E+00 -0.83834246984E+02  0.83834246984E+02  0.00000000000E+00 0. -1.
         23    2    1    2    0    0 -0.19529955267E+03  0.18809184104E+03  0.56741019267E+03  0.63552594937E+03  0.91752109713E+02 0.  0.
         23    2    1    2    0    0  0.19529955267E+03 -0.18809184104E+03  0.39806092213E+03  0.49761365940E+03  0.12508557213E+03 0.  0.
          5    1    4    4  502    0  0.21103195289E+03 -0.17851432329E+03  0.38742358835E+03  0.47593734669E+03  0.41800000000E+01 0. -1.
         -5    1    4    4    0  502 -0.15732400218E+02 -0.95775177523E+01  0.10637333777E+02  0.21676312712E+02  0.41800000000E+01 0. -1.
        -11    1    3    3    0    0 -0.81232126906E+02  0.12534009503E+03  0.37045441984E+03  0.39943118937E+03  0.00000000000E+00 0.  1.
         11    1    3    3    0    0 -0.11406742576E+03  0.62751746018E+02  0.19695577283E+03  0.23609476000E+03  0.00000000000E+00 0. -1.
</event>
<event>
 8    1  0.5900800E-006  0.1123730E+03  0.7561462E-02  0.1256238E+00
          2   -1    0    0  501    0  0.00000000000E+00  0.00000000000E+00  0.34366190340E+03  0.34366190340E+03  0.00000000000E+00 0. -1.
         -2   -1    0    0    0  501 -0.00000000000E+00 -0.00000000000E+00 -0.56113494018E+02  0.56113494018E+02  0.00000000000E+00 0.  1.
         23    2    1    2    0    0 -0.47411501712E+02  0.49374324294E+02  0.56001262391E+02  0.12784399589E+03  0.92316149734E+02 0.  0.
         23    2    1    2    0    0  0.47411501712E+02 -0.49374324294E+02  0.23154714699E+03  0.27193140152E+03  0.12508769509E+03 0.  0.
          5    1    4    4  502    0 -0.23113229109E+02  0.13912093561E+02  0.70126895278E+01  0.28185420371E+02  0.41800000000E+01 0.  1.
         -5    1    4    4    0  502  0.70524730821E+02 -0.63286417855E+02  0.22453445746E+03  0.24374598115E+03  0.41800000000E+01 0.  1.
        -11    1    3    3    0    0 -0.12382873952E+02  0.63597264448E+02  0.58725298651E+01  0.65057161171E+02  0.00000000000E+00 0.  1.
         11    1    3    3    0    0 -0.35028627760E+02 -0.14222940154E+02  0.50128732526E+02  0.62786834719E+02  0.00000000000E+00 0. -1.
</event>
<event>
 8    1  0.5900800E-006  0.1844026E+03  0.7561462E-02  0.1163609E+00
          1   -1    0    0  501    0  0.00000000000E+00  0.00000000000E+00  0.14896059231E+04  0.14896059231E+04  0.00000000000E+00 0. -1.
         -1   -1    0    0    0  501 -0.00000000000E+00 -0.00000000000E+00 -0.31178377139E+02  0.31178377139E+02  0.00000000000E+00 0.  1.
         23    2    1    2    0    0  0.54286923773E+02  0.16151848141E+03  0.45420764355E+03  0.49455796291E+03  0.96164989940E+02 0.  0.
         23    2    1    2    0    0 -0.54286923773E+02 -0.16151848141E+03  0.10042199024E+04  0.10262263374E+04  0.12509033976E+03 0.  0.
          5    1    4    4  502    0  0.15858754071E+02 -0.65435442078E+02  0.15977198017E+03  0.17342968376E+03  0.41800000000E+01 0. -1.
         -5    1    4    4    0  502 -0.70145677844E+02 -0.96083039328E+02  0.84444792227E+03  0.85279665360E+03  0.41800000000E+01 0. -1.
        -11    1    3    3    0    0  0.14257424619E+02  0.13150855292E+03  0.39751901175E+03  0.41895004278E+03  0.00000000000E+00 0. -1.
         11    1    3    3    0    0  0.40029499154E+02  0.30009928488E+02  0.56688631805E+02  0.75607920129E+02  0.00000000000E+00 0.  1.
</event>
<event>
 8    1  0.5900800E-006  0.2254823E+03  0.7561462E-02  0.1129861E+00
         -3   -1    0    0    0  501 -0.00000000000E+00  0.00000000000E+00  0.48300523677E+03  0.48300523677E+03  0.00000000000E+00 0.  1.
          3   -1    0    0  501    0  0.00000000000E+00 -0.00000000000E+00 -0.10946658846E+03  0.10946658846E+03  0.00000000000E+00 0. -1.
         23    2    1    2    0    0 -0.13208293214E+02 -0.20134833490E+03  0.20877714595E+03  0.30349109524E+03  0.88336500081E+02 0.  0.
         23    2    1    2    0    0  0.13208293214E+02  0.20134833490E+03  0.16476150237E+03  0.28898072999E+03  0.12509156114E+03 0.  0.
          5    1    4    4  502    0  0.56499188290E+02  0.56308518245E+02  0.89257550976E+02  0.11977975752E+03  0.41800000000E+01 0. -1.
         -5    1    4    4    0  502 -0.43290895075E+02  0.14503981665E+03  0.75503951390E+02  0.16920097247E+03  0.41800000000E+01 0. -1.
        -11    1    3    3    0    0 -0.47509519100E+02 -0.75296948977E+02  0.95741428046E+02  0.13074098812E+03  0.00000000000E+00 0.  1.
         11    1    3    3    0    0  0.34301225886E+02 -0.12605138592E+03  0.11303571790E+03  0.17275010712E+03  0.00000000000E+00 0. -1.
</event>
<event>
 8    1  0.5900800E-006  0.8933415E+02  0.7561462E-02  0.1304472E+00
         -2   -1    0    0    0  501 -0.00000000000E+00  0.00000000000E+00  0.98197850509E+02  0.98197850509E+02  0.00000000000E+00 0. -1.
          2   -1    0    0  501    0  0.00000000000E+00 -0.00000000000E+00 -0.18848368700E+03  0.18848368700E+03  0.00000000000E+00 0.  1.
         23    2    1    2    0    0  0.37905516397E+02  0.64471546526E+02 -0.26793277084E+01  0.11663603796E+03  0.89461601083E+02 0.  0.
         23    2    1    2    0    0 -0.37905516397E+02 -0.64471546526E+02 -0.87606508785E+02  0.17004549956E+03  0.12508862080E+03 0.  0.
          5    1    4    4  502    0  0.11997870393E+02 -0.34458215752E+02 -0.10326286259E+03  0.10959930984E+03  0.41800000000E+01 0.  1.
         -5    1    4    4    0  502 -0.49903386790E+02 -0.30013330774E+02  0.15656353802E+02  0.60446189720E+02  0.41800000000E+01 0.  1.
        -11    1    3    3    0    0  0.37067107813E+02  0.26469733530E+02  0.39189289438E+02  0.60086751297E+02  0.00000000000E+00 0. -1.
         11    1    3    3    0    0  0.83840858455E+00  0.38001812996E+02 -0.41868617146E+02  0.56549286660E+02  0.00000000000E+00 0.  1.
</event>
<event>
 8    1  0.6780239E-006  0.1111302E+03  0.7561462E-02  0.1258491E+00
         -2   -1    0    0    0  501 -0.00000000000E+00  0.00000000000E+00  0.14632478956E+02  0.14632478956E+02  0.00000000000E+00 0.  1.
          2   -1    0    0  501    0  0.00000000000E+00 -0.00000000000E+00 -0.12526645800E+04  0.12526645800E+04  0.00000000000E+00 0. -1.
         23    2    1    2    0    0 -0.54297104280E+02 -0.50774637563E+02 -0.41039462228E+03  0.42696519922E+03  0.91374482154E+02 0.  0.
         23    2    1    2    0    0  0.54297104280E+02  0.50774637563E+02 -0.82763747875E+03  0.84033185973E+03  0.12509036291E+03 0.  0.
          5    1    4    4  502    0 -0.23900623938E+02  0.96201416030E+01 -0.40132380049E+02  0.47873450654E+02  0.41800000000E+01 0.  1.
         -5    1    4    4    0  502  0.78197728218E+02  0.41154495960E+02 -0.78750509870E+03  0.79245840908E+03  0.41800000000E+01 0.  1.
        -11    1    3    3    0    0  0.15770580630E+02 -0.31175338565E+02 -0.63054202976E+02  0.72086375002E+02  0.00000000000E+00 0.  1.
         11    1    3    3    0    0 -0.70067684910E+02 -0.19599298998E+02 -0.34734041931E+03  0.35487882421E+03  0.00000000000E+00 0. -1.
</event>
<event>
 8    1  0.5900800E-006  0.9951715E+02  0.7561462E-02  0.1281315E+00
          1   -1    0    0  501    0  0.00000000000E+00  0.00000000000E+00  0.10218784139E+03  0.10218784139E+03  0.00000000000E+00 0. -1.
         -1   -1    0    0    0  501 -0.00000000000E+00 -0.00000000000E+00 -0.12969463370E+03  0.12969463370E+03  0.00000000000E+00 0.  1.
         23    2    1    2    0    0  0.98371920268E+01  0.37551272430E+02 -0.17744839115E+02  0.10059030876E+03  0.91086017000E+02 0.  0.
         23    2    1    2    0    0 -0.98371920268E+01 -0.37551272430E+02 -0.97619531953E+01  0.13129216633E+03  0.12504186819E+03 0.  0.
          5    1    4    4  502    0  0.29269237607E+02 -0.51257331070E+02  0.36119870589E+02  0.69326183436E+02  0.41800000000E+01 0. -1.
         -5    1    4    4    0  502 -0.39106429634E+02  0.13706058640E+02 -0.45881823784E+02  0.61965982893E+02  0.41800000000E+01 0. -1.
        -11    1    3    3    0    0  0.58652811968E+01  0.67624116435E+02 -0.63025277781E+01  0.68169967754E+02  0.00000000000E+00 0. -1.
         11    1    3    3    0    0  0.39719108300E+01 -0.30072844005E+02 -0.11442311337E+02  0.32420341006E+02  0.00000000000E+00 0.  1.
</event>
<event>
 8    1  0.5900800E-006  0.7616867E+02  0.7561462E-02  0.1340290E+00
         -2   -1    0    0    0  501 -0.00000000000E+00  0.00000000000E+00  0.18099431739E+02  0.18099431739E+02  0.00000000000E+00 0.  1.
          2   -1    0    0  501    0  0.00000000000E+00 -0.00000000000E+00 -0.53203381136E+03  0.53203381136E+03  0.00000000000E+00 0. -1.
         23    2    1    2    0    0  0.77506273185E+01  0.45744922192E+01 -0.74914474204E+02  0.97201145743E+02  0.61277125304E+02 0.  0.
         23    2    1    2    0    0 -0.77506273185E+01 -0.45744922192E+01 -0.43901990541E+03  0.45293209735E+03  0.11103156875E+03 0.  0.
          5    1    4    4  502    0  0.28196668789E+02 -0.33830941766E+02 -0.34705703581E+03  0.34986517869E+03  0.41800000000E+01 0. -1.
         -5    1    4    4    0  502 -0.35947296108E+02  0.29256449547E+02 -0.91962869599E+02  0.10306691866E+03  0.41800000000E+01 0.  1.
        -11    1    3    3    0    0  0.19988230305E+01 -0.28208245095E+02 -0.39750412815E+02  0.48783149794E+02  0.00000000000E+00 0. -1.
         11    1    3    3    0    0  0.57518042880E+01  0.32782737314E+02 -0.35164061389E+02  0.48417995949E+02  0.00000000000E+00 0.  1.
</event>
<event>
 7    1  0.5900800E-006  0.1218967E+03  0.7561462E-02  0.1240001E+00
         -2   -1    0    0    0  501 -0.00000000000E+00  0.00000000000E+00  0.22757466908E+02  0.22757466908E+02  0.00000000000E+00 0.  1.
          2   -1    0    0  501    0  0.00000000000E+00 -0.00000000000E+00 -0.10227032885E+04  0.10227032885E+04  0.00000000000E+00 0. -1.
         23    2    1    2    0    0  0.84708566856E+02 -0.25533370945E+02 -0.28844293306E+03  0.31046661274E+03  0.73230442185E+02 0.  0.
          5    1    1    2  502    0 -0.57251328551E+02 -0.37322768937E+02 -0.60085402964E+03  0.60474270647E+03  0.41800000000E+01 0. -1.
         -5    1    1    2    0  502 -0.27457238304E+02  0.62856139882E+02 -0.11064885889E+03  0.13025143619E+03  0.41800000000E+01 0.  1.
        -11    1    3    3    0    0 -0.12741710438E+00 -0.21680555439E+02 -0.22297166532E+02  0.31100262935E+02  0.00000000000E+00 0. -1.
         11    1    3    3    0    0  0.84835983960E+02 -0.38528155054E+01 -0.26614576653E+03  0.27936634981E+03  0.00000000000E+00 0.  1.
</event>
<event>
 8    1  0.5900800E-006  0.1141418E+03  0.7561462E-02  0.1253087E+00
          2   -1    0    0  501    0  0.00000000000E+00  0.00000000000E+00  0.12607159256E+03  0.12607159256E+03  0.00000000000E+00 0. -1.
         -2   -1    0    0    0  501 -0.00000000000E+00 -0.00000000000E+00 -0.18631210558E+03  0.18631210558E+03  0.00000000000E+00 0.  1.
         23    2    1    2    0    0  0.43735297120E+02 -0.13296619770E+02 -0.12735563859E+03  0.16325065426E+03  0.91333132668E+02 0.  0.
         23    2    1    2    0    0 -0.43735297120E+02  0.13296619770E+02  0.67115125577E+02  0.14913304388E+03  0.12508656357E+03 0.  0.
          5    1    4    4  502    0 -0.37860512464E+02  0.65497774449E+02  0.19802641240E+02  0.78313433470E+02  0.41800000000E+01 0.  1.
         -5    1    4    4    0  502 -0.58747846554E+01 -0.52201154679E+02  0.47312484338E+02  0.70819610411E+02  0.41800000000E+01 0.  1.
        -11    1    3    3    0    0  0.34571353120E+02  0.35862443291E+02 -0.80841660521E+02  0.94956133931E+02  0.00000000000E+00 0.  1.
         11    1    3    3    0    0  0.91639439998E+01 -0.49159063061E+02 -0.46513978073E+02  0.68294520328E+02  0.00000000000E+00 0. -1.
</event>
<event>
 8    1  0.5900800E-006  0.1105256E+03  0.7561462E-02  0.1259600E+00
          2   -1    0    0  501    0  0.00000000000E+00  0.00000000000E+00  0.58457768255E+02  0.58457768255E+02  0.00000000000E+00 0. -1.
         -2   -1    0    0    0  501 -0.00000000000E+00 -0.00000000000E+00 -0.27755543602E+03  0.27755543602E+03  0.00000000000E+00 0.  1.
         23    2    1    2    0    0 -0.33433232945E+02  0.57906815515E+02 -0.10022008969E+03  0.15094583132E+03  0.90937326050E+02 0.  0.
         23    2    1    2    0    0  0.33433232945E+02 -0.57906815515E+02 -0.11887757808E+03  0.18506737295E+03  0.12508826329E+03 0.  0.
          5    1    4    4  502    0  0.17510170334E+02  0.38094138879E+02 -0.21361774500E+02  0.47239467523E+02  0.41800000000E+01 0.  1.
         -5    1    4    4    0  502  0.15923062611E+02 -0.96000954394E+02 -0.97515803577E+02  0.13782790543E+03  0.41800000000E+01 0.  1.
        -11    1    3    3    0    0 -0.43520636480E+02  0.32919210109E+02 -0.83479567640E+01  0.55203338450E+02  0.00000000000E+00 0. -1.
         11    1    3    3    0    0  0.10087403535E+02  0.24987605405E+02 -0.91872132924E+02  0.95742492875E+02  0.00000000000E+00 0.  1.
</event>
<event>
 8    1  0.5900800E-006  0.7135727E+02  0.7561462E-02  0.1355537E+00
         -1   -1    0    0    0  501 -0.00000000000E+00  0.00000000000E+00  0.61880325315E+03  0.61880325315E+03  0.00000000000E+00 0.  1.
          1   -1    0    0  501    0  0.00000000000E+00 -0.00000000000E+00 -0.21720447706E+02  0.21720447706E+02  0.00000000000E+00 0. -1.
         23    2    1    2    0    0 -0.31464908310E+00 -0.40826732641E+02  0.25959543525E+03  0.27829331014E+03  0.91599428828E+02 0.  0.
         23    2    1    2    0    0  0.31464908310E+00  0.40826732641E+02  0.33748737019E+03  0.36223039072E+03  0.12508481050E+03 0.  0.
          5    1    4    4  502    0  0.10956530728E+02  0.52516589259E+01  0.32121822410E+03  0.32147510849E+03  0.41800000000E+01 0. -1.
         -5    1    4    4    0  502 -0.10641881645E+02  0.35575073715E+02  0.16269146096E+02  0.40755282228E+02  0.41800000000E+01 0. -1.
        -11    1    3    3    0    0  0.11808767368E+02  0.23893521101E+02  0.13249738266E+03  0.13515141046E+03  0.00000000000E+00 0.  1.
         11    1    3    3    0    0 -0.12123416451E+02 -0.64720253742E+02  0.12709805259E+03  0.14314189968E+03  0.00000000000E+00 0. -1.
</event>
<event>
 8    1  0.5900800E-006  0.1343705E+03  0.7561462E-02  0.1221111E+00
         -1   -1    0    0    0  501 -0.00000000000E+00  0.00000000000E+00  0.25495697908E+03  0.25495697908E+03  0.00000000000E+00 0.  1.
          1   -1    0    0  501    0  0.00000000000E+00 -0.00000000000E+00 -0.15341768507E+03  0.15341768507E+03  0.00000000000E+00 0. -1.
         23    2    1    2    0    0 -0.43518739662E+02  0.10099839208E+03  0.17481485164E+03  0.22641471553E+03  0.92783808657E+02 0.  0.
         23    2    1    2    0    0  0.43518739662E+02 -0.10099839208E+03 -0.73275557631E+02  0.18195994862E+03  0.12508221157E+03 0.  0.
          5    1    4    4  502    0  0.54323392109E+02 -0.19444269195E+02  0.16463794932E+02  0.60146816028E+02  0.41800000000E+01 0. -1.
         -5    1    4    4    0  502 -0.10804652447E+02 -0.81554122884E+02 -0.89739352563E+02  0.12181313259E+03  0.41800000000E+01 0. -1.
        -11    1    3    3    0    0 -0.30426198242E+02  0.40552896510E+01  0.59573573950E+01  0.31268019137E+02  0.00000000000E+00 0. -1.
         11    1    3    3    0    0 -0.13092541419E+02  0.96943102428E+02  0.16885749424E+03  0.19514669639E+03  0.00000000000E+00 0.  1.
</event>
<event>
 8    1  0.5900800E-006  0.1498082E+03  0.7561462E-02  0.1200709E+00
         -2   -1    0    0    0  501 -0.00000000000E+00  0.00000000000E+00  0.70556533577E+02  0.70556533577E+02  0.00000000000E+00 0.  1.
          2   -1    0    0  501    0  0.00000000000E+00 -0.00000000000E+00 -0.10054002842E+04  0.10054002842E+04  0.00000000000E+00 0. -1.
         23    2    1    2    0    0 -0.51517176376E+02 -0.11650096048E+03 -0.37228645845E+02  0.16075820735E+03  0.90723403287E+02 0.  0.
         23    2    1    2    0    0  0.51517176376E+02  0.11650096048E+03 -0.89761510478E+03  0.91519861044E+03  0.12509647060E+03 0.  0.
          5    1    4    4  502    0  0.50651299486E+02  0.12518943179E+03 -0.51400634811E+03  0.53146772834E+03  0.41800000000E+01 0.  1.
         -5    1    4    4    0  502  0.86587689040E+00 -0.86884713150E+01 -0.38360875667E+03  0.38373088209E+03  0.41800000000E+01 0.  1.
        -11    1    3    3    0    0  0.17754394542E+02 -0.67951293770E+02 -0.28216382236E+02  0.75688579569E+02  0.00000000000E+00 0. -1.
         11    1    3    3    0    0 -0.69271570919E+02 -0.48549666706E+02 -0.90122636086E+01  0.85069627777E+02  0.00000000000E+00 0.  1.
</event>
<event>
 8    1  0.5900800E-006  0.1045628E+03  0.7561462E-02  0.1270983E+00
         -2   -1    0    0    0  501 -0.00000000000E+00  0.00000000000E+00  0.40111648517E+02  0.40111648517E+02  0.00000000000E+00 0.  1.
          2   -1    0    0  501    0  0.00000000000E+00 -0.00000000000E+00 -0.29820615779E+03  0.29820615779E+03  0.00000000000E+00 0. -1.
         23    2    1    2    0    0  0.54484608442E+00 -0.13382600465E+02 -0.11787762562E+03  0.14993589069E+03  0.91685581437E+02 0.  0.
         23    2    1    2    0    0 -0.54484608442E+00  0.13382600465E+02 -0.14021688365E+03  0.18838191562E+03  0.12509029066E+03 0.  0.
          5    1    4    4  502    0  0.44884902172E+02 -0.36369266411E+02 -0.72096136941E+02  0.92480826900E+02  0.41800000000E+01 0. -1.
         -5    1    4    4    0  502 -0.45429748256E+02  0.49751866876E+02 -0.68120746711E+02  0.95901088715E+02  0.41800000000E+01 0. -1.
        -11    1    3    3    0    0 -0.15924683470E+02 -0.45173536593E+02 -0.34007264340E+02  0.58742982388E+02  0.00000000000E+00 0.  1.
         11    1    3    3    0    0  0.16469529554E+02  0.31790936128E+02 -0.83870361283E+02  0.91192908307E+02  0.00000000000E+00 0. -1.
</event>
<event>
 8    1  0.5900800E-006  0.1230887E+03  0.7561462E-02  0.1238087E+00
          2   -1    0    0  501    0  0.00000000000E+00  0.00000000000E+00  0.30121743152E+03  0.30121743152E+03  0.00000000000E+00 0. -1.
         -2   -1    0    0    0  501 -0.00000000000E+00 -0.00000000000E+00 -0.75772308794E+02  0.75772308794E+02  0.00000000000E+00 0.  1.
         23    2    1    2    0    0  0.99284456979E+02 -0.10035104253E+02  0.84477073907E+02  0.16373573083E+03  0.98564226869E+02 0.  0.
         23    2    1    2    0    0 -0.99284456979E+02  0.10035104253E+02  0.14096804882E+03  0.21325400949E+03  0.12508866879E+03 0.  0.
          5    1    4    4  502    0 -0.46764181425E+02 -0.12545844560E+02  0.14774581065E+03  0.15553322425E+03  0.41800000000E+01 0. -1.
         -5    1    4    4    0  502 -0.52520275554E+02  0.22580948813E+02 -0.67777618298E+01  0.57720785242E+02  0.41800000000E+01 0. -1.
        -11    1    3    3    0    0  0.37978736587E+02 -0.53139027182E+02  0.38844316539E+02  0.75993562687E+02  0.00000000000E+00 0.  1.
         11    1    3    3    0    0  0.61305720393E+02  0.43103922929E+02  0.45632757368E+02  0.87742168139E+02  0.00000000000E+00 0. -1.
</event>
<event>
 8    1  0.5900800E-006  0.1158563E+03  0.7561462E-02  0.1250094E+00
         -1   -1    0    0    0  501 -0.00000000000E+00  0.00000000000E+00  0.26384638184E+03  0.26384638184E+03  0.00000000000E+00 0.  1.
          1   -1    0    0  501    0  0.00000000000E+00 -0.00000000000E+00 -0.71025430706E+02  0.71025430706E+02  0.00000000000E+00 0. -1.
         23    2    1    2    0    0  0.46486867484E+02  0.68593120778E+02  0.90583114691E+02  0.15330579230E+03  0.91822220718E+02 0.  0.
         23    2    1    2    0    0 -0.46486867484E+02 -0.68593120778E+02  0.10223783645E+03  0.18156602025E+03  0.12509036511E+03 0.  0.
          5    1    4    4  502    0 -0.42382259997E+02 -0.10396156459E+03  0.89080989406E+02  0.14337767590E+03  0.41800000000E+01 0. -1.
         -5    1    4    4    0  502 -0.41046074869E+01  0.35368443810E+02  0.13156847041E+02  0.38188344350E+02  0.41800000000E+01 0. -1.
        -11    1    3    3    0    0  0.84497430956E+01  0.20681810763E+02 -0.17990367775E+02  0.28684295137E+02  0.00000000000E+00 0. -1.
         11    1    3    3    0    0  0.38037124388E+02  0.47911310015E+02  0.10857348247E+03  0.12462149716E+03  0.00000000000E+00 0.  1.
</event>
<event>
 8    1  0.5900800E-006  0.1138281E+03  0.7561462E-02  0.1253641E+00
         -1   -1    0    0    0  501 -0.00000000000E+00  0.00000000000E+00  0.79892358309E+02  0.79892358309E+02  0.00000000000E+00 0.  1.
          1   -1    0    0  501    0  0.00000000000E+00 -0.00000000000E+00 -0.23198688954E+03  0.23198688954E+03  0.00000000000E+00 0. -1.
         23    2    1    2    0    0  0.62568551516E+02 -0.18169412321E+02 -0.11293609158E+02  0.11259000701E+03  0.91126356714E+02 0.  0.
         23    2    1    2    0    0 -0.62568551516E+02  0.18169412321E+02 -0.14080092207E+03  0.19928924084E+03  0.12508537354E+03 0.  0.
          5    1    4    4  502    0 -0.51745715953E+02  0.57709678339E+02 -0.33867159122E+02  0.84690512812E+02  0.41800000000E+01 0.  1.
         -5    1    4    4    0  502 -0.10822835563E+02 -0.39540266017E+02 -0.10693376295E+03  0.11459872802E+03  0.41800000000E+01 0.  1.
        -11    1    3    3    0    0  0.81811100455E+01 -0.46698031371E+02  0.82880633620E+01  0.48128252511E+02  0.00000000000E+00 0.  1.
         11    1    3    3    0    0  0.54387441470E+02  0.28528619049E+02 -0.19581672520E+02  0.64461754500E+02  0.00000000000E+00 0. -1.
</event>
<event>
 8    1  0.5900800E-006  0.1239026E+03  0.7561462E-02  0.1236794E+00
         -1   -1    0    0    0  501 -0.00000000000E+00  0.00000000000E+00  0.15811978996E+02  0.15811978996E+02  0.00000000000E+00 0.  1.
          1   -1    0    0  501    0  0.00000000000E+00 -0.00000000000E+00 -0.11909609093E+04  0.11909609093E+04  0.00000000000E+00 0. -1.
         23    2    1    2    0    0  0.19086049430E+02 -0.72490730548E+02 -0.36950866519E+03  0.38804302377E+03  0.91769010824E+02 0.  0.
         23    2    1    2    0    0 -0.19086049430E+02  0.72490730548E+02 -0.80564026511E+03  0.81872986452E+03  0.12507266286E+03 0.  0.
          5    1    4    4  502    0 -0.54123321638E+02  0.34679282200E+00 -0.18151628239E+03  0.18945998887E+03  0.41800000000E+01 0.  1.
         -5    1    4    4    0  502  0.35037272208E+02  0.72143937726E+02 -0.62412398272E+03  0.62926987565E+03  0.41800000000E+01 0.  1.
        -11    1    3    3    0    0  0.31111721445E+02  0.77577285173E+01 -0.16379289823E+03  0.16690187258E+03  0.00000000000E+00 0. -1.
         11    1    3    3    0    0 -0.12025672016E+02 -0.80248459065E+02 -0.20571576696E+03  0.22114115118E+03  0.00000000000E+00 0.  1.
</event>
<event>
 8    1  0.5900800E-006  0.1239492E+03  0.7561462E-02  0.1236721E+00
          2   -1    0    0  501    0  0.00000000000E+00  0.00000000000E+00  0.20687486825E+04  0.20687486825E+04  0.00000000000E+00 0.  1.
         -2   -1    0    0    0  501 -0.00000000000E+00 -0.00000000000E+00 -0.13515791948E+02  0.13515791948E+02  0.00000000000E+00 0. -1.
         23    2    1    2    0    0 -0.71021050462E+02 -0.44553199933E+02  0.36275851860E+03  0.38310418538E+03  0.90255730019E+02 0.  0.
         23    2    1    2    0    0  0.71021050462E+02  0.44553199933E+02  0.16924743720E+04  0.16991602891E+04  0.12508881253E+03 0.  0.
          5    1    4    4  502    0 -0.34855669739E+02  0.29522600666E+01  0.51180646237E+03  0.51301750543E+03  0.41800000000E+01 0.  1.
         -5    1    4    4    0  502  0.10587672020E+03  0.41600939867E+02  0.11806679096E+04  0.11861427837E+04  0.41800000000E+01 0.  1.
        -11    1    3    3    0    0 -0.86909414173E+01 -0.34650748333E+02  0.37551194811E+02  0.51829519142E+02  0.00000000000E+00 0. -1.
         11    1    3    3    0    0 -0.62330109045E+02 -0.99024516005E+01  0.32520732379E+03  0.33127466624E+03  0.00000000000E+00 0.  1.
</event>
<event>
 8    1  0.5900800E-006  0.1102165E+03  0.7561462E-02  0.1260170E+00
         -3   -1    0    0    0  501 -0.00000000000E+00  0.00000000000E+00  0.42469855153E+02  0.42469855153E+02  0.00000000000E+00 0.  1.
          3   -1    0    0  501    0  0.00000000000E+00 -0.00000000000E+00 -0.31682156287E+03  0.31682156287E+03  0.00000000000E+00 0. -1.
         23    2    1    2    0    0 -0.32568579947E+02  0.23800660487E+02 -0.96284886422E+02  0.13797115621E+03  0.90211289503E+02 0.  0.
         23    2    1    2    0    0  0.32568579947E+02 -0.23800660487E+02 -0.17806682129E+03  0.22132026181E+03  0.12509069351E+03 0.  0.
          5    1    4    4  502    0 -0.17389658290E+02 -0.63432904094E+02 -0.73044251245E+02  0.98382257430E+02  0.41800000000E+01 0. -1.
         -5    1    4    4    0  502  0.49958238237E+02  0.39632243607E+02 -0.10502257005E+03  0.12293800438E+03  0.41800000000E+01 0. -1.
        -11    1    3    3    0    0 -0.24768882195E+02 -0.28489946005E+02 -0.68576914004E+02  0.78281336747E+02  0.00000000000E+00 0. -1.
         11    1    3    3    0    0 -0.77996977524E+01  0.52290606491E+02 -0.27707972417E+02  0.59689819465E+02  0.00000000000E+00 0.  1.
</event>
<event>
 8    1  0.5900800E-006  0.8765604E+02  0.7561462E-02  0.1308629E+00
         -2   -1    0    0    0  501 -0.00000000000E+00  0.00000000000E+00  0.85855596798E+02  0.85855596798E+02  0.00000000000E+00 0.  1.
          2   -1    0    0  501    0  0.00000000000E+00 -0.00000000000E+00 -0.19858184814E+03  0.19858184814E+03  0.00000000000E+00 0. -1.
         23    2    1    2    0    0 -0.14357231640E+02 -0.21798042892E+02  0.25071822848E+02  0.96506877542E+02  0.89463379870E+02 0.  0.
         23    2    1    2    0    0  0.14357231640E+02  0.21798042892E+02 -0.13779807419E+03  0.18793056739E+03  0.12509318182E+03 0.  0.
          5    1    4    4  502    0  0.22779769181E+02 -0.48013740335E+02 -0.83174258012E+02  0.98791025609E+02  0.41800000000E+01 0.  1.
         -5    1    4    4    0  502 -0.84225375414E+01  0.69811783227E+02 -0.54623816173E+02  0.89139541783E+02  0.41800000000E+01 0.  1.
        -11    1    3    3    0    0 -0.24988693319E+02 -0.29331131587E+02  0.53094436454E+02  0.65603119258E+02  0.00000000000E+00 0.  1.
         11    1    3    3    0    0  0.10631461679E+02  0.75330886956E+01 -0.28022613607E+02  0.30903758284E+02  0.00000000000E+00 0. -1.
</event>
<event>
 8    1  0.5900800E-006  0.7523248E+02  0.7561462E-02  0.1343153E+00
         -4   -1    0    0    0  501 -0.00000000000E+00  0.00000000000E+00  0.84961067846E+02  0.84961067846E+02  0.00000000000E+00 0.  1.
          4   -1    0    0  501    0  0.00000000000E+00 -0.00000000000E+00 -0.13804289753E+03  0.13804289753E+03  0.00000000000E+00 0. -1.
         23    2    1    2    0    0 -0.21101952171E+02  0.30107443498E+02 -0.25018497295E+02  0.10133095392E+03  0.91051010298E+02 0.  0.
         23    2    1    2    0    0  0.21101952171E+02 -0.30107443498E+02 -0.28063332390E+02  0.12167301146E+03  0.11253897348E+03 0.  0.
          5    1    4    4  502    0  0.31241526413E+02 -0.16541818678E+02 -0.68741899414E+02  0.77411794146E+02  0.41800000000E+01 0. -1.
         -5    1    4    4    0  502 -0.10139574242E+02 -0.13565624820E+02  0.40678567025E+02  0.44261217310E+02  0.41800000000E+01 0.  1.
        -11    1    3    3    0    0 -0.50391168930E+02  0.42208517061E+02 -0.22752807832E+02  0.69559464366E+02  0.00000000000E+00 0.  1.
         11    1    3    3    0    0  0.29289216760E+02 -0.12101073563E+02 -0.22656894622E+01  0.31771489555E+02  0.00000000000E+00 0. -1.
</event>
<event>
 8    1  0.5900800E-006  0.2948035E+03  0.7561462E-02  0.1087868E+00
         -2   -1    0    0    0  501 -0.00000000000E+00  0.00000000000E+00  0.53119079752E+02  0.53119079752E+02  0.00000000000E+00 0.  1.
          2   -1    0    0  501    0  0.00000000000E+00 -0.00000000000E+00 -0.20616765877E+04  0.20616765877E+04  0.00000000000E+00 0. -1.
         23    2    1    2    0    0  0.60094793364E+02  0.28516766986E+03 -0.62409445275E+03  0.69447253848E+03  0.88691807051E+02 0.  0.
         23    2    1    2    0    0 -0.60094793364E+02 -0.28516766986E+03 -0.13844630552E+04  0.14203231289E+04  0.12509138796E+03 0.  0.
          5    1    4    4  502    0 -0.70634083476E+02 -0.26283281638E+03 -0.13529985907E+04  0.13801061270E+04  0.41800000000E+01 0. -1.
         -5    1    4    4    0  502  0.10539290111E+02 -0.22334853481E+02 -0.31464464502E+02  0.40217001908E+02  0.41800000000E+01 0. -1.
        -11    1    3    3    0    0  0.35736030834E+01  0.63769390583E+02 -0.23224384963E+03  0.24086616928E+03  0.00000000000E+00 0. -1.
         11    1    3    3    0    0  0.56521190281E+02  0.22139827927E+03 -0.39185060312E+03  0.45360636920E+03  0.00000000000E+00 0.  1.
</event>
<event>
 7    1  0.5900800E-006  0.8155146E+02  0.7561462E-02  0.1324705E+00
         -2   -1    0    0    0  501 -0.00000000000E+00  0.00000000000E+00  0.14586403925E+03  0.14586403925E+03  0.00000000000E+00 0.  1.
          2   -1    0    0  501    0  0.00000000000E+00 -0.00000000000E+00 -0.11655575214E+03  0.11655575214E+03  0.00000000000E+00 0. -1.
         23    2    1    2    0    0  0.55180501404E+01 -0.12768189829E+02  0.46834238848E+02  0.10322523331E+03  0.90931442932E+02 0.  0.
          5    1    1    2  502    0 -0.33696304213E+02  0.26479359796E+02 -0.79053725425E+02  0.90019782917E+02  0.41800000000E+01 0. -1.
         -5    1    1    2    0  502  0.28178254073E+02 -0.13711169967E+02  0.61527773683E+02  0.69174775163E+02  0.41800000000E+01 0.  1.
        -11    1    3    3    0    0 -0.30595864342E+02  0.22478875902E+02  0.62716377865E+01  0.38480387436E+02  0.00000000000E+00 0. -1.
         11    1    3    3    0    0  0.36113914483E+02 -0.35247065731E+02  0.40562601061E+02  0.64744845870E+02  0.00000000000E+00 0.  1.
</event>
<event>
 8    1  0.5900800E-006  0.1630485E+03  0.7561462E-02  0.1185297E+00
          2   -1    0    0  501    0  0.00000000000E+00  0.00000000000E+00  0.16535631956E+03  0.16535631956E+03  0.00000000000E+00 0. -1.
         -2   -1    0    0    0  501 -0.00000000000E+00 -0.00000000000E+00 -0.25464910934E+03  0.25464910934E+03  0.00000000000E+00 0.  1.
         23    2    1    2    0    0  0.15924135760E+03 -0.23295788435E+02 -0.11031555889E+03  0.21508985018E+03  0.90518602451E+02 0.  0.
         23    2    1    2    0    0 -0.15924135760E+03  0.23295788435E+02  0.21022769117E+02  0.20491557871E+03  0.12509170176E+03 0.  0.
          5    1    4    4  502    0 -0.15829637797E+03  0.25129782383E+02  0.55846765854E+02  0.16978098509E+03  0.41800000000E+01 0. -1.
         -5    1    4    4    0  502 -0.94497962485E+00 -0.18339939478E+01 -0.34823996738E+02  0.35134593623E+02  0.41800000000E+01 0. -1.
        -11    1    3    3    0    0  0.98829917376E+02 -0.18038705798E+02 -0.11684942496E+03  0.15409910963E+03  0.00000000000E+00 0.  1.
         11    1    3    3    0    0  0.60411440221E+02 -0.52570826363E+01  0.65338660669E+01  0.60990740553E+02  0.00000000000E+00 0. -1.
</event>
<event>
 8    1  0.5900800E-006  0.1733853E+03  0.7561462E-02  0.1174363E+00
         -2   -1    0    0    0  501 -0.00000000000E+00  0.00000000000E+00  0.80935525946E+02  0.80935525946E+02  0.00000000000E+00 0.  1.
          2   -1    0    0  501    0  0.00000000000E+00 -0.00000000000E+00 -0.37891422785E+03  0.37891422785E+03  0.00000000000E+00 0. -1.
         23    2    1    2    0    0 -0.15034110412E+02  0.13993952759E+03 -0.12185744429E+03  0.20202920608E+03  0.78469532457E+02 0.  0.
         23    2    1    2    0    0  0.15034110412E+02 -0.13993952759E+03 -0.17612125761E+03  0.25782054771E+03  0.12507454410E+03 0.  0.
          5    1    4    4  502    0  0.69000439580E+02 -0.64637935274E+02 -0.10162190053E+03  0.13886542552E+03  0.41800000000E+01 0. -1.
         -5    1    4    4    0  502 -0.53966329169E+02 -0.75301592314E+02 -0.74499357083E+02  0.11895512219E+03  0.41800000000E+01 0. -1.
        -11    1    3    3    0    0  0.26500188630E+02  0.93071754530E+02 -0.88198000238E+02  0.13093318424E+03  0.00000000000E+00 0.  1.
         11    1    3    3    0    0 -0.41534299041E+02  0.46867773059E+02 -0.33659444055E+02  0.71096021847E+02  0.00000000000E+00 0. -1.
</event>
<event>
 8    1  0.5900800E-006  0.9316388E+02  0.7561462E-02  0.1295366E+00
          2   -1    0    0  501    0  0.00000000000E+00  0.00000000000E+00  0.22853767201E+03  0.22853767201E+03  0.00000000000E+00 0. -1.
         -2   -1    0    0    0  501 -0.00000000000E+00 -0.00000000000E+00 -0.51974875938E+02  0.51974875938E+02  0.00000000000E+00 0.  1.
         23    2    1    2    0    0  0.15908881382E+02  0.19754063536E+02  0.65392201548E+02  0.11124170591E+03  0.86343856628E+02 0.  0.
         23    2    1    2    0    0 -0.15908881382E+02 -0.19754063536E+02  0.11117059452E+03  0.16927084203E+03  0.12510156411E+03 0.  0.
          5    1    4    4  502    0 -0.22878642384E+02 -0.56438772066E+02  0.11630154261E+03  0.13134796719E+03  0.41800000000E+01 0. -1.
         -5    1    4    4    0  502  0.69697610023E+01  0.36684708530E+02 -0.51309480938E+01  0.37922874847E+02  0.41800000000E+01 0. -1.
        -11    1    3    3    0    0  0.29823361262E+01  0.52459044595E+02  0.51059936861E+02  0.73266382747E+02  0.00000000000E+00 0.  1.
         11    1    3    3    0    0  0.12926545256E+02 -0.32704981058E+02  0.14332264687E+02  0.37975323163E+02  0.00000000000E+00 0. -1.
</event>
<event>
 8    1  0.5900800E-006  0.2073689E+03  0.7561462E-02  0.1143667E+00
          2   -1    0    0  501    0  0.00000000000E+00  0.00000000000E+00  0.13222250105E+04  0.13222250105E+04  0.00000000000E+00 0. -1.
         -2   -1    0    0    0  501 -0.00000000000E+00 -0.00000000000E+00 -0.60680375752E+02  0.60680375752E+02  0.00000000000E+00 0.  1.
         23    2    1    2    0    0  0.17457549549E+03  0.48910985801E+02  0.15902908268E+03  0.25860235665E+03  0.93359742766E+02 0.  0.
         23    2    1    2    0    0 -0.17457549549E+03 -0.48910985801E+02  0.11025155521E+04  0.11243030296E+04  0.12509145324E+03 0.  0.
          5    1    4    4  502    0 -0.86402604272E+02  0.37320809147E+02  0.56530205398E+03  0.57309871528E+03  0.41800000000E+01 0. -1.
         -5    1    4    4    0  502 -0.88172891213E+02 -0.86231794948E+02  0.53721349811E+03  0.55120431435E+03  0.41800000000E+01 0. -1.
        -11    1    3    3    0    0  0.16895866548E+03  0.64271517893E+02  0.16107211584E+03  0.24211998091E+03  0.00000000000E+00 0. -1.
         11    1    3    3    0    0  0.56168300040E+01 -0.15360532092E+02 -0.20430331630E+01  0.16482375737E+02  0.00000000000E+00 0.  1.
</event>
<event>
 8    1  0.5900800E-006  0.9886166E+02  0.7561462E-02  0.1282708E+00
          3   -1    0    0  501    0  0.00000000000E+00  0.00000000000E+00  0.14618814177E+03  0.14618814177E+03  0.00000000000E+00 0. -1.
         -3   -1    0    0    0  501 -0.00000000000E+00 -0.00000000000E+00 -0.93849980156E+02  0.93849980156E+02  0.00000000000E+00 0.  1.
         23    2    1    2    0    0  0.99456308190E+01 -0.21618343136E+02 -0.17042915515E+02  0.95028555134E+02  0.90408500647E+02 0.  0.
         23    2    1    2    0    0 -0.99456308190E+01  0.21618343136E+02  0.69381077131E+02  0.14500956680E+03  0.12509105590E+03 0.  0.
          5    1    4    4  502    0  0.20672783933E+02  0.68025852444E+02  0.33492100147E+02  0.78702438136E+02  0.41800000000E+01 0. -1.
         -5    1    4    4    0  502 -0.30618414752E+02 -0.46407509308E+02  0.35888976984E+02  0.66307128660E+02  0.41800000000E+01 0. -1.
        -11    1    3    3    0    0  0.37563552604E+02 -0.35198045038E+01  0.22174048009E+02  0.43761831692E+02  0.00000000000E+00 0. -1.
         11    1    3    3    0    0 -0.27617921785E+02 -0.18098538632E+02 -0.39216963524E+02  0.51266723441E+02  0.00000000000E+00 0.  1.
</event>
<event>
 8    1  0.5900800E-006  0.1410361E+03  0.7561462E-02  0.1211942E+00
         -1   -1    0    0    0  501 -0.00000000000E+00  0.00000000000E+00  0.26642843180E+03  0.26642843180E+03  0.00000000000E+00 0.  1.
          1   -1    0    0  501    0  0.00000000000E+00 -0.00000000000E+00 -0.11076712831E+03  0.11076712831E+03  0.00000000000E+00 0. -1.
         23    2    1    2    0    0  0.55786295634E+02  0.11430458781E+03  0.35104838024E+02  0.16188470591E+03  0.93790504730E+02 0.  0.
         23    2    1    2    0    0 -0.55786295634E+02 -0.11430458781E+03  0.12055646547E+03  0.21531085420E+03  0.12508898031E+03 0.  0.
          5    1    4    4  502    0 -0.46875747270E+02 -0.93206301982E+02  0.12948823853E+02  0.10521356781E+03  0.41800000000E+01 0. -1.
         -5    1    4    4    0  502 -0.89105483639E+01 -0.21098285832E+02  0.10760764162E+03  0.11009728639E+03  0.41800000000E+01 0. -1.
        -11    1    3    3    0    0  0.74129267842E+02  0.55010716621E+02  0.38457220170E+01  0.92391108186E+02  0.00000000000E+00 0. -1.
         11    1    3    3    0    0 -0.18342972208E+02  0.59293871193E+02  0.31259116007E+02  0.69493597720E+02  0.00000000000E+00 0.  1.
</event>
<event>
 7    1  0.5900800E-006  0.1221377E+03  0.7561462E-02  0.1239612E+00
          2   -1    0    0  501    0  0.00000000000E+00  0.00000000000E+00  0.19961554727E+04  0.19961554727E+04  0.00000000000E+00 0. -1.
         -2   -1    0    0    0  501 -0.00000000000E+00 -0.00000000000E+00 -0.14552699128E+02  0.14552699128E+02  0.00000000000E+00 0.  1.
         23    2    1    2    0    0 -0.43977804787E+02  0.96060351851E+02  0.57987692549E+03  0.59653105931E+03  0.91817304995E+02 0.  0.
          5    1    1    2  502    0  0.13607913834E+02 -0.80288104409E+02  0.13472064678E+04  0.13496718469E+04  0.41800000000E+01 0. -1.
         -5    1    1    2    0  502  0.30369890953E+02 -0.15772247442E+02  0.54519380272E+02  0.64505265608E+02  0.41800000000E+01 0.  1.
        -11    1    3    3    0    0 -0.29228758063E+02 -0.18092667034E+01  0.54080752915E+02  0.61500581947E+02  0.00000000000E+00 0. -1.
         11    1    3    3    0    0 -0.14749046724E+02  0.97869618555E+02  0.52579617257E+03  0.53503047736E+03  0.00000000000E+00 0.  1.
</event>
<event>
 8    1  0.5900800E-006  0.1083878E+03  0.7561462E-02  0.1263585E+00
         -3   -1    0    0    0  501 -0.00000000000E+00  0.00000000000E+00  0.16881360037E+02  0.16881360037E+02  0.00000000000E+00 0.  1.
          3   -1    0    0  501    0  0.00000000000E+00 -0.00000000000E+00 -0.85585587240E+03  0.85585587240E+03  0.00000000000E+00 0. -1.
         23    2    1    2    0    0 -0.43022805473E+01  0.52387120504E+02 -0.34955487397E+03  0.36484322826E+03  0.90327466882E+02 0.  0.
         23    2    1    2    0    0  0.43022805473E+01 -0.52387120504E+02 -0.48941963838E+03  0.50789400418E+03  0.12514718147E+03 0.  0.
          5    1    4    4  502    0 -0.34707055485E+02 -0.63128735468E+02 -0.42919745770E+03  0.43522149193E+03  0.41800000000E+01 0.  1.
         -5    1    4    4    0  502  0.39009336032E+02  0.10741614964E+02 -0.60222180681E+02  0.72672512243E+02  0.41800000000E+01 0.  1.
        -11    1    3    3    0    0  0.14017654737E+02 -0.22682722102E+02 -0.10726102922E+03  0.11052569346E+03  0.00000000000E+00 0. -1.
         11    1    3    3    0    0 -0.18319935285E+02  0.75069842606E+02 -0.24229384476E+03  0.25431753480E+03  0.00000000000E+00 0.  1.
</event>
<event>
 8    1  0.5900800E-006  0.7900363E+02  0.7561462E-02  0.1331903E+00
          2   -1    0    0  501    0  0.00000000000E+00  0.00000000000E+00  0.95904843529E+03  0.95904843529E+03  0.00000000000E+00 0. -1.
         -2   -1    0    0    0  501 -0.00000000000E+00 -0.00000000000E+00 -0.23086313227E+02  0.23086313227E+02  0.00000000000E+00 0.  1.
         23    2    1    2    0    0 -0.38442209226E+02  0.17312543936E+02  0.10766829092E+03  0.14338890929E+03  0.84796172147E+02 0.  0.
         23    2    1    2    0    0  0.38442209226E+02 -0.17312543936E+02  0.82829383114E+03  0.83874583922E+03  0.12508550867E+03 0.  0.
          5    1    4    4  502    0 -0.29945133013E+01  0.29320578531E+02  0.51841195153E+02  0.59779974492E+02  0.41800000000E+01 0.  1.
         -5    1    4    4    0  502  0.41436722527E+02 -0.46633122467E+02  0.77645263598E+03  0.77896586473E+03  0.41800000000E+01 0.  1.
        -11    1    3    3    0    0  0.15061548553E-01  0.26237039234E+02 -0.25044076578E+01  0.26356299291E+02  0.00000000000E+00 0.  1.
         11    1    3    3    0    0 -0.38457270774E+02 -0.89244952980E+01  0.11017269858E+03  0.11703261000E+03  0.00000000000E+00 0. -1.
</event>
<event>
 7    1  0.5900800E-006  0.1086381E+03  0.7561462E-02  0.1263113E+00
         -2   -1    0    0    0  501 -0.00000000000E+00  0.00000000000E+00  0.10362697770E+03  0.10362697770E+03  0.00000000000E+00 0.  1.
          2   -1    0    0  501    0  0.00000000000E+00 -0.00000000000E+00 -0.16613664798E+03  0.16613664798E+03  0.00000000000E+00 0. -1.
         23    2    1    2    0    0  0.24713425753E+02 -0.35433405735E+01  0.82769577843E+00  0.96295244763E+02  0.92998819395E+02 0.  0.
          5    1    1    2  502    0  0.25579726192E+02  0.47800971673E+02 -0.86746177362E+02  0.10237981721E+03  0.41800000000E+01 0. -1.
         -5    1    1    2    0  502 -0.50293151945E+02 -0.44257631100E+02  0.23408811302E+02  0.71088563705E+02  0.41800000000E+01 0.  1.
        -11    1    3    3    0    0  0.55701607710E+02  0.17421881696E+02 -0.43509356070E+01  0.58524539331E+02  0.00000000000E+00 0. -1.
         11    1    3    3    0    0 -0.30988181957E+02 -0.20965222270E+02  0.51786313854E+01  0.37770705432E+02  0.00000000000E+00 0.  1.
</event>
<event>
 8    1  0.5900800E-006  0.1605110E+03  0.7561462E-02  0.1188121E+00
          2   -1    0    0  501    0  0.00000000000E+00  0.00000000000E+00  0.15427455291E+04  0.15427455291E+04  0.00000000000E+00 0. -1.
         -2   -1    0    0    0  501 -0.00000000000E+00 -0.00000000000E+00 -0.26961121127E+02  0.26961121127E+02  0.00000000000E+00 0.  1.
         23    2    1    2    0    0  0.10705232032E+03 -0.85424181203E+02  0.31987821009E+03  0.35950173411E+03  0.90343442004E+02 0.  0.
         23    2    1    2    0    0 -0.10705232032E+03  0.85424181203E+02  0.11959061979E+04  0.12102049162E+04  0.12508722897E+03 0.  0.
          5    1    4    4  502    0 -0.66330874964E+02 -0.92070937126E+01  0.25549936429E+03  0.26416273980E+03  0.41800000000E+01 0.  1.
         -5    1    4    4    0  502 -0.40721445359E+02  0.94631274916E+02  0.94040683364E+03  0.94604217636E+03  0.41800000000E+01 0.  1.
        -11    1    3    3    0    0  0.11545789450E+03 -0.76182984471E+02  0.31811169579E+03  0.34688531754E+03  0.00000000000E+00 0.  1.
         11    1    3    3    0    0 -0.84055741759E+01 -0.92411967321E+01  0.17665143029E+01  0.12616416569E+02  0.00000000000E+00 0. -1.
</event>
<event>
 8    1  0.5900800E-006  0.1448529E+03  0.7561462E-02  0.1206944E+00
         -2   -1    0    0    0  501 -0.00000000000E+00  0.00000000000E+00  0.12576240803E+02  0.12576240803E+02  0.00000000000E+00 0.  1.
          2   -1    0    0  501    0  0.00000000000E+00 -0.00000000000E+00 -0.20773454536E+04  0.20773454536E+04  0.00000000000E+00 0. -1.
         23    2    1    2    0    0 -0.27148111445E+02 -0.96786144479E+02 -0.53613163309E+03  0.55288378175E+03  0.90215133979E+02 0.  0.
         23    2    1    2    0    0  0.27148111445E+02  0.96786144479E+02 -0.15286375797E+04  0.15370379126E+04  0.12509243438E+03 0.  0.
          5    1    4    4  502    0  0.23323907294E+02  0.12579487222E+03 -0.11096062023E+04  0.11169654207E+04  0.41800000000E+01 0.  1.
         -5    1    4    4    0  502  0.38242041513E+01 -0.29008727738E+02 -0.41903137738E+03  0.42007249190E+03  0.41800000000E+01 0.  1.
        -11    1    3    3    0    0 -0.12603106115E+01  0.16189361529E+02 -0.35922865086E+02  0.39422532206E+02  0.00000000000E+00 0. -1.
         11    1    3    3    0    0 -0.25887800834E+02 -0.11297550601E+03 -0.50020876801E+03  0.51346124954E+03  0.00000000000E+00 0.  1.
</event>
<event>
 8    1  0.5900800E-006  0.1334979E+03  0.7561462E-02  0.1222356E+00
          1   -1    0    0  501    0  0.00000000000E+00  0.00000000000E+00  0.47587327373E+03  0.47587327373E+03  0.00000000000E+00 0. -1.
         -1   -1    0    0    0  501 -0.00000000000E+00 -0.00000000000E+00 -0.52609954271E+02  0.52609954271E+02  0.00000000000E+00 0.  1.
         23    2    1    2    0    0 -0.33196338292E+02  0.10851402473E+03  0.17151769986E+03  0.22533307722E+03  0.92083570097E+02 0.  0.
         23    2    1    2    0    0  0.33196338292E+02 -0.10851402473E+03  0.25174561960E+03  0.30315015079E+03  0.12508743540E+03 0.  0.
          5    1    4    4  502    0 -0.23983254666E+02  0.51598150300E+01  0.48380141339E+01  0.25351508363E+02  0.41800000000E+01 0.  1.
         -5    1    4    4    0  502  0.57179592958E+02 -0.11367383976E+03  0.24690760546E+03  0.27779864242E+03  0.41800000000E+01 0.  1.
        -11    1    3    3    0    0 -0.26361522902E+01  0.36127505431E+02  0.13296600377E+03  0.13781184313E+03  0.00000000000E+00 0. -1.
         11    1    3    3    0    0 -0.30560186002E+02  0.72386519300E+02  0.38551696095E+02  0.87521234090E+02  0.00000000000E+00 0.  1.
</event>
<event>
 8    1  0.5900800E-006  0.1077036E+03  0.7561462E-02  0.1264883E+00
          1   -1    0    0  501    0  0.00000000000E+00  0.00000000000E+00  0.50990754255E+03  0.50990754255E+03  0.00000000000E+00 0. -1.
         -1   -1    0    0    0  501 -0.00000000000E+00 -0.00000000000E+00 -0.27379591145E+02  0.27379591145E+02  0.00000000000E+00 0.  1.
         23    2    1    2    0    0  0.13973165415E+02  0.39672047810E+02  0.16549785047E+03  0.19382843808E+03  0.91710436526E+02 0.  0.
         23    2    1    2    0    0 -0.13973165415E+02 -0.39672047810E+02  0.31703010093E+03  0.34345869561E+03  0.12524643695E+03 0.  0.
          5    1    4    4  502    0  0.43506250053E+02  0.10250439578E+02  0.19060988768E+03  0.19582509284E+03  0.41800000000E+01 0. -1.
         -5    1    4    4    0  502 -0.57479415468E+02 -0.49922487389E+02  0.12642021325E+03  0.14763360277E+03  0.41800000000E+01 0. -1.
        -11    1    3    3    0    0  0.42505224817E+02 -0.33578551516E+01  0.41449245590E+02  0.59464353086E+02  0.00000000000E+00 0.  1.
         11    1    3    3    0    0 -0.28532059401E+02  0.43029902962E+02  0.12404860488E+03  0.13436408499E+03  0.00000000000E+00 0. -1.
</event>
<event>
 8    1  0.5900800E-006  0.7432318E+02  0.7561462E-02  0.1345980E+00
         -1   -1    0    0    0  501 -0.00000000000E+00  0.00000000000E+00  0.18779912931E+02  0.18779912931E+02  0.00000000000E+00 0.  1.
          1   -1    0    0  501    0  0.00000000000E+00 -0.00000000000E+00 -0.11981331744E+04  0.11981331744E+04  0.00000000000E+00 0. -1.
         23    2    1    2    0    0 -0.10207381296E+02  0.41218133103E+02 -0.15249971842E+03  0.18314640096E+03  0.92104912670E+02 0.  0.
         23    2    1    2    0    0  0.10207381296E+02 -0.41218133103E+02 -0.10268535431E+04  0.10337666864E+04  0.11154477953E+03 0.  0.
          5    1    4    4  502    0 -0.18098621052E+02 -0.20638832829E+02 -0.93456025513E+03  0.93497265435E+03  0.41800000000E+01 0. -1.
         -5    1    4    4    0  502  0.28306002348E+02 -0.20579300274E+02 -0.92293287954E+02  0.98794032057E+02  0.41800000000E+01 0.  1.
        -11    1    3    3    0    0 -0.37990839618E+02  0.26256705604E+01 -0.11908885715E+03  0.12502941229E+03  0.00000000000E+00 0. -1.
         11    1    3    3    0    0  0.27783458322E+02  0.38592462543E+02 -0.33410861271E+02  0.58116988672E+02  0.00000000000E+00 0.  1.
</event>
<event>
 8    1  0.5900800E-006  0.1056618E+03  0.7561462E-02  0.1268821E+00
         -1   -1    0    0    0  501 -0.00000000000E+00  0.00000000000E+00  0.16836639618E+02  0.16836639618E+02  0.00000000000E+00 0.  1.
          1   -1    0    0  501    0  0.00000000000E+00 -0.00000000000E+00 -0.10106020130E+04  0.10106020130E+04  0.00000000000E+00 0. -1.
         23    2    1    2    0    0  0.12674609938E+02 -0.66598266399E+02 -0.32108267682E+03  0.33987434055E+03  0.88456244474E+02 0.  0.
         23    2    1    2    0    0 -0.12674609938E+02  0.66598266399E+02 -0.67268269660E+03  0.68756431211E+03  0.12508676250E+03 0.  0.
          5    1    4    4  502    0  0.46976083856E+02  0.32462733993E+02 -0.15339590845E+03  0.16373258283E+03  0.41800000000E+01 0.  1.
         -5    1    4    4    0  502 -0.59650693793E+02  0.34135532405E+02 -0.51928678816E+03  0.52383172928E+03  0.41800000000E+01 0.  1.
        -11    1    3    3    0    0  0.93830032095E+01  0.68976537854E+01 -0.12766899237E+01  0.11715302563E+02  0.00000000000E+00 0.  1.
         11    1    3    3    0    0  0.32916067283E+01 -0.73495920184E+02 -0.31980598689E+03  0.32815903799E+03  0.00000000000E+00 0. -1.
</event>
<event>
 8    1  0.5900800E-006  0.1137060E+03  0.7561462E-02  0.1253857E+00
          2   -1    0    0  501    0  0.00000000000E+00  0.00000000000E+00  0.18780784073E+04  0.18780784073E+04  0.00000000000E+00 0. -1.
         -2   -1    0    0    0  501 -0.00000000000E+00 -0.00000000000E+00 -0.11339430586E+02  0.11339430586E+02  0.00000000000E+00 0.  1.
         23    2    1    2    0    0 -0.32731136469E+02  0.72244014044E+02  0.48543373879E+03  0.50019442004E+03  0.90873638782E+02 0.  0.
         23    2    1    2    0    0  0.32731136469E+02 -0.72244014044E+02  0.13813052379E+04  0.13892234179E+04  0.12508804704E+03 0.  0.
          5    1    4    4  502    0 -0.22629138428E+02 -0.15451275945E+02  0.96570031583E+03  0.96609802413E+03  0.41800000000E+01 0. -1.
         -5    1    4    4    0  502  0.55360274897E+02 -0.56792738099E+02  0.41560492211E+03  0.42312539373E+03  0.41800000000E+01 0. -1.
        -11    1    3    3    0    0 -0.41821654205E+01  0.87706244944E+02  0.33698116696E+03  0.34823294330E+03  0.00000000000E+00 0.  1.
         11    1    3    3    0    0 -0.28548971049E+02 -0.15462230899E+02  0.14845257183E+03  0.15196147675E+03  0.00000000000E+00 0. -1.
</event>
<event>
 8    1  0.5900800E-006  0.7729229E+02  0.7561462E-02  0.1336916E+00
          1   -1    0    0  501    0  0.00000000000E+00  0.00000000000E+00  0.80286483772E+03  0.80286483772E+03  0.00000000000E+00 0. -1.
         -1   -1    0    0    0  501 -0.00000000000E+00 -0.00000000000E+00 -0.20254426775E+02  0.20254426775E+02  0.00000000000E+00 0.  1.
         23    2    1    2    0    0  0.70950222173E+01  0.21551543634E+02  0.14430968204E+03  0.17228146734E+03  0.91328042174E+02 0.  0.
         23    2    1    2    0    0 -0.70950222173E+01 -0.21551543634E+02  0.63830072891E+03  0.65083779715E+03  0.12508880567E+03 0.  0.
          5    1    4    4  502    0  0.18023573351E+02  0.27377017880E+02  0.49844577959E+02  0.59802212804E+02  0.41800000000E+01 0. -1.
         -5    1    4    4    0  502 -0.25118595568E+02 -0.48928561513E+02  0.58845615095E+03  0.59103558434E+03  0.41800000000E+01 0. -1.
        -11    1    3    3    0    0 -0.17020255758E+02  0.34893811785E+02  0.17630920992E+02  0.42639378302E+02  0.00000000000E+00 0.  1.
         11    1    3    3    0    0  0.24115277975E+02 -0.13342268152E+02  0.12667876104E+03  0.12964208904E+03  0.00000000000E+00 0. -1.
</event>
<event>
 8    1  0.5900800E-006  0.1532405E+03  0.7561462E-02  0.1196547E+00
         -2   -1    0    0    0  501 -0.00000000000E+00  0.00000000000E+00  0.37023451587E+02  0.37023451587E+02  0.00000000000E+00 0.  1.
          2   -1    0    0  501    0  0.00000000000E+00 -0.00000000000E+00 -0.11991595789E+04  0.11991595789E+04  0.00000000000E+00 0. -1.
         23    2    1    2    0    0  0.71841420837E+02 -0.12589270277E+03 -0.26156002548E+03  0.31547990910E+03  0.10051747986E+03 0.  0.
         23    2    1    2    0    0 -0.71841420837E+02  0.12589270277E+03 -0.90057610187E+03  0.92070312142E+03  0.12508701044E+03 0.  0.
          5    1    4    4  502    0 -0.69153489154E+02  0.10453079907E+03 -0.39021230589E+03  0.40986828261E+03  0.41800000000E+01 0. -1.
         -5    1    4    4    0  502 -0.26879316831E+01  0.21361903706E+02 -0.51036379598E+03  0.51083483882E+03  0.41800000000E+01 0. -1.
        -11    1    3    3    0    0  0.72818311314E+01  0.78053017152E+01  0.38646726916E+01  0.11352686665E+02  0.00000000000E+00 0.  1.
         11    1    3    3    0    0  0.64559589706E+02 -0.13369800449E+03 -0.26542469817E+03  0.30412722243E+03  0.00000000000E+00 0. -1.
</event>
<event>
 8    1  0.5900800E-006  0.1201435E+03  0.7561462E-02  0.1242861E+00
          1   -1    0    0  501    0  0.00000000000E+00  0.00000000000E+00  0.55653289211E+03  0.55653289211E+03  0.00000000000E+00 0. -1.
         -1   -1    0    0    0  501 -0.00000000000E+00 -0.00000000000E+00 -0.34808996833E+02  0.34808996833E+02  0.00000000000E+00 0.  1.
         23    2    1    2    0    0  0.79412613308E+02  0.27201943816E+01  0.16537110405E+03  0.20540434422E+03  0.92355725112E+02 0.  0.
         23    2    1    2    0    0 -0.79412613308E+02 -0.27201943816E+01  0.35635279123E+03  0.38593754472E+03  0.12508682584E+03 0.  0.
          5    1    4    4  502    0 -0.10032935031E+03 -0.10295184692E+02  0.34710669026E+03  0.36148650900E+03  0.41800000000E+01 0. -1.
         -5    1    4    4    0  502  0.20916737000E+02  0.75749903103E+01  0.92461009644E+01  0.24451035724E+02  0.41800000000E+01 0. -1.
        -11    1    3    3    0    0  0.37931174219E+01  0.34481792632E+02  0.79073446255E+02  0.86348084318E+02  0.00000000000E+00 0.  1.
         11    1    3    3    0    0  0.75619495886E+02 -0.31761598250E+02  0.86297657794E+02  0.11905625990E+03  0.00000000000E+00 0. -1.
</event>
<event>
 8    1  0.5900800E-006  0.9221219E+02  0.7561462E-02  0.1297581E+00
          4   -1    0    0  501    0  0.00000000000E+00  0.00000000000E+00  0.13402343348E+03  0.13402343348E+03  0.00000000000E+00 0. -1.
         -4   -1    0    0    0  501 -0.00000000000E+00 -0.00000000000E+00 -0.12953489391E+03  0.12953489391E+03  0.00000000000E+00 0.  1.
         23    2    1    2    0    0  0.91179983561E+01 -0.19236984465E+02 -0.68582709316E+02  0.11713523137E+03  0.92541206745E+02 0.  0.
         23    2    1    2    0    0 -0.91179983561E+01  0.19236984465E+02  0.73071248890E+02  0.14642309602E+03  0.12508843339E+03 0.  0.
          5    1    4    4  502    0 -0.44365115447E+02 -0.30272182023E+02  0.35501061328E+01  0.53988370291E+02  0.41800000000E+01 0. -1.
         -5    1    4    4    0  502  0.35247117091E+02  0.49509166488E+02  0.69521142758E+02  0.92434725725E+02  0.41800000000E+01 0. -1.
        -11    1    3    3    0    0  0.37957167745E+02 -0.87879670261E+01 -0.76153134085E+02  0.85541070713E+02  0.00000000000E+00 0.  1.
         11    1    3    3    0    0 -0.28839169389E+02 -0.10449017439E+02  0.75704247696E+01  0.31594160658E+02  0.00000000000E+00 0. -1.
</event>
<event>
 8    1  0.5900800E-006  0.1084033E+03  0.7561462E-02  0.1263556E+00
          2   -1    0    0  501    0  0.00000000000E+00  0.00000000000E+00  0.16526445762E+04  0.16526445762E+04  0.00000000000E+00 0. -1.
         -2   -1    0    0    0  501 -0.00000000000E+00 -0.00000000000E+00 -0.80808554504E+01  0.80808554504E+01  0.00000000000E+00 0.  1.
         23    2    1    2    0    0  0.11233571562E+00 -0.87940297484E+01  0.42748915443E+03  0.43720790034E+03  0.91249237695E+02 0.  0.
         23    2    1    2    0    0 -0.11233571562E+00  0.87940297484E+01  0.12170745663E+04  0.12235175313E+04  0.12508917571E+03 0.  0.
          5    1    4    4  502    0  0.57951615500E+02 -0.18542239032E+02  0.61631638015E+03  0.61932669667E+03  0.41800000000E+01 0. -1.
         -5    1    4    4    0  502 -0.58063951215E+02  0.27336268781E+02  0.60075818618E+03  0.60419083465E+03  0.41800000000E+01 0. -1.
        -11    1    3    3    0    0 -0.34165632146E+02 -0.34579318613E+02  0.24023748002E+03  0.24510623514E+03  0.00000000000E+00 0.  1.
         11    1    3    3    0    0  0.34277967862E+02  0.25785288865E+02  0.18725167441E+03  0.19210166520E+03  0.00000000000E+00 0. -1.
</event>
<event>
 8    1  0.5900800E-006  0.1035280E+03  0.7561462E-02  0.1273047E+00
          1   -1    0    0  501    0  0.00000000000E+00  0.00000000000E+00  0.24767143814E+03  0.24767143814E+03  0.00000000000E+00 0. -1.
         -1   -1    0    0    0  501 -0.00000000000E+00 -0.00000000000E+00 -0.60381543206E+02  0.60381543206E+02  0.00000000000E+00 0.  1.
         23    2    1    2    0    0 -0.13241425156E+02  0.16147663801E+02  0.15849641814E+02  0.94800684725E+02  0.91103656854E+02 0.  0.
         23    2    1    2    0    0  0.13241425156E+02 -0.16147663801E+02  0.17144025312E+03  0.21325229662E+03  0.12509476103E+03 0.  0.
          5    1    4    4  502    0 -0.37652234735E+02 -0.41912955493E+02  0.13254507124E+03  0.14408349985E+03  0.41800000000E+01 0. -1.
         -5    1    4    4    0  502  0.50893659891E+02  0.25765291693E+02  0.38895181877E+02  0.69168796768E+02  0.41800000000E+01 0. -1.
        -11    1    3    3    0    0 -0.52581276105E+02  0.10500687069E+02  0.68922321892E+01  0.54060687105E+02  0.00000000000E+00 0.  1.
         11    1    3    3    0    0  0.39339850949E+02  0.56469767323E+01  0.89574096244E+01  0.40739997620E+02  0.00000000000E+00 0. -1.
</event>
<event>
 8    1  0.5900800E-006  0.1707439E+03  0.7561462E-02  0.1177074E+00
          2   -1    0    0  501    0  0.00000000000E+00  0.00000000000E+00  0.13995106199E+04  0.13995106199E+04  0.00000000000E+00 0. -1.
         -2   -1    0    0    0  501 -0.00000000000E+00 -0.00000000000E+00 -0.22732185333E+02  0.22732185333E+02  0.00000000000E+00 0.  1.
         23    2    1    2    0    0 -0.80627278206E+02 -0.11285349460E+03  0.49128568399E+03  0.51726637871E+03  0.83463848605E+02 0.  0.
         23    2    1    2    0    0  0.80627278206E+02  0.11285349460E+03  0.88549275055E+03  0.90497642649E+03  0.12509297338E+03 0.  0.
          5    1    4    4  502    0  0.42866255891E+02  0.13243933744E+03  0.57876794252E+03  0.59528774361E+03  0.41800000000E+01 0.  1.
         -5    1    4    4    0  502  0.37761022315E+02 -0.19585842843E+02  0.30672480803E+03  0.30968868288E+03  0.41800000000E+01 0.  1.
        -11    1    3    3    0    0 -0.79096209365E+02 -0.43811954065E+02  0.32151613907E+03  0.33398851078E+03  0.00000000000E+00 0.  1.
         11    1    3    3    0    0 -0.15310688416E+01 -0.69041540533E+02  0.16976954492E+03  0.18327786793E+03  0.00000000000E+00 0. -1.
</event>
<event>
 8    1  0.5900800E-006  0.1263786E+03  0.7561462E-02  0.1232930E+00
          1   -1    0    0  501    0  0.00000000000E+00  0.00000000000E+00  0.42851713682E+03  0.42851713682E+03  0.00000000000E+00 0. -1.
         -1   -1    0    0    0  501 -0.00000000000E+00 -0.00000000000E+00 -0.49343587303E+02  0.49343587303E+02  0.00000000000E+00 0.  1.
         23    2    1    2    0    0  0.93128551227E+02  0.25387380929E+02  0.14730390742E+03  0.19727573809E+03  0.88892235502E+02 0.  0.
         23    2    1    2    0    0 -0.93128551227E+02 -0.25387380929E+02  0.23186964209E+03  0.28058498603E+03  0.12508779836E+03 0.  0.
          5    1    4    4  502    0 -0.72122973852E+01  0.29701921660E+02  0.43075744302E+01  0.31148819902E+02  0.41800000000E+01 0.  1.
         -5    1    4    4    0  502 -0.85916253842E+02 -0.55089302588E+02  0.22756206766E+03  0.24943616613E+03  0.41800000000E+01 0.  1.
        -11    1    3    3    0    0  0.69770967879E+02 -0.16595986622E+02  0.46125122060E+02  0.85269816558E+02  0.00000000000E+00 0.  1.
         11    1    3    3    0    0  0.23357583348E+02  0.41983367551E+02  0.10117878536E+03  0.11200592153E+03  0.00000000000E+00 0. -1.
</event>
<event>
 8    1  0.5900800E-006  0.1288804E+03  0.7561462E-02  0.1229127E+00
          2   -1    0    0  501    0  0.00000000000E+00  0.00000000000E+00  0.97703895583E+02  0.97703895583E+02  0.00000000000E+00 0. -1.
         -2   -1    0    0    0  501 -0.00000000000E+00 -0.00000000000E+00 -0.24052384437E+03  0.24052384437E+03  0.00000000000E+00 0.  1.
         23    2    1    2    0    0  0.10030390678E+03 -0.10044536479E+02 -0.11131470769E+03  0.17451578996E+03  0.88898989687E+02 0.  0.
         23    2    1    2    0    0 -0.10030390678E+03  0.10044536479E+02 -0.31505241093E+02  0.16371194999E+03  0.12508899203E+03 0.  0.
          5    1    4    4  502    0 -0.64068312126E+02  0.63418043478E+02  0.32730534011E+01  0.90303832343E+02  0.41800000000E+01 0.  1.
         -5    1    4    4    0  502 -0.36235594653E+02 -0.53373506999E+02 -0.34778294494E+02  0.73408117652E+02  0.41800000000E+01 0.  1.
        -11    1    3    3    0    0  0.22980319405E+02 -0.11139921165E+02 -0.91063571931E+02  0.94576778631E+02  0.00000000000E+00 0. -1.
         11    1    3    3    0    0  0.77323587374E+02  0.10953846862E+01 -0.20251135761E+02  0.79939011325E+02  0.00000000000E+00 0.  1.
</event>
<event>
 8    1  0.5900800E-006  0.1303089E+03  0.7561462E-02  0.1226998E+00
          2   -1    0    0  501    0  0.00000000000E+00  0.00000000000E+00  0.20391066466E+03  0.20391066466E+03  0.00000000000E+00 0. -1.
         -2   -1    0    0    0  501 -0.00000000000E+00 -0.00000000000E+00 -0.90377479840E+02  0.90377479840E+02  0.00000000000E+00 0.  1.
         23    2    1    2    0    0  0.63918845072E+02 -0.36647219764E+02  0.18276789203E+02  0.12433195150E+03  0.98467028334E+02 0.  0.
         23    2    1    2    0    0 -0.63918845072E+02  0.36647219764E+02  0.95256395617E+02  0.16995619300E+03  0.11992784981E+03 0.  0.
          5    1    4    4  502    0 -0.56938726732E+02  0.78454956062E+02  0.75817087587E+02  0.12313773549E+03  0.41800000000E+01 0. -1.
         -5    1    4    4    0  502 -0.69801183404E+01 -0.41807736298E+02  0.19439308030E+02  0.46818457505E+02  0.41800000000E+01 0.  1.
        -11    1    3    3    0    0 -0.97123002767E+01  0.23816778468E+02 -0.51200675137E+01  0.26225613522E+02  0.00000000000E+00 0. -1.
         11    1    3    3    0    0  0.73631145349E+02 -0.60463998232E+02  0.23396856717E+02  0.98106337980E+02  0.00000000000E+00 0.  1.
</event>
<event>
 8    1  0.5900800E-006  0.2701291E+03  0.7561462E-02  0.1101206E+00
          2   -1    0    0  501    0  0.00000000000E+00  0.00000000000E+00  0.23111736309E+04  0.23111736309E+04  0.00000000000E+00 0. -1.
         -2   -1    0    0    0  501 -0.00000000000E+00 -0.00000000000E+00 -0.43359401929E+02  0.43359401929E+02  0.00000000000E+00 0.  1.
         23    2    1    2    0    0  0.13152711537E+03  0.22416110362E+03  0.60881833822E+03  0.67064980543E+03  0.10753515762E+03 0.  0.
         23    2    1    2    0    0 -0.13152711537E+03 -0.22416110362E+03  0.16589958907E+04  0.16838832274E+04  0.12509106892E+03 0.  0.
          5    1    4    4  502    0 -0.11523152585E+03 -0.17062256365E+03  0.92030638265E+03  0.94306504236E+03  0.41800000000E+01 0.  1.
         -5    1    4    4    0  502 -0.16295589512E+02 -0.53538539968E+02  0.73868950810E+03  0.74081818503E+03  0.41800000000E+01 0.  1.
        -11    1    3    3    0    0 -0.14058478642E+02  0.46150288784E+02  0.72225552640E+02  0.86856320614E+02  0.00000000000E+00 0. -1.
         11    1    3    3    0    0  0.14558559401E+03  0.17801081483E+03  0.53659278558E+03  0.58379348482E+03  0.00000000000E+00 0.  1.
</event>
<event>
 8    1  0.5900800E-006  0.8157259E+02  0.7561462E-02  0.1324647E+00
          2   -1    0    0  501    0  0.00000000000E+00  0.00000000000E+00  0.26753954564E+03  0.26753954564E+03  0.00000000000E+00 0.  1.
         -2   -1    0    0    0  501 -0.00000000000E+00 -0.00000000000E+00 -0.54531940995E+02  0.54531940995E+02  0.00000000000E+00 0. -1.
         23    2    1    2    0    0 -0.89158344290E+01  0.45089867839E+02  0.65882835379E+02  0.12356630260E+03  0.93890866729E+02 0.  0.
         23    2    1    2    0    0  0.89158344290E+01 -0.45089867839E+02  0.14712476927E+03  0.19850518404E+03  0.12508406003E+03 0.  0.
          5    1    4    4  502    0  0.34670623093E+01 -0.73637855555E+02  0.33381288912E+02  0.81032938619E+02  0.41800000000E+01 0. -1.
         -5    1    4    4    0  502  0.54487721197E+01  0.28547987716E+02  0.11374348035E+03  0.11747224542E+03  0.41800000000E+01 0. -1.
        -11    1    3    3    0    0  0.14143761264E+02  0.79396487165E+01  0.76803954021E+02  0.78497970405E+02  0.00000000000E+00 0.  1.
         11    1    3    3    0    0 -0.23059595693E+02  0.37150219122E+02 -0.10921118642E+02  0.45068332194E+02  0.00000000000E+00 0. -1.
</event>
<event>
 8    1  0.5900800E-006  0.8200641E+02  0.7561462E-02  0.1323452E+00
         -1   -1    0    0    0  501 -0.00000000000E+00  0.00000000000E+00  0.73623196120E+02  0.73623196120E+02  0.00000000000E+00 0.  1.
          1   -1    0    0  501    0  0.00000000000E+00 -0.00000000000E+00 -0.23158158382E+03  0.23158158382E+03  0.00000000000E+00 0. -1.
         23    2    1    2    0    0  0.34619675986E+02  0.37795401129E+02 -0.71172606248E+01  0.10265214306E+03  0.88655472273E+02 0.  0.
         23    2    1    2    0    0 -0.34619675986E+02 -0.37795401129E+02 -0.15084112707E+03  0.20255263688E+03  0.12509001070E+03 0.  0.
          5    1    4    4  502    0 -0.53187465583E+02  0.30355994160E+01 -0.95896004075E+01  0.54291382326E+02  0.41800000000E+01 0. -1.
         -5    1    4    4    0  502  0.18567789597E+02 -0.40831000545E+02 -0.14125152667E+03  0.14826125455E+03  0.41800000000E+01 0. -1.
        -11    1    3    3    0    0 -0.76094410428E+01  0.16633309649E+02  0.34919873010E+02  0.39420402255E+02  0.00000000000E+00 0.  1.
         11    1    3    3    0    0  0.42229117028E+02  0.21162091480E+02 -0.42037133635E+02  0.63231740804E+02  0.00000000000E+00 0. -1.
</event>
<event>
 8    1  0.5900800E-006  0.1178394E+03  0.7561462E-02  0.1246704E+00
         -2   -1    0    0    0  501 -0.00000000000E+00  0.00000000000E+00  0.21389428977E+02  0.21389428977E+02  0.00000000000E+00 0. -1.
          2   -1    0    0  501    0  0.00000000000E+00 -0.00000000000E+00 -0.79615986162E+03  0.79615986162E+03  0.00000000000E+00 0.  1.
         23    2    1    2    0    0  0.58621638274E+02  0.38703151232E+02 -0.29168590626E+03  0.31361153206E+03  0.91307692656E+02 0.  0.
         23    2    1    2    0    0 -0.58621638274E+02 -0.38703151232E+02 -0.48308452637E+03  0.50393775853E+03  0.12509266351E+03 0.  0.
          5    1    4    4  502    0 -0.70269214937E+01 -0.76291675058E+02 -0.31165055738E+03  0.32095691241E+03  0.41800000000E+01 0. -1.
         -5    1    4    4    0  502 -0.51594716780E+02  0.37588523826E+02 -0.17143396900E+03  0.18298084613E+03  0.41800000000E+01 0. -1.
        -11    1    3    3    0    0  0.46066782839E+02  0.56687555307E+02 -0.27871964999E+03  0.28813238398E+03  0.00000000000E+00 0.  1.
         11    1    3    3    0    0  0.12554855435E+02 -0.17984404075E+02 -0.12966256270E+02  0.25479148074E+02  0.00000000000E+00 0. -1.
</event>
<event>
 8    1  0.5900800E-006  0.1138649E+03  0.7561462E-02  0.1253576E+00
         -2   -1    0    0    0  501 -0.00000000000E+00  0.00000000000E+00  0.13815543494E+02  0.13815543494E+02  0.00000000000E+00 0.  1.
          2   -1    0    0  501    0  0.00000000000E+00 -0.00000000000E+00 -0.14708126118E+04  0.14708126118E+04  0.00000000000E+00 0. -1.
         23    2    1    2    0    0  0.32687103295E+02 -0.61796981653E+02 -0.35862642713E+03  0.37694882418E+03  0.92683267892E+02 0.  0.
         23    2    1    2    0    0 -0.32687103295E+02  0.61796981653E+02 -0.10983706411E+04  0.11076793311E+04  0.12509245193E+03 0.  0.
          5    1    4    4  502    0  0.36945826746E+02  0.88386922957E+01 -0.63210059462E+03  0.63325488606E+03  0.41800000000E+01 0.  1.
         -5    1    4    4    0  502 -0.69632930042E+02  0.52958289357E+02 -0.46627004652E+03  0.47442444502E+03  0.41800000000E+01 0.  1.
        -11    1    3    3    0    0 -0.22263597010E+02 -0.48359427259E+01 -0.24007014700E+02  0.33096689391E+02  0.00000000000E+00 0. -1.
         11    1    3    3    0    0  0.54950700305E+02 -0.56961038927E+02 -0.33461941243E+03  0.34385213478E+03  0.00000000000E+00 0.  1.
</event>
<event>
 8    1  0.5900800E-006  0.1602889E+03  0.7561462E-02  0.1188371E+00
         -2   -1    0    0    0  501 -0.00000000000E+00  0.00000000000E+00  0.33577026819E+02  0.33577026819E+02  0.00000000000E+00 0.  1.
          2   -1    0    0  501    0  0.00000000000E+00 -0.00000000000E+00 -0.91250674995E+03  0.91250674995E+03  0.00000000000E+00 0. -1.
         23    2    1    2    0    0  0.63350942740E+02 -0.11461255496E+03 -0.30310490862E+03  0.34245218833E+03  0.90837965422E+02 0.  0.
         23    2    1    2    0    0 -0.63350942740E+02  0.11461255496E+03 -0.57582481451E+03  0.60363158844E+03  0.12508995905E+03 0.  0.
          5    1    4    4  502    0 -0.56817552501E+02  0.13315113209E+03 -0.37810191841E+03  0.40489009787E+03  0.41800000000E+01 0.  1.
         -5    1    4    4    0  502 -0.65333902383E+01 -0.18538577132E+02 -0.19772289610E+03  0.19874149056E+03  0.41800000000E+01 0.  1.
        -11    1    3    3    0    0  0.18554943269E+02 -0.10893105155E+03 -0.24579157431E+03  0.26948795504E+03  0.00000000000E+00 0. -1.
         11    1    3    3    0    0  0.44795999470E+02 -0.56815034131E+01 -0.57313334311E+02  0.72964233289E+02  0.00000000000E+00 0.  1.
</event>
<event>
 8    1  0.5900800E-006  0.1108919E+03  0.7561462E-02  0.1258927E+00
         -2   -1    0    0    0  501 -0.00000000000E+00  0.00000000000E+00  0.39513261862E+03  0.39513261862E+03  0.00000000000E+00 0. -1.
          2   -1    0    0  501    0  0.00000000000E+00 -0.00000000000E+00 -0.33618337809E+02  0.33618337809E+02  0.00000000000E+00 0.  1.
         23    2    1    2    0    0  0.88263162872E+01  0.33271946275E+02  0.18912609264E+03  0.21299852163E+03  0.91732028389E+02 0.  0.
         23    2    1    2    0    0 -0.88263162872E+01 -0.33271946275E+02  0.17238818817E+03  0.21575243480E+03  0.12508596817E+03 0.  0.
          5    1    4    4  502    0  0.94556179258E+01 -0.76604363648E+02  0.75907471713E+02  0.10833768459E+03  0.41800000000E+01 0. -1.
         -5    1    4    4    0  502 -0.18281934213E+02  0.43332417373E+02  0.96480716460E+02  0.10741475021E+03  0.41800000000E+01 0. -1.
        -11    1    3    3    0    0  0.23159664930E+02 -0.26851864089E+02  0.81639261592E+02  0.89007649772E+02  0.00000000000E+00 0.  1.
         11    1    3    3    0    0 -0.14333348643E+02  0.60123810364E+02  0.10748683104E+03  0.12399087186E+03  0.00000000000E+00 0. -1.
</event>
<event>
 8    1  0.5900800E-006  0.9920585E+02  0.7561462E-02  0.1281975E+00
         -1   -1    0    0    0  501 -0.00000000000E+00  0.00000000000E+00  0.21741419906E+02  0.21741419906E+02  0.00000000000E+00 0.  1.
          1   -1    0    0  501    0  0.00000000000E+00 -0.00000000000E+00 -0.65742433736E+03  0.65742433736E+03  0.00000000000E+00 0. -1.
         23    2    1    2    0    0  0.15141301347E+02  0.97188706127E+00 -0.13934786296E+03  0.16708511622E+03  0.90936272083E+02 0.  0.
         23    2    1    2    0    0 -0.15141301347E+02 -0.97188706127E+00 -0.49633505450E+03  0.51208064105E+03  0.12509153865E+03 0.  0.
          5    1    4    4  502    0  0.43153451659E+02 -0.28580558968E+02 -0.32176505279E+03  0.32592835155E+03  0.41800000000E+01 0. -1.
         -5    1    4    4    0  502 -0.58294753006E+02  0.27608671907E+02 -0.17457000171E+03  0.18615228951E+03  0.41800000000E+01 0. -1.
        -11    1    3    3    0    0  0.47296045219E+02 -0.90739691330E+01 -0.41405337783E+02  0.63511060502E+02  0.00000000000E+00 0.  1.
         11    1    3    3    0    0 -0.32154743872E+02  0.10045856194E+02 -0.97942525173E+02  0.10357405572E+03  0.00000000000E+00 0. -1.
</event>
<event>
 8    1  0.5900800E-006  0.1220249E+03  0.7561462E-02  0.1239794E+00
         -2   -1    0    0    0  501 -0.00000000000E+00  0.00000000000E+00  0.30590827962E+02  0.30590827962E+02  0.00000000000E+00 0.  1.
          2   -1    0    0  501    0  0.00000000000E+00 -0.00000000000E+00 -0.73010451871E+03  0.73010451871E+03  0.00000000000E+00 0. -1.
         23    2    1    2    0    0  0.14275131220E+02 -0.99919846229E+02 -0.27457582694E+03  0.30637471813E+03  0.91026524307E+02 0.  0.
         23    2    1    2    0    0 -0.14275131220E+02  0.99919846229E+02 -0.42493786381E+03  0.45432062854E+03  0.12508912974E+03 0.  0.
          5    1    4    4  502    0 -0.35563788280E+02  0.84153738646E+02 -0.13450460528E+03  0.16265176299E+03  0.41800000000E+01 0.  1.
         -5    1    4    4    0  502  0.21288657060E+02  0.15766107583E+02 -0.29043325853E+03  0.29166886555E+03  0.41800000000E+01 0.  1.
        -11    1    3    3    0    0  0.42393656325E+02 -0.34812365482E+02 -0.64615068983E+02  0.84759837345E+02  0.00000000000E+00 0.  1.
         11    1    3    3    0    0 -0.28118525105E+02 -0.65107480747E+02 -0.20996075796E+03  0.22161488079E+03  0.00000000000E+00 0. -1.
</event>
<event>
 8    1  0.6438269E-006  0.1695609E+03  0.7561462E-02  0.1178307E+00
          2   -1    0    0  501    0  0.00000000000E+00  0.00000000000E+00  0.47385566338E+03  0.47385566338E+03  0.00000000000E+00 0. -1.
         -2   -1    0    0    0  501 -0.00000000000E+00 -0.00000000000E+00 -0.64937385309E+02  0.64937385309E+02  0.00000000000E+00 0.  1.
         23    2    1    2    0    0 -0.17990761297E+02  0.13644713875E+03  0.16571158655E+03  0.23262538654E+03  0.87822271553E+02 0.  0.
         23    2    1    2    0    0  0.17990761297E+02 -0.13644713875E+03  0.24320669153E+03  0.30616766215E+03  0.12509058069E+03 0.  0.
          5    1    4    4  502    0  0.64024448568E+02 -0.69438824904E+02  0.80250678443E+02  0.12401017784E+03  0.41800000000E+01 0. -1.
         -5    1    4    4    0  502 -0.46033687271E+02 -0.67008313850E+02  0.16295601308E+03  0.18215748431E+03  0.41800000000E+01 0. -1.
        -11    1    3    3    0    0 -0.43347253158E+02  0.12996404224E+03  0.14185689095E+03  0.19721311858E+03  0.00000000000E+00 0.  1.
         11    1    3    3    0    0  0.25356491861E+02  0.64830965189E+01  0.23854695592E+02  0.35412267955E+02  0.00000000000E+00 0. -1.
</event>
<event>
 8    1  0.5900800E-006  0.1024011E+03  0.7561462E-02  0.1275326E+00
         -1   -1    0    0    0  501 -0.00000000000E+00  0.00000000000E+00  0.75799544663E+02  0.75799544663E+02  0.00000000000E+00 0.  1.
          1   -1    0    0  501    0  0.00000000000E+00 -0.00000000000E+00 -0.19339986670E+03  0.19339986670E+03  0.00000000000E+00 0. -1.
         23    2    1    2    0    0  0.20797330107E+02 -0.41979602165E+02 -0.25264442423E+02  0.10681600577E+03  0.92609670663E+02 0.  0.
         23    2    1    2    0    0 -0.20797330107E+02  0.41979602165E+02 -0.92335879612E+02  0.16238340559E+03  0.12509052646E+03 0.  0.
          5    1    4    4  502    0  0.51315639032E+02  0.32034347303E+02 -0.40450475910E+02  0.72891752742E+02  0.41800000000E+01 0. -1.
         -5    1    4    4    0  502 -0.72112969139E+02  0.99452548613E+01 -0.51885403702E+02  0.89491652849E+02  0.41800000000E+01 0. -1.
        -11    1    3    3    0    0 -0.15142138563E+02  0.10573924825E+01 -0.44908653106E+02  0.47404531038E+02  0.00000000000E+00 0. -1.
         11    1    3    3    0    0  0.35939468670E+02 -0.43036994647E+02  0.19644210683E+02  0.59411474732E+02  0.00000000000E+00 0.  1.
</event>
<event>
 8    1  0.5900800E-006  0.9089330E+02  0.7561462E-02  0.1300703E+00
          1   -1    0    0  501    0  0.00000000000E+00  0.00000000000E+00  0.43273974907E+02  0.43273974907E+02  0.00000000000E+00 0. -1.
         -1   -1    0    0    0  501 -0.00000000000E+00 -0.00000000000E+00 -0.28202613822E+03  0.28202613822E+03  0.00000000000E+00 0.  1.
         23    2    1    2    0    0 -0.20160151726E+02  0.29951884149E+01 -0.11897991785E+03  0.15095229558E+03  0.90636481703E+02 0.  0.
         23    2    1    2    0    0  0.20160151726E+02 -0.29951884149E+01 -0.11977224546E+03  0.17434781755E+03  0.12504546306E+03 0.  0.
          5    1    4    4  502    0  0.24553463211E+02  0.39416453683E+02  0.54598317492E+00  0.46629388525E+02  0.41800000000E+01 0.  1.
         -5    1    4    4    0  502 -0.43933114843E+01 -0.42411642098E+02 -0.12031822863E+03  0.12771842902E+03  0.41800000000E+01 0.  1.
        -11    1    3    3    0    0 -0.38774943957E+01  0.46088088610E+02 -0.68045361168E+02  0.82275865544E+02  0.00000000000E+00 0.  1.
         11    1    3    3    0    0 -0.16282657331E+02 -0.43092900195E+02 -0.50934556687E+02  0.68676430032E+02  0.00000000000E+00 0. -1.
</event>
<event>
 8    1  0.5900800E-006  0.1042249E+03  0.7561462E-02  0.1271654E+00
          1   -1    0    0  501    0  0.00000000000E+00  0.00000000000E+00  0.14959492350E+03  0.14959492350E+03  0.00000000000E+00 0. -1.
         -1   -1    0    0    0  501 -0.00000000000E+00 -0.00000000000E+00 -0.13054098764E+03  0.13054098764E+03  0.00000000000E+00 0.  1.
         23    2    1    2    0    0  0.45794922165E+02  0.43051819130E+02 -0.51890643055E+02  0.12319263673E+03  0.92375066334E+02 0.  0.
         23    2    1    2    0    0 -0.45794922165E+02 -0.43051819130E+02  0.70944578922E+02  0.15694327442E+03  0.12508966416E+03 0.  0.
          5    1    4    4  502    0 -0.67105714696E+02 -0.55025940353E+02  0.90430724216E+02  0.12540422377E+03  0.41800000000E+01 0. -1.
         -5    1    4    4    0  502  0.21310792532E+02  0.11974121223E+02 -0.19486145294E+02  0.31539050649E+02  0.41800000000E+01 0. -1.
        -11    1    3    3    0    0  0.63815577141E+02  0.45785837975E+02 -0.12155605661E+02  0.79476597775E+02  0.00000000000E+00 0. -1.
         11    1    3    3    0    0 -0.18020654977E+02 -0.27340188447E+01 -0.39735037394E+02  0.43716038950E+02  0.00000000000E+00 0.  1.
</event>
<event>
 8    1  0.5900800E-006  0.1155936E+03  0.7561462E-02  0.1250548E+00
         -2   -1    0    0    0  501 -0.00000000000E+00  0.00000000000E+00  0.19904222938E+02  0.19904222938E+02  0.00000000000E+00 0.  1.
          2   -1    0    0  501    0  0.00000000000E+00 -0.00000000000E+00 -0.83513128781E+03  0.83513128781E+03  0.00000000000E+00 0. -1.
         23    2    1    2    0    0  0.35437974289E+02 -0.58663062156E+02 -0.34966147609E+03  0.36811060567E+03  0.92439522204E+02 0.  0.
         23    2    1    2    0    0 -0.35437974289E+02  0.58663062156E+02 -0.46556558878E+03  0.48692490507E+03  0.12508933144E+03 0.  0.
          5    1    4    4  502    0 -0.71021206343E+02  0.99399363704E+01 -0.15933730236E+03  0.17478175651E+03  0.41800000000E+01 0. -1.
         -5    1    4    4    0  502  0.35583232054E+02  0.48723125786E+02 -0.30622828643E+03  0.31214314857E+03  0.41800000000E+01 0. -1.
        -11    1    3    3    0    0  0.36418106529E+02  0.36070541679E+01 -0.49515811700E+02  0.61571949224E+02  0.00000000000E+00 0.  1.
         11    1    3    3    0    0 -0.98013224036E+00 -0.62270116324E+02 -0.30014566439E+03  0.30653865645E+03  0.00000000000E+00 0. -1.
</event>
<event>
 8    1  0.5900800E-006  0.1085071E+03  0.7561462E-02  0.1263360E+00
          1   -1    0    0  501    0  0.00000000000E+00  0.00000000000E+00  0.56869597621E+03  0.56869597621E+03  0.00000000000E+00 0. -1.
         -1   -1    0    0    0  501 -0.00000000000E+00 -0.00000000000E+00 -0.26088890351E+02  0.26088890351E+02  0.00000000000E+00 0.  1.
         23    2    1    2    0    0 -0.20822830347E+02 -0.24989119606E+02  0.12865623801E+03  0.16112344285E+03  0.91379920640E+02 0.  0.
         23    2    1    2    0    0  0.20822830347E+02  0.24989119606E+02  0.41395084785E+03  0.43366142371E+03  0.12509548198E+03 0.  0.
          5    1    4    4  502    0 -0.48127034501E+02  0.10813158873E+02  0.25515229596E+03  0.25991018138E+03  0.41800000000E+01 0. -1.
         -5    1    4    4    0  502  0.68949864849E+02  0.14175960733E+02  0.15879855190E+03  0.17375124233E+03  0.41800000000E+01 0. -1.
        -11    1    3    3    0    0  0.36095332456E+02 -0.39436855888E+01  0.47648011714E+02  0.59906249268E+02  0.00000000000E+00 0. -1.
         11    1    3    3    0    0 -0.56918162804E+02 -0.21045434017E+02  0.81008226296E+02  0.10121719359E+03  0.00000000000E+00 0.  1.
</event>
<event>
 7    1  0.5900800E-006  0.1263723E+03  0.7561462E-02  0.1232940E+00
         -2   -1    0    0    0  501 -0.00000000000E+00  0.00000000000E+00  0.18782976721E+02  0.18782976721E+02  0.00000000000E+00 0.  1.
          2   -1    0    0  501    0  0.00000000000E+00 -0.00000000000E+00 -0.12139875895E+04  0.12139875895E+04  0.00000000000E+00 0. -1.
         23    2    1    2    0    0 -0.94380880033E+01  0.18283086831E+02 -0.28733640867E+03  0.30176865157E+03  0.89881914499E+02 0.  0.
          5    1    1    2  502    0  0.10712347327E+02  0.75784360103E+02 -0.68193420182E+03  0.68622864385E+03  0.41800000000E+01 0. -1.
         -5    1    1    2    0  502 -0.12742593237E+01 -0.94067446933E+02 -0.22593400224E+03  0.24477327076E+03  0.41800000000E+01 0.  1.
        -11    1    3    3    0    0  0.11136114520E+02 -0.28618135259E+02 -0.18278848751E+03  0.18535005227E+03  0.00000000000E+00 0. -1.
         11    1    3    3    0    0 -0.20574202523E+02  0.46901222089E+02 -0.10454792116E+03  0.11641859930E+03  0.00000000000E+00 0.  1.
</event>
<event>
 7    1  0.5900800E-006  0.1192761E+03  0.7561462E-02  0.1244296E+00
          1   -1    0    0  501    0  0.00000000000E+00  0.00000000000E+00  0.52151076724E+03  0.52151076724E+03  0.00000000000E+00 0. -1.
         -1   -1    0    0    0  501 -0.00000000000E+00 -0.00000000000E+00 -0.42569592143E+02  0.42569592143E+02  0.00000000000E+00 0.  1.
         23    2    1    2    0    0 -0.80234162850E+02  0.46735053358E+02  0.15853663070E+03  0.20488119860E+03  0.90668385697E+02 0.  0.
          5    1    1    2  502    0  0.91276033998E+02 -0.67674060979E+02  0.31453310173E+03  0.33445423812E+03  0.41800000000E+01 0. -1.
         -5    1    1    2    0  502 -0.11041871148E+02  0.20939007621E+02  0.58714426633E+01  0.24744922662E+02  0.41800000000E+01 0.  1.
        -11    1    3    3    0    0 -0.54997390481E+02  0.94748187891E+01  0.20105368752E+02  0.59318723886E+02  0.00000000000E+00 0.  1.
         11    1    3    3    0    0 -0.25236772369E+02  0.37260234569E+02  0.13843126195E+03  0.14556247472E+03  0.00000000000E+00 0. -1.
</event>
<event>
 8    1  0.5900800E-006  0.7233779E+02  0.7561462E-02  0.1352319E+00
         -2   -1    0    0    0  501 -0.00000000000E+00  0.00000000000E+00  0.85330216908E+03  0.85330216908E+03  0.00000000000E+00 0.  1.
          2   -1    0    0  501    0  0.00000000000E+00 -0.00000000000E+00 -0.16562918012E+02  0.16562918012E+02  0.00000000000E+00 0. -1.
         23    2    1    2    0    0  0.42427075472E+02 -0.27132016130E+02  0.42084316727E+03  0.43265439930E+03  0.86859972155E+02 0.  0.
         23    2    1    2    0    0 -0.42427075472E+02  0.27132016130E+02  0.41589608380E+03  0.43721068779E+03  0.12508968770E+03 0.  0.
          5    1    4    4  502    0 -0.27310988114E+02  0.12252839723E+02  0.11657302801E+02  0.32394247354E+02  0.41800000000E+01 0. -1.
         -5    1    4    4    0  502 -0.15116087359E+02  0.14879176407E+02  0.40423878099E+03  0.40481644044E+03  0.41800000000E+01 0. -1.
        -11    1    3    3    0    0  0.59158156568E+02  0.20514594776E+01  0.33963311983E+03  0.34475288550E+03  0.00000000000E+00 0.  1.
         11    1    3    3    0    0 -0.16731081095E+02 -0.29183475608E+02  0.81210047442E+02  0.87901513802E+02  0.00000000000E+00 0. -1.
</event>
<event>
 8    1  0.5900800E-006  0.1392202E+03  0.7561462E-02  0.1214382E+00
         -2   -1    0    0    0  501 -0.00000000000E+00  0.00000000000E+00  0.11495294378E+03  0.11495294378E+03  0.00000000000E+00 0.  1.
          2   -1    0    0  501    0  0.00000000000E+00 -0.00000000000E+00 -0.21275186068E+03  0.21275186068E+03  0.00000000000E+00 0. -1.
         23    2    1    2    0    0  0.68880679811E+02  0.89461500005E+02 -0.40201380915E+02  0.14962442482E+03  0.89573486259E+02 0.  0.
         23    2    1    2    0    0 -0.68880679811E+02 -0.89461500005E+02 -0.57597535987E+02  0.17808037965E+03  0.12508891809E+03 0.  0.
          5    1    4    4  502    0 -0.85726353582E+02 -0.25621154410E+02 -0.66181173309E+02  0.11136817926E+03  0.41800000000E+01 0. -1.
         -5    1    4    4    0  502  0.16845673771E+02 -0.63840345595E+02  0.85836373219E+01  0.66712200385E+02  0.41800000000E+01 0. -1.
        -11    1    3    3    0    0  0.71543864741E+02  0.60691116804E+02 -0.62839079427E+02  0.11291893616E+03  0.00000000000E+00 0. -1.
         11    1    3    3    0    0 -0.26631849300E+01  0.28770383201E+02  0.22637698513E+02  0.36705488655E+02  0.00000000000E+00 0.  1.
</event>
<event>
 8    1  0.5900800E-006  0.2400163E+03  0.7561462E-02  0.1119782E+00
          1   -1    0    0  501    0  0.00000000000E+00  0.00000000000E+00  0.17833097372E+04  0.17833097372E+04  0.00000000000E+00 0. -1.
         -1   -1    0    0    0  501 -0.00000000000E+00 -0.00000000000E+00 -0.61287872224E+02  0.61287872224E+02  0.00000000000E+00 0.  1.
         23    2    1    2    0    0  0.22610969523E+03 -0.35841988994E+02  0.25578834696E+03  0.35533426676E+03  0.91785185301E+02 0.  0.
         23    2    1    2    0    0 -0.22610969523E+03  0.35841988994E+02  0.14662335181E+04  0.14892633427E+04  0.12511727297E+03 0.  0.
          5    1    4    4  502    0 -0.13721259255E+03 -0.20393372648E+02  0.10821790375E+04  0.10910417622E+04  0.41800000000E+01 0. -1.
         -5    1    4    4    0  502 -0.88897102682E+02  0.56235361642E+02  0.38405448056E+03  0.39822158053E+03  0.41800000000E+01 0. -1.
        -11    1    3    3    0    0  0.55415186547E+02 -0.34498427992E+02  0.12232759123E+03  0.13865433282E+03  0.00000000000E+00 0.  1.
         11    1    3    3    0    0  0.17069450869E+03 -0.13435610019E+01  0.13346075572E+03  0.21667993393E+03  0.00000000000E+00 0. -1.
</event>
<event>
 8    1  0.5900800E-006  0.1413426E+03  0.7561462E-02  0.1211534E+00
         -2   -1    0    0    0  501 -0.00000000000E+00  0.00000000000E+00  0.25608428447E+02  0.25608428447E+02  0.00000000000E+00 0.  1.
          2   -1    0    0  501    0  0.00000000000E+00 -0.00000000000E+00 -0.91534314046E+03  0.91534314046E+03  0.00000000000E+00 0. -1.
         23    2    1    2    0    0  0.36688112608E+01 -0.10725267541E+03 -0.40606557291E+03  0.42997288678E+03  0.92037151785E+02 0.  0.
         23    2    1    2    0    0 -0.36688112608E+01  0.10725267541E+03 -0.48366913911E+03  0.51097868213E+03  0.12508709327E+03 0.  0.
          5    1    4    4  502    0 -0.24859179562E+02 -0.11351422830E+02 -0.26919016153E+02  0.38586778038E+02  0.41800000000E+01 0. -1.
         -5    1    4    4    0  502  0.21190368301E+02  0.11860409824E+03 -0.45675012296E+03  0.47239190409E+03  0.41800000000E+01 0. -1.
        -11    1    3    3    0    0  0.42258990858E+02 -0.50408093761E+02 -0.26532761196E+03  0.27335972618E+03  0.00000000000E+00 0.  1.
         11    1    3    3    0    0 -0.38590179597E+02 -0.56844581651E+02 -0.14073796094E+03  0.15661316060E+03  0.00000000000E+00 0. -1.
</event>
<event>
 7    1  0.5900800E-006  0.1996851E+03  0.7561462E-02  0.1150005E+00
          2   -1    0    0  501    0  0.00000000000E+00  0.00000000000E+00  0.17768269250E+04  0.17768269250E+04  0.00000000000E+00 0. -1.
         -2   -1    0    0    0  501 -0.00000000000E+00 -0.00000000000E+00 -0.54832077735E+02  0.54832077735E+02  0.00000000000E+00 0.  1.
         23    2    1    2    0    0  0.57674141929E+02 -0.16978405569E+02  0.27416635414E+02  0.10992670345E+03  0.87850073033E+02 0.  0.
          5    1    1    2  502    0  0.93124122801E+02  0.95870021965E+02  0.80033583116E+03  0.81142965092E+03  0.41800000000E+01 0. -1.
         -5    1    1    2    0  502 -0.15079826473E+03 -0.78891616396E+02  0.89424238073E+03  0.91030264839E+03  0.41800000000E+01 0.  1.
        -11    1    3    3    0    0  0.47940643354E+02  0.23775250073E+02 -0.91808773019E+01  0.54294164596E+02  0.00000000000E+00 0.  1.
         11    1    3    3    0    0  0.97334985754E+01 -0.40753655642E+02  0.36597512716E+02  0.55632538857E+02  0.00000000000E+00 0. -1.
</event>
<event>
 8    1  0.5900800E-006  0.9883320E+02  0.7561462E-02  0.1282769E+00
         -2   -1    0    0    0  501 -0.00000000000E+00  0.00000000000E+00  0.17944614036E+03  0.17944614036E+03  0.00000000000E+00 0.  1.
          2   -1    0    0  501    0  0.00000000000E+00 -0.00000000000E+00 -0.11453482719E+03  0.11453482719E+03  0.00000000000E+00 0. -1.
         23    2    1    2    0    0 -0.50064847147E+02 -0.12571206425E+02  0.11822327776E+03  0.15807269681E+03  0.91354857126E+02 0.  0.
         23    2    1    2    0    0  0.50064847147E+02  0.12571206425E+02 -0.53311964591E+02  0.13590827075E+03  0.11386118012E+03 0.  0.
          5    1    4    4  502    0  0.41383443815E+02 -0.43492935022E+02 -0.51149964706E+02  0.78981112352E+02  0.41800000000E+01 0. -1.
         -5    1    4    4    0  502  0.86814033313E+01  0.56064141447E+02 -0.21619998844E+01  0.56927158400E+02  0.41800000000E+01 0.  1.
        -11    1    3    3    0    0 -0.64292417112E+02 -0.15359250485E+02  0.37378005175E+02  0.75937716218E+02  0.00000000000E+00 0.  1.
         11    1    3    3    0    0  0.14227569965E+02  0.27880440599E+01  0.80845272585E+02  0.82134980588E+02  0.00000000000E+00 0. -1.
</event>
<event>
 8    1  0.5900800E-006  0.1465176E+03  0.7561462E-02  0.1204819E+00
         -1   -1    0    0    0  501 -0.00000000000E+00  0.00000000000E+00  0.98316818990E+03  0.98316818990E+03  0.00000000000E+00 0.  1.
          1   -1    0    0  501    0  0.00000000000E+00 -0.00000000000E+00 -0.28268236384E+02  0.28268236384E+02  0.00000000000E+00 0. -1.
         23    2    1    2    0    0  0.98277156765E+02  0.55762491672E+02  0.64247680302E+03  0.65643348337E+03  0.73216259472E+02 0.  0.
         23    2    1    2    0    0 -0.98277156765E+02 -0.55762491672E+02  0.31242315050E+03  0.35500294292E+03  0.12510399471E+03 0.  0.
          5    1    4    4  502    0 -0.64839910225E+02 -0.89632158338E+02  0.26716296285E+03  0.28919138799E+03  0.41800000000E+01 0. -1.
         -5    1    4    4    0  502 -0.33437246541E+02  0.33869666666E+02  0.45260187647E+02  0.65811554929E+02  0.41800000000E+01 0. -1.
        -11    1    3    3    0    0  0.38725961045E+02  0.63625899701E+02  0.34372694164E+03  0.35170465675E+03  0.00000000000E+00 0. -1.
         11    1    3    3    0    0  0.59551195720E+02 -0.78634080296E+01  0.29874986138E+03  0.30472882662E+03  0.00000000000E+00 0.  1.
</event>
<event>
 8    1  0.5900800E-006  0.1197271E+03  0.7561462E-02  0.1243548E+00
          2   -1    0    0  501    0  0.00000000000E+00  0.00000000000E+00  0.14254509344E+03  0.14254509344E+03  0.00000000000E+00 0. -1.
         -2   -1    0    0    0  501 -0.00000000000E+00 -0.00000000000E+00 -0.14115056741E+03  0.14115056741E+03  0.00000000000E+00 0.  1.
         23    2    1    2    0    0 -0.77601344326E+02  0.24230223997E+02 -0.40397919985E+02  0.12876560810E+03  0.91320958678E+02 0.  0.
         23    2    1    2    0    0  0.77601344326E+02 -0.24230223997E+02  0.41792446021E+02  0.15493005275E+03  0.12509052844E+03 0.  0.
          5    1    4    4  502    0  0.46673288617E+02 -0.56280741391E+02  0.70598233206E+02  0.10172266539E+03  0.41800000000E+01 0. -1.
         -5    1    4    4    0  502  0.30928055709E+02  0.32050517393E+02 -0.28805787184E+02  0.53207387367E+02  0.41800000000E+01 0. -1.
        -11    1    3    3    0    0 -0.70204362756E+02  0.55411088748E+02 -0.23205224884E+02  0.92398721680E+02  0.00000000000E+00 0. -1.
         11    1    3    3    0    0 -0.73969815693E+01 -0.31180864751E+02 -0.17192695101E+02  0.36366886418E+02  0.00000000000E+00 0.  1.
</event>
<event>
 8    1  0.5900800E-006  0.1030657E+03  0.7561462E-02  0.1273978E+00
         -2   -1    0    0    0  501 -0.00000000000E+00  0.00000000000E+00  0.82031536514E+02  0.82031536514E+02  0.00000000000E+00 0.  1.
          2   -1    0    0  501    0  0.00000000000E+00 -0.00000000000E+00 -0.17232281548E+03  0.17232281548E+03  0.00000000000E+00 0. -1.
         23    2    1    2    0    0  0.32131546058E+02 -0.34121739052E+02 -0.19037208554E+02  0.10295716534E+03  0.89671808600E+02 0.  0.
         23    2    1    2    0    0 -0.32131546058E+02  0.34121739052E+02 -0.71254070410E+02  0.15139718665E+03  0.12508891337E+03 0.  0.
          5    1    4    4  502    0  0.42007763613E+02  0.20031671020E+01 -0.54172498774E+02  0.68708055609E+02  0.41800000000E+01 0.  1.
         -5    1    4    4    0  502 -0.74139309671E+02  0.32118571950E+02 -0.17081571636E+02  0.82689131041E+02  0.41800000000E+01 0.  1.
        -11    1    3    3    0    0  0.14650825948E+02  0.20734881269E+02  0.20902189367E+02  0.32885916781E+02  0.00000000000E+00 0.  1.
         11    1    3    3    0    0  0.17480720111E+02 -0.54856620321E+02 -0.39939397921E+02  0.70071248562E+02  0.00000000000E+00 0. -1.
</event>
<event>
 7    1  0.5900800E-006  0.1257282E+03  0.7561462E-02  0.1233936E+00
          1   -1    0    0  501    0  0.00000000000E+00  0.00000000000E+00  0.68555582220E+03  0.68555582220E+03  0.00000000000E+00 0. -1.
         -1   -1    0    0    0  501 -0.00000000000E+00 -0.00000000000E+00 -0.32246445312E+02  0.32246445312E+02  0.00000000000E+00 0.  1.
         23    2    1    2    0    0  0.38816697247E+02 -0.46681828451E+02  0.38389866129E+03  0.40530761780E+03  0.11493543325E+03 0.  0.
          5    1    3    3  502    0 -0.21897294121E+02 -0.25219112110E+02  0.28650290606E+03  0.28847336564E+03  0.41800000000E+01 0. -1.
         -5    1    3    3    0  502  0.60713991368E+02 -0.21462716341E+02  0.97395755232E+02  0.11683425216E+03  0.41800000000E+01 0.  1.
        -11    1    1    2    0    0  0.49364678310E+02 -0.72570942950E+01  0.12759511030E+03  0.13700382862E+03  0.00000000000E+00 0.  1.
         11    1    1    2    0    0 -0.88181375557E+02  0.53938922746E+02  0.14181560529E+03  0.17549082109E+03  0.00000000000E+00 0. -1.
</event>
<event>
 8    1  0.5900800E-006  0.1144613E+03  0.7561462E-02  0.1252524E+00
         -2   -1    0    0    0  501 -0.00000000000E+00  0.00000000000E+00  0.13864938206E+03  0.13864938206E+03  0.00000000000E+00 0.  1.
          2   -1    0    0  501    0  0.00000000000E+00 -0.00000000000E+00 -0.15718529147E+03  0.15718529147E+03  0.00000000000E+00 0. -1.
         23    2    1    2    0    0 -0.13953330525E+02  0.84253166297E+02  0.44556321090E+02  0.13175609250E+03  0.89894998186E+02 0.  0.
         23    2    1    2    0    0  0.13953330525E+02 -0.84253166297E+02 -0.63092230500E+02  0.16407858102E+03  0.12509140552E+03 0.  0.
          5    1    4    4  502    0 -0.23520208831E+02 -0.24058889333E+02  0.31167375263E+02  0.46053317581E+02  0.41800000000E+01 0.  1.
         -5    1    4    4    0  502  0.37473539356E+02 -0.60194276964E+02 -0.94259605764E+02  0.11802526344E+03  0.41800000000E+01 0.  1.
        -11    1    3    3    0    0 -0.51143595062E+02  0.33771182947E+02  0.22552616819E+02  0.65305287986E+02  0.00000000000E+00 0. -1.
         11    1    3    3    0    0  0.37190264538E+02  0.50481983350E+02  0.22003704272E+02  0.66450804517E+02  0.00000000000E+00 0.  1.
</event>
<event>
 8    1  0.5900800E-006  0.2386263E+03  0.7561462E-02  0.1120711E+00
         -2   -1    0    0    0  501 -0.00000000000E+00  0.00000000000E+00  0.46873332455E+03  0.46873332455E+03  0.00000000000E+00 0.  1.
          2   -1    0    0  501    0  0.00000000000E+00 -0.00000000000E+00 -0.13566757264E+03  0.13566757264E+03  0.00000000000E+00 0. -1.
         23    2    1    2    0    0 -0.22399053824E+03 -0.78811844308E+01  0.20810019619E+03  0.31892170662E+03  0.90396288703E+02 0.  0.
         23    2    1    2    0    0  0.22399053824E+03  0.78811844308E+01  0.12496555573E+03  0.28547919057E+03  0.12509238123E+03 0.  0.
          5    1    4    4  502    0  0.18281735238E+03  0.40793694266E+02  0.50314100865E+02  0.19399817259E+03  0.41800000000E+01 0.  1.
         -5    1    4    4    0  502  0.41173185863E+02 -0.32912509836E+02  0.74651454863E+02  0.91481017982E+02  0.41800000000E+01 0.  1.
        -11    1    3    3    0    0 -0.14137834805E+03 -0.42224974785E+02  0.15881304833E+03  0.21677723614E+03  0.00000000000E+00 0.  1.
         11    1    3    3    0    0 -0.82612190193E+02  0.34343790355E+02  0.49287147864E+02  0.10214447048E+03  0.00000000000E+00 0. -1.
</event>
<event>
 8    1  0.5900800E-006  0.7429077E+02  0.7561462E-02  0.1346081E+00
         -1   -1    0    0    0  501 -0.00000000000E+00  0.00000000000E+00  0.20741601394E+03  0.20741601394E+03  0.00000000000E+00 0.  1.
          1   -1    0    0  501    0  0.00000000000E+00 -0.00000000000E+00 -0.92466665256E+02  0.92466665256E+02  0.00000000000E+00 0. -1.
         23    2    1    2    0    0 -0.22234976043E+02 -0.54370798509E+02  0.12122916356E+03  0.16154591458E+03  0.89162741824E+02 0.  0.
         23    2    1    2    0    0  0.22234976043E+02  0.54370798509E+02 -0.62798148756E+01  0.13833676462E+03  0.12508815483E+03 0.  0.
          5    1    4    4  502    0  0.27281365648E+02 -0.60070950327E+00 -0.56949998054E+02  0.63288296248E+02  0.41800000000E+01 0.  1.
         -5    1    4    4    0  502 -0.50463896051E+01  0.54971508012E+02  0.50670183179E+02  0.75048468369E+02  0.41800000000E+01 0.  1.
        -11    1    3    3    0    0 -0.28015096310E+02 -0.32099472005E+02  0.48115161441E+01  0.42876245310E+02  0.00000000000E+00 0. -1.
         11    1    3    3    0    0  0.57801202677E+01 -0.22271326504E+02  0.11641764742E+03  0.11866966927E+03  0.00000000000E+00 0.  1.
</event>
<event>
 8    1  0.5900800E-006  0.1292984E+03  0.7561462E-02  0.1228500E+00
         -2   -1    0    0    0  501 -0.00000000000E+00  0.00000000000E+00  0.23620723378E+02  0.23620723378E+02  0.00000000000E+00 0.  1.
          2   -1    0    0  501    0  0.00000000000E+00 -0.00000000000E+00 -0.90272893611E+03  0.90272893611E+03  0.00000000000E+00 0. -1.
         23    2    1    2    0    0 -0.55576268708E+02  0.73448074215E+02 -0.31070181283E+03  0.33709792599E+03  0.92822701783E+02 0.  0.
         23    2    1    2    0    0  0.55576268708E+02 -0.73448074215E+02 -0.56840639990E+03  0.58925173349E+03  0.12509367979E+03 0.  0.
          5    1    4    4  502    0 -0.21720796544E+02  0.16276486869E+02 -0.20939642641E+03  0.21118961343E+03  0.41800000000E+01 0. -1.
         -5    1    4    4    0  502  0.77297065253E+02 -0.89724561084E+02 -0.35900997349E+03  0.37806212006E+03  0.41800000000E+01 0. -1.
        -11    1    3    3    0    0 -0.69709240125E+02  0.52090905225E+02 -0.29379153614E+03  0.30640872584E+03  0.00000000000E+00 0. -1.
         11    1    3    3    0    0  0.14132971417E+02  0.21357168989E+02 -0.16910276690E+02  0.30689200153E+02  0.00000000000E+00 0.  1.
</event>
<event>
 8    1  0.5900800E-006  0.2574687E+03  0.7561462E-02  0.1108674E+00
         -1   -1    0    0    0  501 -0.00000000000E+00  0.00000000000E+00  0.18292809802E+03  0.18292809802E+03  0.00000000000E+00 0.  1.
          1   -1    0    0  501    0  0.00000000000E+00 -0.00000000000E+00 -0.42896612051E+03  0.42896612051E+03  0.00000000000E+00 0. -1.
         23    2    1    2    0    0  0.26421747848E+02 -0.24868120295E+03 -0.51383711027E+02  0.27119232521E+03  0.91457870293E+02 0.  0.
         23    2    1    2    0    0 -0.26421747848E+02  0.24868120295E+03 -0.19465431147E+03  0.34070189332E+03  0.12508808768E+03 0.  0.
          5    1    4    4  502    0 -0.35753598049E+02  0.13354220661E+03 -0.33378322910E+02  0.14227939260E+03  0.41800000000E+01 0. -1.
         -5    1    4    4    0  502  0.93318502001E+01  0.11513899634E+03 -0.16127598856E+03  0.19842250072E+03  0.41800000000E+01 0. -1.
        -11    1    3    3    0    0  0.49650633440E+02 -0.21106454252E+03 -0.21630393797E+02  0.21790204323E+03  0.00000000000E+00 0.  1.
         11    1    3    3    0    0 -0.23228885591E+02 -0.37616660430E+02 -0.29753317230E+02  0.53290281984E+02  0.00000000000E+00 0. -1.
</event>
<event>
 8    1  0.5900800E-006  0.1172572E+03  0.7561462E-02  0.1247692E+00
          2   -1    0    0  501    0  0.00000000000E+00  0.00000000000E+00  0.10047156583E+04  0.10047156583E+04  0.00000000000E+00 0. -1.
         -2   -1    0    0    0  501 -0.00000000000E+00 -0.00000000000E+00 -0.20023235235E+02  0.20023235235E+02  0.00000000000E+00 0.  1.
         23    2    1    2    0    0 -0.39170669402E+02  0.66088115308E+02  0.27032940804E+03  0.29544813376E+03  0.91157175063E+02 0.  0.
         23    2    1    2    0    0  0.39170669402E+02 -0.66088115308E+02  0.71436301499E+03  0.72929075974E+03  0.12509402356E+03 0.  0.
          5    1    4    4  502    0 -0.38070862443E+02  0.35952668227E+00  0.11228172322E+03  0.11863463911E+03  0.41800000000E+01 0.  1.
         -5    1    4    4    0  502  0.77241531845E+02 -0.66447641990E+02  0.60208129177E+03  0.61065612063E+03  0.41800000000E+01 0.  1.
        -11    1    3    3    0    0  0.82817222038E+01  0.38431706255E+02  0.31477737848E+02  0.50362991852E+02  0.00000000000E+00 0.  1.
         11    1    3    3    0    0 -0.47452391606E+02  0.27656409053E+02  0.23885167020E+03  0.24508514191E+03  0.00000000000E+00 0. -1.
</event>
<event>
 8    1  0.5900800E-006  0.1445871E+03  0.7561462E-02  0.1207287E+00
          2   -1    0    0  501    0  0.00000000000E+00  0.00000000000E+00  0.29621375919E+03  0.29621375919E+03  0.00000000000E+00 0. -1.
         -2   -1    0    0    0  501 -0.00000000000E+00 -0.00000000000E+00 -0.93636003594E+02  0.93636003594E+02  0.00000000000E+00 0.  1.
         23    2    1    2    0    0  0.10734735756E+03 -0.54157005210E+02  0.13465768405E+03  0.20352544352E+03  0.93986583611E+02 0.  0.
         23    2    1    2    0    0 -0.10734735756E+03  0.54157005210E+02  0.67920071540E+02  0.18632431926E+03  0.12508868630E+03 0.  0.
          5    1    4    4  502    0  0.15281548500E+02  0.42633540689E+02 -0.25783961707E+00  0.45482781330E+02  0.41800000000E+01 0.  1.
         -5    1    4    4    0  502 -0.12262890606E+03  0.11523464521E+02  0.68177911157E+02  0.14084153793E+03  0.41800000000E+01 0.  1.
        -11    1    3    3    0    0  0.48979142924E+02 -0.28752899129E+02  0.12736205860E+03  0.13945171071E+03  0.00000000000E+00 0. -1.
         11    1    3    3    0    0  0.58368214635E+02 -0.25404106081E+02  0.72956254513E+01  0.64073732810E+02  0.00000000000E+00 0.  1.
</event>
<event>
 8    1  0.5900800E-006  0.1067722E+03  0.7561462E-02  0.1266667E+00
          4   -1    0    0  501    0  0.00000000000E+00  0.00000000000E+00  0.20602325251E+03  0.20602325251E+03  0.00000000000E+00 0.  1.
         -4   -1    0    0    0  501 -0.00000000000E+00 -0.00000000000E+00 -0.63747645822E+02  0.63747645822E+02  0.00000000000E+00 0. -1.
         23    2    1    2    0    0 -0.13869855369E+02  0.34488890330E+02  0.64021208074E+02  0.11761160568E+03  0.91388830078E+02 0.  0.
         23    2    1    2    0    0  0.13869855369E+02 -0.34488890330E+02  0.78254398612E+02  0.15215929265E+03  0.12508734146E+03 0.  0.
          5    1    4    4  502    0  0.56007757769E+01  0.40205609479E+02 -0.35916660129E+01  0.40966232285E+02  0.41800000000E+01 0.  1.
         -5    1    4    4    0  502  0.82690795917E+01 -0.74694499810E+02  0.81846064625E+02  0.11119306037E+03  0.41800000000E+01 0.  1.
        -11    1    3    3    0    0  0.38311667948E+02  0.88112276789E+01  0.34911599001E+02  0.52576053285E+02  0.00000000000E+00 0. -1.
         11    1    3    3    0    0 -0.52181523317E+02  0.25677662651E+02  0.29109609073E+02  0.65035552395E+02  0.00000000000E+00 0.  1.
</event>
<event>
 8    1  0.5900800E-006  0.1103981E+03  0.7561462E-02  0.1259834E+00
          2   -1    0    0  501    0  0.00000000000E+00  0.00000000000E+00  0.73680512601E+02  0.73680512601E+02  0.00000000000E+00 0. -1.
         -2   -1    0    0    0  501 -0.00000000000E+00 -0.00000000000E+00 -0.17100041619E+03  0.17100041619E+03  0.00000000000E+00 0.  1.
         23    2    1    2    0    0  0.91550235365E+01  0.30894888911E+02 -0.48968509354E+02  0.10675447779E+03  0.89220485331E+02 0.  0.
         23    2    1    2    0    0 -0.91550235365E+01 -0.30894888911E+02 -0.48351394237E+02  0.13792645101E+03  0.12509012729E+03 0.  0.
          5    1    4    4  502    0  0.24670624236E+02  0.40879887325E+02 -0.29445042654E+02  0.56252002852E+02  0.41800000000E+01 0.  1.
         -5    1    4    4    0  502 -0.33825647773E+02 -0.71774776236E+02 -0.18906351583E+02  0.81674448153E+02  0.41800000000E+01 0.  1.
        -11    1    3    3    0    0  0.46735503202E+02  0.30537802577E+02 -0.19995635916E+02  0.59300844020E+02  0.00000000000E+00 0.  1.
         11    1    3    3    0    0 -0.37580479665E+02  0.35708633356E+00 -0.28972873439E+02  0.47453633768E+02  0.00000000000E+00 0. -1.
</event>
<event>
 8    1  0.5900800E-006  0.1002100E+03  0.7561462E-02  0.1279855E+00
         -2   -1    0    0    0  501 -0.00000000000E+00  0.00000000000E+00  0.39510922405E+02  0.39510922405E+02  0.00000000000E+00 0.  1.
          2   -1    0    0  501    0  0.00000000000E+00 -0.00000000000E+00 -0.10933823845E+04  0.10933823845E+04  0.00000000000E+00 0. -1.
         23    2    1    2    0    0 -0.46694990323E+01 -0.49056024147E+02 -0.39201940916E+02  0.11079435216E+03  0.91160839024E+02 0.  0.
         23    2    1    2    0    0  0.46694990323E+01  0.49056024147E+02 -0.10146695211E+04  0.10220989547E+04  0.11271086179E+03 0.  0.
          5    1    4    4  502    0 -0.24835511654E+01  0.81546269450E+02 -0.85808206833E+03  0.86196187299E+03  0.41800000000E+01 0. -1.
         -5    1    4    4    0  502  0.71530501977E+01 -0.32490245303E+02 -0.15658745280E+03  0.16013708172E+03  0.41800000000E+01 0.  1.
        -11    1    3    3    0    0 -0.36566688547E+02 -0.33983627390E+02  0.93403527111E+01  0.50786335078E+02  0.00000000000E+00 0.  1.
         11    1    3    3    0    0  0.31897189515E+02 -0.15072396757E+02 -0.48542293628E+02  0.60008017077E+02  0.00000000000E+00 0. -1.
</event>
<event>
 8    1  0.5900800E-006  0.1022298E+03  0.7561462E-02  0.1275676E+00
          1   -1    0    0  501    0  0.00000000000E+00  0.00000000000E+00  0.37007090945E+03  0.37007090945E+03  0.00000000000E+00 0. -1.
         -1   -1    0    0    0  501 -0.00000000000E+00 -0.00000000000E+00 -0.48996894939E+02  0.48996894939E+02  0.00000000000E+00 0.  1.
         23    2    1    2    0    0 -0.10062649793E+02 -0.13994902212E+02  0.17579065632E+02  0.94957714974E+02  0.91710576684E+02 0.  0.
         23    2    1    2    0    0  0.10062649793E+02  0.13994902212E+02  0.30349494888E+03  0.32411008941E+03  0.11243243241E+03 0.  0.
          5    1    4    4  502    0 -0.45590203317E+02 -0.17938693716E+02  0.12043520087E+03  0.13008602300E+03  0.41800000000E+01 0. -1.
         -5    1    4    4    0  502  0.55652853110E+02  0.31933595928E+02  0.18305974801E+03  0.19402406642E+03  0.41800000000E+01 0.  1.
        -11    1    3    3    0    0 -0.34071052989E+02 -0.42013045498E+02  0.12173442420E-01  0.54091892109E+02  0.00000000000E+00 0. -1.
         11    1    3    3    0    0  0.24008403195E+02  0.28018143286E+02  0.17566892189E+02  0.40865822864E+02  0.00000000000E+00 0.  1.
</event>
<event>
 8    1  0.5900800E-006  0.9164071E+02  0.7561462E-02  0.1298926E+00
         -1   -1    0    0    0  501 -0.00000000000E+00  0.00000000000E+00  0.17962893362E+03  0.17962893362E+03  0.00000000000E+00 0.  1.
          1   -1    0    0  501    0  0.00000000000E+00 -0.00000000000E+00 -0.68908818972E+02  0.68908818972E+02  0.00000000000E+00 0. -1.
         23    2    1    2    0    0  0.33055101959E+02 -0.25432160250E+02  0.88202176127E+02  0.11475323079E+03  0.60408985777E+02 0.  0.
         23    2    1    2    0    0 -0.33055101959E+02  0.25432160250E+02  0.22517938517E+02  0.13378452180E+03  0.12510717876E+03 0.  0.
          5    1    4    4  502    0 -0.67673381219E+02  0.34286017622E+02  0.47844696776E+02  0.89787554481E+02  0.41800000000E+01 0.  1.
         -5    1    4    4    0  502  0.34618279260E+02 -0.88538573727E+01 -0.25326758258E+02  0.43996967318E+02  0.41800000000E+01 0.  1.
        -11    1    3    3    0    0  0.35602104430E+02  0.90632915640E+01  0.58913055213E+02  0.69429108941E+02  0.00000000000E+00 0.  1.
         11    1    3    3    0    0 -0.25470024711E+01 -0.34495451813E+02  0.29289120914E+02  0.45324121848E+02  0.00000000000E+00 0. -1.
</event>
<event>
 8    1  0.5900800E-006  0.1085934E+03  0.7561462E-02  0.1263197E+00
         -2   -1    0    0    0  501 -0.00000000000E+00  0.00000000000E+00  0.24925555498E+03  0.24925555498E+03  0.00000000000E+00 0.  1.
          2   -1    0    0  501    0  0.00000000000E+00 -0.00000000000E+00 -0.77979699395E+02  0.77979699395E+02  0.00000000000E+00 0. -1.
         23    2    1    2    0    0 -0.67057519234E+02  0.47410541171E+02  0.40931823269E+02  0.12879471012E+03  0.90378055411E+02 0.  0.
         23    2    1    2    0    0  0.67057519234E+02 -0.47410541171E+02  0.13034403232E+03  0.19844054425E+03  0.12507842557E+03 0.  0.
          5    1    4    4  502    0 -0.37132559213E+01  0.45474429376E+01 -0.21674283400E+02  0.22841069758E+02  0.41800000000E+01 0. -1.
         -5    1    4    4    0  502  0.70770775155E+02 -0.51957984109E+02  0.15201831572E+03  0.17559947449E+03  0.41800000000E+01 0. -1.
        -11    1    3    3    0    0 -0.88985586435E+02  0.45843748020E+02  0.34706033471E+02  0.10594617777E+03  0.00000000000E+00 0. -1.
         11    1    3    3    0    0  0.21928067201E+02  0.15667931509E+01  0.62257897971E+01  0.22848532350E+02  0.00000000000E+00 0.  1.
</event>
<event>
 8    1  0.5900800E-006  0.1153848E+03  0.7561462E-02  0.1250911E+00
         -2   -1    0    0    0  501 -0.00000000000E+00  0.00000000000E+00  0.44153570979E+02  0.44153570979E+02  0.00000000000E+00 0.  1.
          2   -1    0    0  501    0  0.00000000000E+00 -0.00000000000E+00 -0.34774204743E+03  0.34774204743E+03  0.00000000000E+00 0. -1.
         23    2    1    2    0    0 -0.20063556859E+02 -0.50485584221E+02 -0.93573621855E+02  0.14148592861E+03  0.91164163797E+02 0.  0.
         23    2    1    2    0    0  0.20063556859E+02  0.50485584221E+02 -0.21001485460E+03  0.25040968980E+03  0.12508970007E+03 0.  0.
          5    1    4    4  502    0  0.69070251157E+02  0.11961649814E+02 -0.13964927221E+03  0.15631113936E+03  0.41800000000E+01 0.  1.
         -5    1    4    4    0  502 -0.49006694298E+02  0.38523934408E+02 -0.70365582391E+02  0.94098550433E+02  0.41800000000E+01 0.  1.
        -11    1    3    3    0    0 -0.45163677555E+02 -0.56428544556E+02 -0.41424245350E+02  0.83306101300E+02  0.00000000000E+00 0.  1.
         11    1    3    3    0    0  0.25100120696E+02  0.59429603343E+01 -0.52149376505E+02  0.58179827315E+02  0.00000000000E+00 0. -1.
</event>
<event>
 8    1  0.5900800E-006  0.8180596E+02  0.7561462E-02  0.1324003E+00
         -1   -1    0    0    0  501 -0.00000000000E+00  0.00000000000E+00  0.60529206556E+02  0.60529206556E+02  0.00000000000E+00 0.  1.
          1   -1    0    0  501    0  0.00000000000E+00 -0.00000000000E+00 -0.26539017730E+03  0.26539017730E+03  0.00000000000E+00 0. -1.
         23    2    1    2    0    0 -0.95772319438E+01 -0.68192735588E+01 -0.57015154367E+00  0.86085494727E+02  0.85276969142E+02 0.  0.
         23    2    1    2    0    0  0.95772319438E+01  0.68192735588E+01 -0.20429081920E+03  0.23983388913E+03  0.12508928692E+03 0.  0.
          5    1    4    4  502    0  0.41129010242E+02 -0.91164813401E+01 -0.19947237219E+03  0.20391519164E+03  0.41800000000E+01 0. -1.
         -5    1    4    4    0  502 -0.31551778298E+02  0.15935754899E+02 -0.48184470190E+01  0.35918697494E+02  0.41800000000E+01 0. -1.
        -11    1    3    3    0    0  0.36674281220E+02  0.71582361255E+01 -0.43590890791E+01  0.37619740895E+02  0.00000000000E+00 0. -1.
         11    1    3    3    0    0 -0.46251513163E+02 -0.13977509684E+02  0.37889375355E+01  0.48465753832E+02  0.00000000000E+00 0.  1.
</event>
<event>
 8    1  0.5900800E-006  0.6523227E+02  0.7561462E-02  0.1377100E+00
          2   -1    0    0  501    0  0.00000000000E+00  0.00000000000E+00  0.94069840755E+02  0.94069840755E+02  0.00000000000E+00 0.  1.
         -2   -1    0    0    0  501 -0.00000000000E+00 -0.00000000000E+00 -0.16943518319E+03  0.16943518319E+03  0.00000000000E+00 0. -1.
         23    2    1    2    0    0 -0.60030290487E+02 -0.19218577367E+02 -0.21349056506E+02  0.11337843087E+03  0.91792684240E+02 0.  0.
         23    2    1    2    0    0  0.60030290487E+02  0.19218577367E+02 -0.54016285925E+02  0.15012659307E+03  0.12508894960E+03 0.  0.
          5    1    4    4  502    0  0.29626006636E+01  0.56016500128E+01 -0.83837342109E+02  0.84180329159E+02  0.41800000000E+01 0.  1.
         -5    1    4    4    0  502  0.57067689824E+02  0.13616927354E+02  0.29821056184E+02  0.65946263914E+02  0.41800000000E+01 0.  1.
        -11    1    3    3    0    0 -0.34133443187E+02 -0.16803978758E+02  0.34760338950E+02  0.51533938428E+02  0.00000000000E+00 0.  1.
         11    1    3    3    0    0 -0.25896847300E+02 -0.24145986081E+01 -0.56109395456E+02  0.61844492439E+02  0.00000000000E+00 0. -1.
</event>
<event>
 8    1  0.5900800E-006  0.1482187E+03  0.7561462E-02  0.1202679E+00
         -1   -1    0    0    0  501 -0.00000000000E+00  0.00000000000E+00  0.54115813770E+02  0.54115813770E+02  0.00000000000E+00 0.  1.
          1   -1    0    0  501    0  0.00000000000E+00 -0.00000000000E+00 -0.51080655314E+03  0.51080655314E+03  0.00000000000E+00 0. -1.
         23    2    1    2    0    0  0.69434489552E+02 -0.76389726133E+02 -0.92006379312E+02  0.16577670082E+03  0.91434140798E+02 0.  0.
         23    2    1    2    0    0 -0.69434489552E+02  0.76389726133E+02 -0.36468436005E+03  0.39914566608E+03  0.12516405909E+03 0.  0.
          5    1    4    4  502    0 -0.82888016074E+02  0.10253184729E+03 -0.31046231563E+03  0.33732406488E+03  0.41800000000E+01 0. -1.
         -5    1    4    4    0  502  0.13453526521E+02 -0.26142121158E+02 -0.54222044422E+02  0.61821601207E+02  0.41800000000E+01 0. -1.
        -11    1    3    3    0    0  0.38431443165E+01 -0.68678825623E+02 -0.64292335269E+02  0.94154422209E+02  0.00000000000E+00 0.  1.
         11    1    3    3    0    0  0.65591345236E+02 -0.77109005097E+01 -0.27714044043E+02  0.71622278613E+02  0.00000000000E+00 0. -1.
</event>
<event>
 8    1  0.5900800E-006  0.1376952E+03  0.7561462E-02  0.1216464E+00
          2   -1    0    0  501    0  0.00000000000E+00  0.00000000000E+00  0.42456520501E+02  0.42456520501E+02  0.00000000000E+00 0. -1.
         -2   -1    0    0    0  501 -0.00000000000E+00 -0.00000000000E+00 -0.52845002059E+03  0.52845002059E+03  0.00000000000E+00 0.  1.
         23    2    1    2    0    0  0.21130514337E+02 -0.10140618079E+03 -0.22624242373E+03  0.26456163014E+03  0.89874967080E+02 0.  0.
         23    2    1    2    0    0 -0.21130514337E+02  0.10140618079E+03 -0.25975107636E+03  0.30634491096E+03  0.12508745204E+03 0.  0.
          5    1    4    4  502    0 -0.70296268397E+02  0.81485234887E+02 -0.15349219502E+03  0.18750662705E+03  0.41800000000E+01 0. -1.
         -5    1    4    4    0  502  0.49165754060E+02  0.19920945901E+02 -0.10625888134E+03  0.11883828391E+03  0.41800000000E+01 0. -1.
        -11    1    3    3    0    0  0.34528928653E+02 -0.46238524617E+02 -0.18659862742E+03  0.19531844722E+03  0.00000000000E+00 0.  1.
         11    1    3    3    0    0 -0.13398414316E+02 -0.55167656171E+02 -0.39643796312E+02  0.69243182911E+02  0.00000000000E+00 0. -1.
</event>
<event>
 8    1  0.5900800E-006  0.1046507E+03  0.7561462E-02  0.1270809E+00
         -2   -1    0    0    0  501 -0.00000000000E+00  0.00000000000E+00  0.31463011972E+02  0.31463011972E+02  0.00000000000E+00 0.  1.
          2   -1    0    0  501    0  0.00000000000E+00 -0.00000000000E+00 -0.73409526264E+03  0.73409526264E+03  0.00000000000E+00 0. -1.
         23    2    1    2    0    0 -0.57382526352E+02  0.73200776235E+02 -0.19335681486E+03  0.23296086254E+03  0.90734765396E+02 0.  0.
         23    2    1    2    0    0  0.57382526352E+02 -0.73200776235E+02 -0.50927543581E+03  0.53259741207E+03  0.12508967125E+03 0.  0.
          5    1    4    4  502    0 -0.12513558777E+02 -0.20724598238E+02 -0.11387009702E+02  0.27078303406E+02  0.41800000000E+01 0.  1.
         -5    1    4    4    0  502  0.69896085129E+02 -0.52476177996E+02 -0.49788842611E+03  0.50551910866E+03  0.41800000000E+01 0.  1.
        -11    1    3    3    0    0 -0.33680017364E+02  0.62977842491E+02 -0.19442352473E+03  0.20712570865E+03  0.00000000000E+00 0. -1.
         11    1    3    3    0    0 -0.23702508988E+02  0.10222933743E+02  0.10667098722E+01  0.25835153892E+02  0.00000000000E+00 0.  1.
</event>
<event>
 8    1  0.5900800E-006  0.8405192E+02  0.7561462E-02  0.1317931E+00
          2   -1    0    0  501    0  0.00000000000E+00  0.00000000000E+00  0.15247137476E+03  0.15247137476E+03  0.00000000000E+00 0. -1.
         -2   -1    0    0    0  501 -0.00000000000E+00 -0.00000000000E+00 -0.11648615911E+03  0.11648615911E+03  0.00000000000E+00 0.  1.
         23    2    1    2    0    0  0.16124042569E+02  0.57491894933E+02 -0.27898840789E+02  0.11633517452E+03  0.95865660077E+02 0.  0.
         23    2    1    2    0    0 -0.16124042569E+02 -0.57491894933E+02  0.63884056439E+02  0.15262235935E+03  0.12508840544E+03 0.  0.
          5    1    4    4  502    0 -0.25022937499E+02 -0.46594508787E+02  0.10024090427E+03  0.11341475627E+03  0.41800000000E+01 0.  1.
         -5    1    4    4    0  502  0.88988949301E+01 -0.10897386146E+02 -0.36356847829E+02  0.39207603087E+02  0.41800000000E+01 0.  1.
        -11    1    3    3    0    0  0.46279414192E+01  0.77317442333E+02 -0.43286808527E+02  0.88730786783E+02  0.00000000000E+00 0.  1.
         11    1    3    3    0    0  0.11496101150E+02 -0.19825547400E+02  0.15387967738E+02  0.27604387739E+02  0.00000000000E+00 0. -1.
</event>
<event>
 8    1  0.5900800E-006  0.1060692E+03  0.7561462E-02  0.1268027E+00
         -1   -1    0    0    0  501 -0.00000000000E+00  0.00000000000E+00  0.45199930808E+02  0.45199930808E+02  0.00000000000E+00 0.  1.
          1   -1    0    0  501    0  0.00000000000E+00 -0.00000000000E+00 -0.32967055663E+03  0.32967055663E+03  0.00000000000E+00 0. -1.
         23    2    1    2    0    0  0.37665403535E+02  0.25739951860E+02 -0.77796797148E+02  0.12906830308E+03  0.92331237773E+02 0.  0.
         23    2    1    2    0    0 -0.37665403535E+02 -0.25739951860E+02 -0.20667382868E+03  0.24580218436E+03  0.12499365836E+03 0.  0.
          5    1    4    4  502    0 -0.79058872909E+02 -0.11053221509E+02 -0.17206712610E+03  0.18972887860E+03  0.41800000000E+01 0.  1.
         -5    1    4    4    0  502  0.41393469374E+02 -0.14686730352E+02 -0.34606702579E+02  0.56073305758E+02  0.41800000000E+01 0.  1.
        -11    1    3    3    0    0  0.22878495129E+02 -0.25787668412E+02 -0.65576375850E+02  0.74085696670E+02  0.00000000000E+00 0. -1.
         11    1    3    3    0    0  0.14786908406E+02  0.51527620272E+02 -0.12220421298E+02  0.54982606412E+02  0.00000000000E+00 0.  1.
</event>
<event>
 8    1  0.5900800E-006  0.9352018E+02  0.7561462E-02  0.1294544E+00
         -1   -1    0    0    0  501 -0.00000000000E+00  0.00000000000E+00  0.99354211534E+01  0.99354211534E+01  0.00000000000E+00 0.  1.
          1   -1    0    0  501    0  0.00000000000E+00 -0.00000000000E+00 -0.23317604303E+04  0.23317604303E+04  0.00000000000E+00 0. -1.
         23    2    1    2    0    0 -0.20401126512E+02 -0.11995033074E+02 -0.25552001032E+03  0.27217218260E+03  0.90703552993E+02 0.  0.
         23    2    1    2    0    0  0.20401126512E+02  0.11995033074E+02 -0.20663049988E+04  0.20695236688E+04  0.11292378399E+03 0.  0.
          5    1    4    4  502    0  0.52072741239E+02 -0.16032998100E+02 -0.16799105084E+04  0.16807990410E+04  0.41800000000E+01 0. -1.
         -5    1    4    4    0  502 -0.31671614727E+02  0.28028031174E+02 -0.38639449034E+03  0.38872462782E+03  0.41800000000E+01 0.  1.
        -11    1    3    3    0    0  0.20219002022E+02 -0.37023489012E+02 -0.82033696045E+02  0.92244642491E+02  0.00000000000E+00 0. -1.
         11    1    3    3    0    0 -0.40620128534E+02  0.25028455939E+02 -0.17348631428E+03  0.17992754011E+03  0.00000000000E+00 0.  1.
</event>
<event>
 8    1  0.5900800E-006  0.1042703E+03  0.7561462E-02  0.1271564E+00
          2   -1    0    0  501    0  0.00000000000E+00  0.00000000000E+00  0.15435705858E+03  0.15435705858E+03  0.00000000000E+00 0. -1.
         -2   -1    0    0    0  501 -0.00000000000E+00 -0.00000000000E+00 -0.96069792512E+02  0.96069792512E+02  0.00000000000E+00 0.  1.
         23    2    1    2    0    0 -0.41607678854E+02 -0.16795395097E+02 -0.86563323868E+01  0.10162067681E+03  0.90766434478E+02 0.  0.
         23    2    1    2    0    0  0.41607678854E+02  0.16795395097E+02  0.66943598457E+02  0.14880617429E+03  0.12509415612E+03 0.  0.
          5    1    4    4  502    0  0.16087920525E+01 -0.52546718099E+02  0.26614435921E+02  0.59072382669E+02  0.41800000000E+01 0.  1.
         -5    1    4    4    0  502  0.39998886801E+02  0.69342113196E+02  0.40329162536E+02  0.89733791621E+02  0.41800000000E+01 0.  1.
        -11    1    3    3    0    0  0.10963837521E+02 -0.20176124510E+02 -0.35667037880E+02  0.42419562994E+02  0.00000000000E+00 0.  1.
         11    1    3    3    0    0 -0.52571516374E+02  0.33807294131E+01  0.27010705493E+02  0.59201113811E+02  0.00000000000E+00 0. -1.
</event>
<event>
 8    1  0.5900800E-006  0.1129169E+03  0.7561462E-02  0.1255262E+00
          2   -1    0    0  501    0  0.00000000000E+00  0.00000000000E+00  0.40311137344E+03  0.40311137344E+03  0.00000000000E+00 0. -1.
         -2   -1    0    0    0  501 -0.00000000000E+00 -0.00000000000E+00 -0.57556487345E+02  0.57556487345E+02  0.00000000000E+00 0.  1.
         23    2    1    2    0    0 -0.49427339139E+02  0.78654962479E+02  0.11336215805E+03  0.18104357523E+03  0.10628326433E+03 0.  0.
         23    2    1    2    0    0  0.49427339139E+02 -0.78654962479E+02  0.23219272804E+03  0.27962428555E+03  0.12508642268E+03 0.  0.
          5    1    4    4  502    0  0.45853090485E+02 -0.28167613131E+02  0.22116309916E+03  0.22765436338E+03  0.41800000000E+01 0.  1.
         -5    1    4    4    0  502  0.35742486542E+01 -0.50487349349E+02  0.11029628885E+02  0.51969922177E+02  0.41800000000E+01 0.  1.
        -11    1    3    3    0    0 -0.31131661040E+02 -0.82951922604E+01 -0.54558301046E+01  0.32676545348E+02  0.00000000000E+00 0.  1.
         11    1    3    3    0    0 -0.18295678099E+02  0.86950154740E+02  0.11881798816E+03  0.14836702988E+03  0.00000000000E+00 0. -1.
</event>
<event>
 8    1  0.5900800E-006  0.1795329E+03  0.7561462E-02  0.1168256E+00
         -1   -1    0    0    0  501 -0.00000000000E+00  0.00000000000E+00  0.12275160556E+03  0.12275160556E+03  0.00000000000E+00 0.  1.
          1   -1    0    0  501    0  0.00000000000E+00 -0.00000000000E+00 -0.27808668541E+03  0.27808668541E+03  0.00000000000E+00 0. -1.
         23    2    1    2    0    0  0.68807562471E+02 -0.13033070718E+03 -0.98826217759E+02  0.19944062164E+03  0.91045957380E+02 0.  0.
         23    2    1    2    0    0 -0.68807562471E+02  0.13033070718E+03 -0.56508862092E+02  0.20139766933E+03  0.12508875182E+03 0.  0.
          5    1    4    4  502    0 -0.10457585789E+03  0.82193642480E+02 -0.42116248756E+02  0.13958207524E+03  0.41800000000E+01 0. -1.
         -5    1    4    4    0  502  0.35768295421E+02  0.48137064699E+02 -0.14392613336E+02  0.61815594099E+02  0.41800000000E+01 0. -1.
        -11    1    3    3    0    0  0.24163901932E+02 -0.11672746038E+03 -0.95341127694E+02  0.15264050836E+03  0.00000000000E+00 0. -1.
         11    1    3    3    0    0  0.44643660539E+02 -0.13603246803E+02 -0.34850900650E+01  0.46800113276E+02  0.00000000000E+00 0.  1.
</event>
<event>
 8    1  0.5900800E-006  0.1383967E+03  0.7561462E-02  0.1215503E+00
         -2   -1    0    0    0  501 -0.00000000000E+00  0.00000000000E+00  0.15374958330E+02  0.15374958330E+02  0.00000000000E+00 0.  1.
          2   -1    0    0  501    0  0.00000000000E+00 -0.00000000000E+00 -0.21059566576E+04  0.21059566576E+04  0.00000000000E+00 0. -1.
         23    2    1    2    0    0  0.10319588298E+03  0.66055124278E+02 -0.54857682595E+03  0.56941562015E+03  0.91021672150E+02 0.  0.
         23    2    1    2    0    0 -0.10319588298E+03 -0.66055124278E+02 -0.15420048733E+04  0.15519159958E+04  0.12510619046E+03 0.  0.
          5    1    4    4  502    0 -0.82881121881E+02 -0.70398973783E+02 -0.60745244339E+03  0.61712335822E+03  0.41800000000E+01 0. -1.
         -5    1    4    4    0  502 -0.20314761094E+02  0.43438495054E+01 -0.93455242994E+03  0.93479263757E+03  0.41800000000E+01 0. -1.
        -11    1    3    3    0    0  0.12254018296E+02  0.53605850600E+02 -0.28650044630E+03  0.29172976179E+03  0.00000000000E+00 0.  1.
         11    1    3    3    0    0  0.90941864680E+02  0.12449273678E+02 -0.26207637965E+03  0.27768585836E+03  0.00000000000E+00 0. -1.
</event>
<event>
 8    1  0.5900800E-006  0.2499459E+03  0.7561462E-02  0.1113339E+00
         -2   -1    0    0    0  501 -0.00000000000E+00  0.00000000000E+00  0.59670797722E+02  0.59670797722E+02  0.00000000000E+00 0.  1.
          2   -1    0    0  501    0  0.00000000000E+00 -0.00000000000E+00 -0.13662760061E+04  0.13662760061E+04  0.00000000000E+00 0. -1.
         23    2    1    2    0    0 -0.10314410270E+03  0.21128241183E+03 -0.34000323452E+03  0.42332728633E+03  0.91240497545E+02 0.  0.
         23    2    1    2    0    0  0.10314410270E+03 -0.21128241183E+03 -0.96660197382E+03  0.10026195175E+04  0.12509019755E+03 0.  0.
          5    1    4    4  502    0  0.12869163840E+03 -0.19531901205E+03 -0.88913352660E+03  0.91939488512E+03  0.41800000000E+01 0. -1.
         -5    1    4    4    0  502 -0.25547535701E+02 -0.15963399786E+02 -0.77468447220E+02  0.83224632338E+02  0.41800000000E+01 0. -1.
        -11    1    3    3    0    0 -0.50086082730E+02  0.86712366523E+02 -0.72889934944E+02  0.12385714678E+03  0.00000000000E+00 0.  1.
         11    1    3    3    0    0 -0.53058019969E+02  0.12457004531E+03 -0.26711329958E+03  0.29947013955E+03  0.00000000000E+00 0. -1.
</event>
<event>
 8    1  0.5900800E-006  0.1516652E+03  0.7561462E-02  0.1198442E+00
         -4   -1    0    0    0  501 -0.00000000000E+00  0.00000000000E+00  0.16960288640E+03  0.16960288640E+03  0.00000000000E+00 0.  1.
          4   -1    0    0  501    0  0.00000000000E+00 -0.00000000000E+00 -0.16548084600E+03  0.16548084600E+03  0.00000000000E+00 0. -1.
         23    2    1    2    0    0  0.54851478739E+02 -0.11197153884E+03  0.18249632168E+02  0.15790227176E+03  0.95151290703E+02 0.  0.
         23    2    1    2    0    0 -0.54851478739E+02  0.11197153884E+03 -0.14127591773E+02  0.17718146064E+03  0.12508945165E+03 0.  0.
          5    1    4    4  502    0 -0.36655566952E+02 -0.20527532747E+02  0.27729708922E+01  0.42310423737E+02  0.41800000000E+01 0. -1.
         -5    1    4    4    0  502 -0.18195911788E+02  0.13249907159E+03 -0.16900562665E+02  0.13487103690E+03  0.41800000000E+01 0. -1.
        -11    1    3    3    0    0  0.48303942891E+02 -0.71387812581E+02 -0.32918229711E+02  0.92266464824E+02  0.00000000000E+00 0. -1.
         11    1    3    3    0    0  0.65475358483E+01 -0.40583726258E+02  0.51167861879E+02  0.65635806935E+02  0.00000000000E+00 0.  1.
</event>
<event>
 8    1  0.5900800E-006  0.1636815E+03  0.7561462E-02  0.1184602E+00
          2   -1    0    0  501    0  0.00000000000E+00  0.00000000000E+00  0.86717712475E+03  0.86717712475E+03  0.00000000000E+00 0. -1.
         -2   -1    0    0    0  501 -0.00000000000E+00 -0.00000000000E+00 -0.41855057184E+02  0.41855057184E+02  0.00000000000E+00 0.  1.
         23    2    1    2    0    0 -0.22160346650E+02 -0.15550058462E+03  0.34609633790E+03  0.38943178509E+03  0.84870061582E+02 0.  0.
         23    2    1    2    0    0  0.22160346650E+02  0.15550058462E+03  0.47922572967E+03  0.51960039684E+03  0.12512297806E+03 0.  0.
          5    1    4    4  502    0  0.28920719469E+02  0.13299517024E+03  0.21628975092E+03  0.25558335641E+03  0.41800000000E+01 0.  1.
         -5    1    4    4    0  502 -0.67603728196E+01  0.22505414386E+02  0.26293597875E+03  0.26401704043E+03  0.41800000000E+01 0.  1.
        -11    1    3    3    0    0  0.19723022968E+02 -0.55982531449E+02  0.63549420427E+02  0.86957290086E+02  0.00000000000E+00 0.  1.
         11    1    3    3    0    0 -0.41883369617E+02 -0.99518053175E+02  0.28254691747E+03  0.30247449501E+03  0.00000000000E+00 0. -1.
</event>
<event>
 8    1  0.5900800E-006  0.1007196E+03  0.7561462E-02  0.1278790E+00
          3   -1    0    0  501    0  0.00000000000E+00  0.00000000000E+00  0.28166477750E+03  0.28166477750E+03  0.00000000000E+00 0. -1.
         -3   -1    0    0    0  501 -0.00000000000E+00 -0.00000000000E+00 -0.51342378367E+02  0.51342378367E+02  0.00000000000E+00 0.  1.
         23    2    1    2    0    0  0.11007376093E+02  0.50062705273E+02  0.85573382509E+02  0.13494905454E+03  0.90890080536E+02 0.  0.
         23    2    1    2    0    0 -0.11007376093E+02 -0.50062705273E+02  0.14474901662E+03  0.19805810132E+03  0.12508915580E+03 0.  0.
          5    1    4    4  502    0  0.42715196459E+02  0.10852737274E+02  0.89164205572E+02  0.99549474485E+02  0.41800000000E+01 0. -1.
         -5    1    4    4    0  502 -0.53722572552E+02 -0.60915442547E+02  0.55584811050E+02  0.98508626840E+02  0.41800000000E+01 0. -1.
        -11    1    3    3    0    0  0.39895864816E+00  0.60768169940E+02  0.98069271740E+02  0.11537119097E+03  0.00000000000E+00 0. -1.
         11    1    3    3    0    0  0.10608417445E+02 -0.10705464667E+02 -0.12495889231E+02  0.19577863573E+02  0.00000000000E+00 0.  1.
</event>
<event>
 8    1  0.5900800E-006  0.1134601E+03  0.7561462E-02  0.1254293E+00
          1   -1    0    0  501    0  0.00000000000E+00  0.00000000000E+00  0.84567637623E+03  0.84567637623E+03  0.00000000000E+00 0. -1.
         -1   -1    0    0    0  501 -0.00000000000E+00 -0.00000000000E+00 -0.26606278865E+02  0.26606278865E+02  0.00000000000E+00 0.  1.
         23    2    1    2    0    0  0.43760757697E+02 -0.28498187215E+02  0.12006797586E+03  0.16025858372E+03  0.92408572342E+02 0.  0.
         23    2    1    2    0    0 -0.43760757697E+02  0.28498187215E+02  0.69900212150E+03  0.71202407137E+03  0.12508861558E+03 0.  0.
          5    1    4    4  502    0 -0.81401236813E+02  0.45323293307E+02  0.51903108615E+03  0.52734343938E+03  0.41800000000E+01 0. -1.
         -5    1    4    4    0  502  0.37640479116E+02 -0.16825106092E+02  0.17997103536E+03  0.18468063198E+03  0.41800000000E+01 0. -1.
        -11    1    3    3    0    0 -0.18245034952E+02 -0.23862302668E+02  0.64254113540E+01  0.30717693600E+02  0.00000000000E+00 0.  1.
         11    1    3    3    0    0  0.62005792649E+02 -0.46358845468E+01  0.11364256450E+03  0.12954089013E+03  0.00000000000E+00 0. -1.
</event>
<event>
 8    1  0.5900800E-006  0.1536941E+03  0.7561462E-02  0.1196006E+00
         -1   -1    0    0    0  501 -0.00000000000E+00  0.00000000000E+00  0.69194120816E+02  0.69194120816E+02  0.00000000000E+00 0.  1.
          1   -1    0    0  501    0  0.00000000000E+00 -0.00000000000E+00 -0.51510641382E+03  0.51510641382E+03  0.00000000000E+00 0. -1.
         23    2    1    2    0    0 -0.21025635878E+02 -0.14211937250E+03 -0.12929243508E+03  0.21479190214E+03  0.93696499675E+02 0.  0.
         23    2    1    2    0    0  0.21025635878E+02  0.14211937250E+03 -0.31661985792E+03  0.36950863250E+03  0.12509397130E+03 0.  0.
          5    1    4    4  502    0  0.57491587379E+01  0.32310521180E+02  0.97059956245E+00  0.33097387640E+02  0.41800000000E+01 0.  1.
         -5    1    4    4    0  502  0.15276477140E+02  0.10980885132E+03 -0.31759045748E+03  0.33641124485E+03  0.41800000000E+01 0.  1.
        -11    1    3    3    0    0  0.85603497551E+01 -0.13172242542E+03 -0.74269092356E+02  0.15145948312E+03  0.00000000000E+00 0.  1.
         11    1    3    3    0    0 -0.29585985634E+02 -0.10396947080E+02 -0.55023342729E+02  0.63332419025E+02  0.00000000000E+00 0. -1.
</event>
<event>
 8    1  0.5900800E-006  0.1485168E+03  0.7561462E-02  0.1202307E+00
          2   -1    0    0  501    0  0.00000000000E+00  0.00000000000E+00  0.50382347569E+03  0.50382347569E+03  0.00000000000E+00 0. -1.
         -2   -1    0    0    0  501 -0.00000000000E+00 -0.00000000000E+00 -0.50532816565E+02  0.50532816565E+02  0.00000000000E+00 0.  1.
         23    2    1    2    0    0 -0.68610494116E+02 -0.94268522163E+02  0.19235548158E+03  0.24238144853E+03  0.90300504569E+02 0.  0.
         23    2    1    2    0    0  0.68610494116E+02  0.94268522163E+02  0.26093517755E+03  0.31197484373E+03  0.12508869678E+03 0.  0.
          5    1    4    4  502    0 -0.24149162900E+02 -0.61675354546E+00  0.10191196001E+03  0.10481928471E+03  0.41800000000E+01 0. -1.
         -5    1    4    4    0  502  0.92759657016E+02  0.94885275708E+02  0.15902321754E+03  0.20715555902E+03  0.41800000000E+01 0. -1.
        -11    1    3    3    0    0 -0.69601971784E+02 -0.30515597799E+02  0.65191269028E+02  0.10012760730E+03  0.00000000000E+00 0.  1.
         11    1    3    3    0    0  0.99147766763E+00 -0.63752924364E+02  0.12716421255E+03  0.14225384124E+03  0.00000000000E+00 0. -1.
</event>
<event>
 8    1  0.5900800E-006  0.1349397E+03  0.7561462E-02  0.1220305E+00
         -1   -1    0    0    0  501 -0.00000000000E+00  0.00000000000E+00  0.10889332435E+03  0.10889332435E+03  0.00000000000E+00 0.  1.
          1   -1    0    0  501    0  0.00000000000E+00 -0.00000000000E+00 -0.22185228571E+03  0.22185228571E+03  0.00000000000E+00 0. -1.
         23    2    1    2    0    0  0.10793998563E+03 -0.18552207438E+02 -0.38200131782E+02  0.14843045204E+03  0.92612764379E+02 0.  0.
         23    2    1    2    0    0 -0.10793998563E+03  0.18552207438E+02 -0.74758829578E+02  0.18231515803E+03  0.12511878095E+03 0.  0.
          5    1    4    4  502    0 -0.53978584896E+02  0.67332673700E+02 -0.14171081325E+02  0.87553803578E+02  0.41800000000E+01 0.  1.
         -5    1    4    4    0  502 -0.53961400739E+02 -0.48780466262E+02 -0.60587748253E+02  0.94761354448E+02  0.41800000000E+01 0.  1.
        -11    1    3    3    0    0  0.26027990004E+02  0.21926309885E+01  0.30047419934E+02  0.39813456758E+02  0.00000000000E+00 0.  1.
         11    1    3    3    0    0  0.81911995631E+02 -0.20744838427E+02 -0.68247551716E+02  0.10861699529E+03  0.00000000000E+00 0. -1.
</event>
<event>
 8    1  0.5900800E-006  0.9255176E+02  0.7561462E-02  0.1296787E+00
         -1   -1    0    0    0  501 -0.00000000000E+00  0.00000000000E+00  0.29525163061E+02  0.29525163061E+02  0.00000000000E+00 0.  1.
          1   -1    0    0  501    0  0.00000000000E+00 -0.00000000000E+00 -0.49705966770E+03  0.49705966770E+03  0.00000000000E+00 0. -1.
         23    2    1    2    0    0  0.27467438658E+02  0.32270688723E+02 -0.10992980143E+03  0.14537092063E+03  0.85160353374E+02 0.  0.
         23    2    1    2    0    0 -0.27467438658E+02 -0.32270688723E+02 -0.35760470321E+03  0.38121391012E+03  0.12508822478E+03 0.  0.
          5    1    4    4  502    0  0.43480954124E+02 -0.45726422468E+00 -0.20822143680E+03  0.21275441618E+03  0.41800000000E+01 0.  1.
         -5    1    4    4    0  502 -0.70948392781E+02 -0.31813424498E+02 -0.14938326641E+03  0.16845949394E+03  0.41800000000E+01 0.  1.
        -11    1    3    3    0    0 -0.13149986018E+02  0.13370413916E+02 -0.96924210679E+02  0.98721794535E+02  0.00000000000E+00 0.  1.
         11    1    3    3    0    0  0.40617424675E+02  0.18900274807E+02 -0.13005590750E+02  0.46649126099E+02  0.00000000000E+00 0. -1.
</event>
<event>
 8    1  0.5900800E-006  0.1507439E+03  0.7561462E-02  0.1199562E+00
         -2   -1    0    0    0  501 -0.00000000000E+00  0.00000000000E+00  0.33260590984E+02  0.33260590984E+02  0.00000000000E+00 0. -1.
          2   -1    0    0  501    0  0.00000000000E+00 -0.00000000000E+00 -0.90620065210E+03  0.90620065210E+03  0.00000000000E+00 0.  1.
         23    2    1    2    0    0  0.10800012103E+03  0.67509335911E+01 -0.18982142390E+03  0.23660427415E+03  0.90773389987E+02 0.  0.
         23    2    1    2    0    0 -0.10800012103E+03 -0.67509335911E+01 -0.68311863722E+03  0.70285696893E+03  0.12508894843E+03 0.  0.
          5    1    4    4  502    0  0.20748175745E+02 -0.22008172627E+02 -0.21273992452E+03  0.21491997195E+03  0.41800000000E+01 0. -1.
         -5    1    4    4    0  502 -0.12874829677E+03  0.15257239036E+02 -0.47037871270E+03  0.48793699698E+03  0.41800000000E+01 0. -1.
        -11    1    3    3    0    0  0.44086180742E+02  0.47995992653E+02 -0.86590972141E+02  0.10837528823E+03  0.00000000000E+00 0.  1.
         11    1    3    3    0    0  0.63913940283E+02 -0.41245059062E+02 -0.10323045176E+03  0.12822898592E+03  0.00000000000E+00 0. -1.
</event>
<event>
 8    1  0.5900800E-006  0.1521452E+03  0.7561462E-02  0.1197861E+00
          1   -1    0    0  501    0  0.00000000000E+00  0.00000000000E+00  0.80238034430E+03  0.80238034430E+03  0.00000000000E+00 0. -1.
         -1   -1    0    0    0  501 -0.00000000000E+00 -0.00000000000E+00 -0.40465731809E+02  0.40465731809E+02  0.00000000000E+00 0.  1.
         23    2    1    2    0    0  0.78927875148E+02  0.11285506088E+03  0.24886567416E+03  0.29710554795E+03  0.85858654818E+02 0.  0.
         23    2    1    2    0    0 -0.78927875148E+02 -0.11285506088E+03  0.51304893834E+03  0.54574052816E+03  0.12509051407E+03 0.  0.
          5    1    4    4  502    0 -0.78861251451E+02 -0.79757179761E+02  0.18779454948E+03  0.21877972922E+03  0.41800000000E+01 0.  1.
         -5    1    4    4    0  502 -0.66623696552E-01 -0.33097881119E+02  0.32525438886E+03  0.32696079894E+03  0.41800000000E+01 0.  1.
        -11    1    3    3    0    0  0.56587759213E+02  0.15314244622E+02  0.63282463548E+02  0.86263380260E+02  0.00000000000E+00 0.  1.
         11    1    3    3    0    0  0.22340115935E+02  0.97540816258E+02  0.18558321061E+03  0.21084216769E+03  0.00000000000E+00 0. -1.
</event>
<event>
 8    1  0.5900800E-006  0.1413268E+03  0.7561462E-02  0.1211555E+00
         -1   -1    0    0    0  501 -0.00000000000E+00  0.00000000000E+00  0.53511314618E+02  0.53511314618E+02  0.00000000000E+00 0.  1.
          1   -1    0    0  501    0  0.00000000000E+00 -0.00000000000E+00 -0.51990440698E+03  0.51990440698E+03  0.00000000000E+00 0. -1.
         23    2    1    2    0    0 -0.70404646585E+02  0.74429067660E+02 -0.10308182773E+03  0.17574920354E+03  0.98820134404E+02 0.  0.
         23    2    1    2    0    0  0.70404646585E+02 -0.74429067660E+02 -0.36331126464E+03  0.39766651806E+03  0.12508830561E+03 0.  0.
          5    1    4    4  502    0  0.66423132886E+02  0.13400831266E+02 -0.10757087146E+03  0.12720290739E+03  0.41800000000E+01 0.  1.
         -5    1    4    4    0  502  0.39815136993E+01 -0.87829898926E+02 -0.25574039318E+03  0.27046361067E+03  0.41800000000E+01 0.  1.
        -11    1    3    3    0    0 -0.33842208768E+02 -0.95389630046E+01  0.33715240926E+01  0.35322147220E+02  0.00000000000E+00 0.  1.
         11    1    3    3    0    0 -0.36562437816E+02  0.83968030665E+02 -0.10645335182E+03  0.14042705632E+03  0.00000000000E+00 0. -1.
</event>
<event>
 8    1  0.5900800E-006  0.7087501E+02  0.7561462E-02  0.1357143E+00
         -3   -1    0    0    0  501 -0.00000000000E+00  0.00000000000E+00  0.11208747101E+03  0.11208747101E+03  0.00000000000E+00 0.  1.
          3   -1    0    0  501    0  0.00000000000E+00 -0.00000000000E+00 -0.14663423733E+03  0.14663423733E+03  0.00000000000E+00 0. -1.
         23    2    1    2    0    0 -0.11304638349E+02 -0.11175532543E+02  0.55370519701E+02  0.10384959100E+03  0.86406919413E+02 0.  0.
         23    2    1    2    0    0  0.11304638349E+02  0.11175532543E+02 -0.89917286026E+02  0.15487211735E+03  0.12509023555E+03 0.  0.
          5    1    4    4  502    0  0.50167891622E+02  0.75405977132E+01 -0.10183350311E+03  0.11384732197E+03  0.41800000000E+01 0. -1.
         -5    1    4    4    0  502 -0.38863253273E+02  0.36349348298E+01  0.11916217084E+02  0.41024795378E+02  0.41800000000E+01 0. -1.
        -11    1    3    3    0    0 -0.18873463501E+02  0.15147971397E+02  0.69097042869E+02  0.73212498900E+02  0.00000000000E+00 0.  1.
         11    1    3    3    0    0  0.75688251525E+01 -0.26323503940E+02 -0.13726523168E+02  0.30637092097E+02  0.00000000000E+00 0. -1.
</event>
<event>
 8    1  0.5900800E-006  0.1229340E+03  0.7561462E-02  0.1238334E+00
         -1   -1    0    0    0  501 -0.00000000000E+00  0.00000000000E+00  0.23596049867E+03  0.23596049867E+03  0.00000000000E+00 0.  1.
          1   -1    0    0  501    0  0.00000000000E+00 -0.00000000000E+00 -0.80402877961E+02  0.80402877961E+02  0.00000000000E+00 0. -1.
         23    2    1    2    0    0 -0.21435218037E+02  0.48067923810E+02  0.12518826991E+03  0.17729591406E+03  0.11398133333E+03 0.  0.
         23    2    1    2    0    0  0.21435218037E+02 -0.48067923810E+02  0.30369350800E+02  0.13906746257E+03  0.12508983895E+03 0.  0.
          5    1    4    4  502    0 -0.51837212474E+02 -0.27820063603E+02  0.19744595376E+02  0.62196253766E+02  0.41800000000E+01 0.  1.
         -5    1    4    4    0  502  0.73272430511E+02 -0.20247860206E+02  0.10624755424E+02  0.76871208809E+02  0.41800000000E+01 0.  1.
        -11    1    3    3    0    0 -0.44144916753E+02  0.67643150720E+02  0.12310892932E+03  0.14724190298E+03  0.00000000000E+00 0.  1.
         11    1    3    3    0    0  0.22709698716E+02 -0.19575226910E+02  0.20793405835E+01  0.30054011074E+02  0.00000000000E+00 0. -1.
</event>
<event>
 8    1  0.5900800E-006  0.1600500E+03  0.7561462E-02  0.1188640E+00
          1   -1    0    0  501    0  0.00000000000E+00  0.00000000000E+00  0.70622941505E+02  0.70622941505E+02  0.00000000000E+00 0. -1.
         -1   -1    0    0    0  501 -0.00000000000E+00 -0.00000000000E+00 -0.56888049019E+03  0.56888049019E+03  0.00000000000E+00 0.  1.
         23    2    1    2    0    0  0.14939942965E+03  0.56119819188E+02 -0.32152396405E+03  0.37052132445E+03  0.91862771153E+02 0.  0.
         23    2    1    2    0    0 -0.14939942965E+03 -0.56119819188E+02 -0.17673358463E+03  0.26898210724E+03  0.12508793065E+03 0.  0.
          5    1    4    4  502    0 -0.77572637105E+02 -0.21422257166E+02 -0.63870904526E+01  0.80837456998E+02  0.41800000000E+01 0.  1.
         -5    1    4    4    0  502 -0.71826792549E+02 -0.34697562022E+02 -0.17034649418E+03  0.18814465025E+03  0.41800000000E+01 0.  1.
        -11    1    3    3    0    0  0.10200892211E+03  0.36420277291E+02 -0.11609064612E+03  0.15877435216E+03  0.00000000000E+00 0.  1.
         11    1    3    3    0    0  0.47390507548E+02  0.19699541897E+02 -0.20543331793E+03  0.21174697229E+03  0.00000000000E+00 0. -1.
</event>
<event>
 8    1  0.5900800E-006  0.1461928E+03  0.7561462E-02  0.1205231E+00
          1   -1    0    0  501    0  0.00000000000E+00  0.00000000000E+00  0.38775096059E+03  0.38775096059E+03  0.00000000000E+00 0. -1.
         -1   -1    0    0    0  501 -0.00000000000E+00 -0.00000000000E+00 -0.12902330825E+03  0.12902330825E+03  0.00000000000E+00 0.  1.
         23    2    1    2    0    0 -0.21865383060E+01 -0.12059060856E+03 -0.53386148205E+02  0.15954844812E+03  0.89770544470E+02 0.  0.
         23    2    1    2    0    0  0.21865383060E+01  0.12059060856E+03  0.31211380054E+03  0.35722582072E+03  0.12509351174E+03 0.  0.
          5    1    4    4  502    0  0.29329542285E+02 -0.20613114431E+01  0.14561451636E+03  0.14861201442E+03  0.41800000000E+01 0.  1.
         -5    1    4    4    0  502 -0.27143003979E+02  0.12265192000E+03  0.16649928418E+03  0.20861380629E+03  0.41800000000E+01 0.  1.
        -11    1    3    3    0    0  0.25168741348E+02 -0.99001946235E+02 -0.66969755461E+02  0.12214662929E+03  0.00000000000E+00 0.  1.
         11    1    3    3    0    0 -0.27355279654E+02 -0.21588662324E+02  0.13583607256E+02  0.37401818833E+02  0.00000000000E+00 0. -1.
</event>
<event>
 8    1  0.5900800E-006  0.8019129E+02  0.7561462E-02  0.1328509E+00
         -1   -1    0    0    0  501 -0.00000000000E+00  0.00000000000E+00  0.18910362550E+03  0.18910362550E+03  0.00000000000E+00 0.  1.
          1   -1    0    0  501    0  0.00000000000E+00 -0.00000000000E+00 -0.67578511270E+02  0.67578511270E+02  0.00000000000E+00 0. -1.
         23    2    1    2    0    0  0.69976339989E+01  0.24072208975E+02  0.78026966899E+02  0.12189228232E+03  0.90227949102E+02 0.  0.
         23    2    1    2    0    0 -0.69976339989E+01 -0.24072208975E+02  0.43498147336E+02  0.13478985445E+03  0.12509107848E+03 0.  0.
          5    1    4    4  502    0 -0.58511601518E+02 -0.38269087856E+02  0.79832666389E+01  0.70493514197E+02  0.41800000000E+01 0. -1.
         -5    1    4    4    0  502  0.51513967520E+02  0.14196878881E+02  0.35514880697E+02  0.64296340257E+02  0.41800000000E+01 0. -1.
        -11    1    3    3    0    0  0.17325698878E+02  0.16624840930E+02  0.96507533420E+02  0.99449832500E+02  0.00000000000E+00 0.  1.
         11    1    3    3    0    0 -0.10328064879E+02  0.74473680454E+01 -0.18480566521E+02  0.22442449819E+02  0.00000000000E+00 0. -1.
</event>
<event>
 8    1  0.5900800E-006  0.1372078E+03  0.7561462E-02  0.1217136E+00
          1   -1    0    0  501    0  0.00000000000E+00  0.00000000000E+00  0.18068442696E+04  0.18068442696E+04  0.00000000000E+00 0. -1.
         -1   -1    0    0    0  501 -0.00000000000E+00 -0.00000000000E+00 -0.10871574207E+02  0.10871574207E+02  0.00000000000E+00 0.  1.
         23    2    1    2    0    0 -0.34720386735E+01  0.92016496800E+02  0.65677185302E+03  0.66797453428E+03  0.79759769198E+02 0.  0.
         23    2    1    2    0    0  0.34720386735E+01 -0.92016496800E+02  0.11392008424E+04  0.11497413095E+04  0.12508968323E+03 0.  0.
          5    1    4    4  502    0  0.12308291982E+02  0.28697510881E+02  0.33414417178E+03  0.33562604356E+03  0.41800000000E+01 0.  1.
         -5    1    4    4    0  502 -0.88362533088E+01 -0.12071400768E+03  0.80505667061E+03  0.81411526599E+03  0.41800000000E+01 0.  1.
        -11    1    3    3    0    0 -0.28856096371E+02  0.27386050527E+01  0.15116459963E+03  0.15391851883E+03  0.00000000000E+00 0.  1.
         11    1    3    3    0    0  0.25384057698E+02  0.89277891748E+02  0.50560725339E+03  0.51405601545E+03  0.00000000000E+00 0. -1.
</event>
<event>
 8    1  0.5900800E-006  0.1740164E+03  0.7561462E-02  0.1173723E+00
          2   -1    0    0  501    0  0.00000000000E+00  0.00000000000E+00  0.44496112505E+02  0.44496112505E+02  0.00000000000E+00 0.  1.
         -2   -1    0    0    0  501 -0.00000000000E+00 -0.00000000000E+00 -0.87391957075E+03  0.87391957075E+03  0.00000000000E+00 0. -1.
         23    2    1    2    0    0 -0.15901043008E+03  0.31052956248E+02 -0.45641776232E+03  0.49293993759E+03  0.91782380343E+02 0.  0.
         23    2    1    2    0    0  0.15901043008E+03 -0.31052956248E+02 -0.37300569592E+03  0.42547574566E+03  0.12509099885E+03 0.  0.
          5    1    4    4  502    0  0.12235925386E+03 -0.56154305148E+02 -0.16628043197E+03  0.21399006390E+03  0.41800000000E+01 0. -1.
         -5    1    4    4    0  502  0.36651176214E+02  0.25101348900E+02 -0.20672526395E+03  0.21148568176E+03  0.41800000000E+01 0. -1.
        -11    1    3    3    0    0 -0.21454914314E+02  0.22209266441E+02 -0.24074607711E+02  0.39155479828E+02  0.00000000000E+00 0. -1.
         11    1    3    3    0    0 -0.13755551576E+03  0.88436898065E+01 -0.43234315461E+03  0.45378445776E+03  0.00000000000E+00 0.  1.
</event>
<event>
 8    1  0.5900800E-006  0.1662975E+03  0.7561462E-02  0.1181765E+00
         -2   -1    0    0    0  501 -0.00000000000E+00  0.00000000000E+00  0.47311439252E+02  0.47311439252E+02  0.00000000000E+00 0.  1.
          2   -1    0    0  501    0  0.00000000000E+00 -0.00000000000E+00 -0.83244701544E+03  0.83244701544E+03  0.00000000000E+00 0. -1.
         23    2    1    2    0    0  0.12513866807E+03 -0.77940857599E+02 -0.20578347297E+03  0.26899575883E+03  0.90980311006E+02 0.  0.
         23    2    1    2    0    0 -0.12513866807E+03  0.77940857599E+02 -0.57935210322E+03  0.61076269586E+03  0.12509095740E+03 0.  0.
          5    1    4    4  502    0 -0.71526953553E+01 -0.18770395065E+02 -0.13188763951E+02  0.24390667812E+02  0.41800000000E+01 0. -1.
         -5    1    4    4    0  502 -0.11798597272E+03  0.96711252664E+02 -0.56616333927E+03  0.58637202805E+03  0.41800000000E+01 0. -1.
        -11    1    3    3    0    0  0.58322927400E+02 -0.71598799207E+02 -0.64684683907E+02  0.11274777266E+03  0.00000000000E+00 0. -1.
         11    1    3    3    0    0  0.66815740673E+02 -0.63420583919E+01 -0.14109878906E+03  0.15624798616E+03  0.00000000000E+00 0.  1.
</event>
<event>
 8    1  0.5900800E-006  0.1190263E+03  0.7561462E-02  0.1244712E+00
          2   -1    0    0  501    0  0.00000000000E+00  0.00000000000E+00  0.61612322752E+02  0.61612322752E+02  0.00000000000E+00 0.  1.
         -2   -1    0    0    0  501 -0.00000000000E+00 -0.00000000000E+00 -0.25405642288E+03  0.25405642288E+03  0.00000000000E+00 0. -1.
         23    2    1    2    0    0 -0.14996779323E+02 -0.59242015577E+02 -0.10719474439E+03  0.15242390700E+03  0.89486392253E+02 0.  0.
         23    2    1    2    0    0  0.14996779323E+02  0.59242015577E+02 -0.85249355733E+02  0.16324483863E+03  0.12508758887E+03 0.  0.
          5    1    4    4  502    0 -0.53370043410E+02  0.35012738356E+02 -0.55675807355E+02  0.84802837838E+02  0.41800000000E+01 0. -1.
         -5    1    4    4    0  502  0.68366822733E+02  0.24229277222E+02 -0.29573548378E+02  0.78442000797E+02  0.41800000000E+01 0. -1.
        -11    1    3    3    0    0 -0.33131425735E+02  0.60407425941E+01 -0.63276096729E+02  0.71680167129E+02  0.00000000000E+00 0. -1.
         11    1    3    3    0    0  0.18134646412E+02 -0.65282758171E+02 -0.43918647664E+02  0.80743739866E+02  0.00000000000E+00 0.  1.
</event>
<event>
 8    1  0.5900800E-006  0.1431005E+03  0.7561462E-02  0.1209217E+00
         -2   -1    0    0    0  501 -0.00000000000E+00  0.00000000000E+00  0.30365099887E+02  0.30365099887E+02  0.00000000000E+00 0.  1.
          2   -1    0    0  501    0  0.00000000000E+00 -0.00000000000E+00 -0.20440548570E+04  0.20440548570E+04  0.00000000000E+00 0. -1.
         23    2    1    2    0    0  0.88284392147E+02 -0.83110769555E+02 -0.19176517705E+03  0.24418551127E+03  0.90283702161E+02 0.  0.
         23    2    1    2    0    0 -0.88284392147E+02  0.83110769555E+02 -0.18219245800E+04  0.18302344456E+04  0.12508963404E+03 0.  0.
          5    1    4    4  502    0 -0.44432982324E+02  0.10104965056E+03 -0.15685029111E+04  0.15723880489E+04  0.41800000000E+01 0.  1.
         -5    1    4    4    0  502 -0.43851409824E+02 -0.17938881007E+02 -0.25342166891E+03  0.25784639666E+03  0.41800000000E+01 0.  1.
        -11    1    3    3    0    0  0.51041520278E+02 -0.19856362674E+02 -0.21618325817E+02  0.58880081030E+02  0.00000000000E+00 0.  1.
         11    1    3    3    0    0  0.37242871869E+02 -0.63254406881E+02 -0.17014685123E+03  0.18530543024E+03  0.00000000000E+00 0. -1.
</event>
<event>
 8    1  0.5900800E-006  0.1160769E+03  0.7561462E-02  0.1249713E+00
         -2   -1    0    0    0  501 -0.00000000000E+00  0.00000000000E+00  0.16860640266E+03  0.16860640266E+03  0.00000000000E+00 0.  1.
          2   -1    0    0  501    0  0.00000000000E+00 -0.00000000000E+00 -0.13569542865E+03  0.13569542865E+03  0.00000000000E+00 0. -1.
         23    2    1    2    0    0 -0.50280189182E+02 -0.38547591554E+02  0.98477130785E+02  0.14951584373E+03  0.92968962561E+02 0.  0.
         23    2    1    2    0    0  0.50280189182E+02  0.38547591554E+02 -0.65566156770E+02  0.15478598758E+03  0.12508303961E+03 0.  0.
          5    1    4    4  502    0  0.28481728883E+02  0.78251659548E+02 -0.70291145027E+02  0.10905433770E+03  0.41800000000E+01 0. -1.
         -5    1    4    4    0  502  0.21798460300E+02 -0.39704067994E+02  0.47249882567E+01  0.45731649880E+02  0.41800000000E+01 0. -1.
        -11    1    3    3    0    0 -0.11963517213E+02 -0.58761202508E+02  0.85233930569E+02  0.10421529439E+03  0.00000000000E+00 0.  1.
         11    1    3    3    0    0 -0.38316671969E+02  0.20213610954E+02  0.13243200216E+02  0.45300549341E+02  0.00000000000E+00 0. -1.
</event>
<event>
 8    1  0.5900800E-006  0.9515330E+02  0.7561462E-02  0.1290831E+00
         -1   -1    0    0    0  501 -0.00000000000E+00  0.00000000000E+00  0.26227917744E+02  0.26227917744E+02  0.00000000000E+00 0.  1.
          1   -1    0    0  501    0  0.00000000000E+00 -0.00000000000E+00 -0.69283426535E+03  0.69283426535E+03  0.00000000000E+00 0. -1.
         23    2    1    2    0    0  0.17077047124E+02 -0.69358391856E+02 -0.19925423313E+03  0.23002283608E+03  0.90033569515E+02 0.  0.
         23    2    1    2    0    0 -0.17077047124E+02  0.69358391856E+02 -0.46735211448E+03  0.48903934701E+03  0.12505707481E+03 0.  0.
          5    1    4    4  502    0  0.27893700880E+02  0.30185133249E+02 -0.38534227718E+03  0.38755044034E+03  0.41800000000E+01 0. -1.
         -5    1    4    4    0  502 -0.44970748004E+02  0.39173258607E+02 -0.82009837293E+02  0.10148890668E+03  0.41800000000E+01 0. -1.
        -11    1    3    3    0    0  0.36564912756E+02 -0.47027667263E+02 -0.49759249753E+02  0.77618150384E+02  0.00000000000E+00 0.  1.
         11    1    3    3    0    0 -0.19487865633E+02 -0.22330724593E+02 -0.14949498337E+03  0.15240468569E+03  0.00000000000E+00 0. -1.
</event>
<event>
 8    1  0.5900800E-006  0.1216496E+03  0.7561462E-02  0.1240400E+00
         -2   -1    0    0    0  501 -0.00000000000E+00  0.00000000000E+00  0.12746202421E+03  0.12746202421E+03  0.00000000000E+00 0.  1.
          2   -1    0    0  501    0  0.00000000000E+00 -0.00000000000E+00 -0.14628377592E+03  0.14628377592E+03  0.00000000000E+00 0. -1.
         23    2    1    2    0    0  0.33466907972E+02  0.55462856815E+02  0.42284572381E+02  0.12018960604E+03  0.91985835453E+02 0.  0.
         23    2    1    2    0    0 -0.33466907972E+02 -0.55462856815E+02 -0.61106324095E+02  0.15355619409E+03  0.12509739998E+03 0.  0.
          5    1    4    4  502    0 -0.74567500771E+02 -0.22090099258E+02 -0.63359775967E+02  0.10040029017E+03  0.41800000000E+01 0. -1.
         -5    1    4    4    0  502  0.41100592800E+02 -0.33372757556E+02  0.22534518724E+01  0.53155903912E+02  0.41800000000E+01 0. -1.
        -11    1    3    3    0    0  0.58649176570E+02  0.62949113691E+02  0.29337417307E+02  0.90901049945E+02  0.00000000000E+00 0. -1.
         11    1    3    3    0    0 -0.25182268598E+02 -0.74862568763E+01  0.12947155074E+02  0.29288556098E+02  0.00000000000E+00 0.  1.
</event>
<event>
 7    1  0.5900800E-006  0.1789043E+03  0.7561462E-02  0.1168868E+00
          1   -1    0    0  501    0  0.00000000000E+00  0.00000000000E+00  0.56279285467E+03  0.56279285467E+03  0.00000000000E+00 0. -1.
         -1   -1    0    0    0  501 -0.00000000000E+00 -0.00000000000E+00 -0.78989880841E+02  0.78989880841E+02  0.00000000000E+00 0.  1.
         23    2    1    2    0    0 -0.66264060221E+02  0.72001403778E+02  0.81291335853E+02  0.15707670932E+03  0.92139478519E+02 0.  0.
          5    1    1    2  502    0  0.14705047513E+03 -0.93894401771E+02  0.19941162361E+03  0.26499522439E+03  0.41800000000E+01 0. -1.
         -5    1    1    2    0  502 -0.80786414905E+02  0.21892997993E+02  0.20310001437E+03  0.21971080181E+03  0.41800000000E+01 0.  1.
        -11    1    3    3    0    0 -0.10823729289E+02  0.35377164737E+01  0.66840255754E+02  0.67803306282E+02  0.00000000000E+00 0. -1.
         11    1    3    3    0    0 -0.55440330932E+02  0.68463687304E+02  0.14451080099E+02  0.89273403034E+02  0.00000000000E+00 0.  1.
</event>
<event>
 8    1  0.5900800E-006  0.1106471E+03  0.7561462E-02  0.1259376E+00
         -1   -1    0    0    0  501 -0.00000000000E+00  0.00000000000E+00  0.16311746188E+02  0.16311746188E+02  0.00000000000E+00 0.  1.
          1   -1    0    0  501    0  0.00000000000E+00 -0.00000000000E+00 -0.12864044018E+04  0.12864044018E+04  0.00000000000E+00 0. -1.
         23    2    1    2    0    0 -0.18228702586E+02 -0.15163452633E+02 -0.16899354629E+03  0.19428060571E+03  0.92865058957E+02 0.  0.
         23    2    1    2    0    0  0.18228702586E+02  0.15163452633E+02 -0.11010991093E+04  0.11084355423E+04  0.12509151424E+03 0.  0.
          5    1    4    4  502    0  0.69803172027E+02  0.22671597182E+02 -0.72547611104E+03  0.72919102040E+03  0.41800000000E+01 0.  1.
         -5    1    4    4    0  502 -0.51574469441E+02 -0.75081445496E+01 -0.37562299827E+03  0.37924452186E+03  0.41800000000E+01 0.  1.
        -11    1    3    3    0    0  0.11294456341E+02 -0.49177233560E+02 -0.97504905995E+02  0.10978693792E+03  0.00000000000E+00 0. -1.
         11    1    3    3    0    0 -0.29523158927E+02  0.34013780928E+02 -0.71488640292E+02  0.84493667791E+02  0.00000000000E+00 0.  1.
</event>
<event>
 8    1  0.6163323E-006  0.4260014E+03  0.7561462E-02  0.1035131E+00
          1   -1    0    0  501    0  0.00000000000E+00  0.00000000000E+00  0.41395456998E+03  0.41395456998E+03  0.00000000000E+00 0. -1.
         -1   -1    0    0    0  501 -0.00000000000E+00 -0.00000000000E+00 -0.52113411778E+03  0.52113411778E+03  0.00000000000E+00 0.  1.
         23    2    1    2    0    0  0.40079953979E+03 -0.11908262972E+03 -0.22426518084E+03  0.48322870449E+03  0.91619679707E+02 0.  0.
         23    2    1    2    0    0 -0.40079953979E+03  0.11908262972E+03  0.11708563304E+03  0.45185998327E+03  0.12508978862E+03 0.  0.
          5    1    4    4  502    0 -0.68865603121E+02 -0.11078383776E+02 -0.15263141891E+02  0.71523686850E+02  0.41800000000E+01 0. -1.
         -5    1    4    4    0  502 -0.33193393667E+03  0.13016101350E+03  0.13234877493E+03  0.38033629642E+03  0.41800000000E+01 0. -1.
        -11    1    3    3    0    0  0.19766086212E+03 -0.17487694117E+02 -0.13055098311E+03  0.23752725117E+03  0.00000000000E+00 0.  1.
         11    1    3    3    0    0  0.20313867768E+03 -0.10159493560E+03 -0.93714197734E+02  0.24570145332E+03  0.00000000000E+00 0. -1.
</event>
<event>
 8    1  0.5900800E-006  0.8775187E+02  0.7561462E-02  0.1308389E+00
         -2   -1    0    0    0  501 -0.00000000000E+00  0.00000000000E+00  0.91761773182E+02  0.91761773182E+02  0.00000000000E+00 0.  1.
          2   -1    0    0  501    0  0.00000000000E+00 -0.00000000000E+00 -0.17279753980E+03  0.17279753980E+03  0.00000000000E+00 0. -1.
         23    2    1    2    0    0 -0.48627632148E+02  0.40634729240E+02 -0.33195607358E+02  0.11639770747E+03  0.91818571806E+02 0.  0.
         23    2    1    2    0    0  0.48627632148E+02 -0.40634729240E+02 -0.47840159262E+02  0.14816160551E+03  0.12508937877E+03 0.  0.
          5    1    4    4  502    0  0.32929470040E+02 -0.50030208906E+02  0.30683613964E+02  0.67426466363E+02  0.41800000000E+01 0. -1.
         -5    1    4    4    0  502  0.15698162108E+02  0.93954796657E+01 -0.78523773226E+02  0.80735139148E+02  0.41800000000E+01 0. -1.
        -11    1    3    3    0    0 -0.59645501609E+02  0.55271240099E+01  0.88206360565E+01  0.60546994826E+02  0.00000000000E+00 0.  1.
         11    1    3    3    0    0  0.11017869462E+02  0.35107605230E+02 -0.42016243415E+02  0.55850712647E+02  0.00000000000E+00 0. -1.
</event>
<event>
 7    1  0.5900800E-006  0.1144009E+03  0.7561462E-02  0.1252631E+00
          2   -1    0    0  501    0  0.00000000000E+00  0.00000000000E+00  0.90088767721E+03  0.90088767721E+03  0.00000000000E+00 0. -1.
         -2   -1    0    0    0  501 -0.00000000000E+00 -0.00000000000E+00 -0.20578929650E+02  0.20578929650E+02  0.00000000000E+00 0.  1.
         23    2    1    2    0    0 -0.51647383892E+02  0.17815834104E+02  0.31385076981E+03  0.32824131325E+03  0.79089808452E+02 0.  0.
          5    1    1    2  502    0 -0.17084998016E+02 -0.55372882689E+02  0.44410892871E+03  0.44789314156E+03  0.41800000000E+01 0. -1.
         -5    1    1    2    0  502  0.68732381908E+02  0.37557048586E+02  0.12234904904E+03  0.14533215206E+03  0.41800000000E+01 0.  1.
        -11    1    3    3    0    0 -0.58318885413E+02  0.38933317568E+02  0.19221120384E+03  0.20460215662E+03  0.00000000000E+00 0. -1.
         11    1    3    3    0    0  0.66715015214E+01 -0.21117483465E+02  0.12163956597E+03  0.12363915662E+03  0.00000000000E+00 0.  1.
</event>
<event>
 8    1  0.5900800E-006  0.1378033E+03  0.7561462E-02  0.1216316E+00
         -1   -1    0    0    0  501 -0.00000000000E+00  0.00000000000E+00  0.46136141523E+02  0.46136141523E+02  0.00000000000E+00 0.  1.
          1   -1    0    0  501    0  0.00000000000E+00 -0.00000000000E+00 -0.50895521097E+03  0.50895521097E+03  0.00000000000E+00 0. -1.
         23    2    1    2    0    0  0.96735973575E+02  0.15493877626E+02 -0.13308442057E+03  0.18906952048E+03  0.91858106592E+02 0.  0.
         23    2    1    2    0    0 -0.96735973575E+02 -0.15493877626E+02 -0.32973464888E+03  0.36602183202E+03  0.12509649882E+03 0.  0.
          5    1    4    4  502    0 -0.10115422349E+03 -0.52078356829E+02 -0.29059896685E+03  0.31210505301E+03  0.41800000000E+01 0. -1.
         -5    1    4    4    0  502  0.44182499166E+01  0.36584479203E+02 -0.39135682026E+02  0.53916779007E+02  0.41800000000E+01 0. -1.
        -11    1    3    3    0    0 -0.46327162399E+01  0.22583399805E+02 -0.58912949109E+02  0.63263003242E+02  0.00000000000E+00 0. -1.
         11    1    3    3    0    0  0.10136868982E+03 -0.70895221793E+01 -0.74171471464E+02  0.12580651723E+03  0.00000000000E+00 0.  1.
</event>
<event>
 8    1  0.5900800E-006  0.1001303E+03  0.7561462E-02  0.1280022E+00
          2   -1    0    0  501    0  0.00000000000E+00  0.00000000000E+00  0.40490697803E+03  0.40490697803E+03  0.00000000000E+00 0. -1.
         -2   -1    0    0    0  501 -0.00000000000E+00 -0.00000000000E+00 -0.64280081689E+02  0.64280081689E+02  0.00000000000E+00 0.  1.
         23    2    1    2    0    0  0.13798766506E+02  0.18314806022E+02 -0.65325017167E+01  0.99467273061E+02  0.96567213664E+02 0.  0.
         23    2    1    2    0    0 -0.13798766506E+02 -0.18314806022E+02  0.34715939805E+03  0.36971978665E+03  0.12508890802E+03 0.  0.
          5    1    4    4  502    0  0.48077444308E+02  0.85313022277E+01  0.22339671818E+03  0.22870896323E+03  0.41800000000E+01 0.  1.
         -5    1    4    4    0  502 -0.61876210814E+02 -0.26846108250E+02  0.12376267988E+03  0.14101082343E+03  0.41800000000E+01 0.  1.
        -11    1    3    3    0    0  0.30132373947E+02 -0.23868094631E+02  0.23607943143E+02  0.45110762357E+02  0.00000000000E+00 0. -1.
         11    1    3    3    0    0 -0.16333607441E+02  0.42182900653E+02 -0.30140444860E+02  0.54356510704E+02  0.00000000000E+00 0.  1.
</event>
<event>
 8    1  0.5900800E-006  0.1125337E+03  0.7561462E-02  0.1255949E+00
         -1   -1    0    0    0  501 -0.00000000000E+00  0.00000000000E+00  0.11136953113E+03  0.11136953113E+03  0.00000000000E+00 0.  1.
          1   -1    0    0  501    0  0.00000000000E+00 -0.00000000000E+00 -0.17103967797E+03  0.17103967797E+03  0.00000000000E+00 0. -1.
         23    2    1    2    0    0 -0.68510889184E+02 -0.19759683914E+02  0.19736057114E+02  0.11798954715E+03  0.91912100629E+02 0.  0.
         23    2    1    2    0    0  0.68510889184E+02  0.19759683914E+02 -0.79406203955E+02  0.16441966195E+03  0.12507714805E+03 0.  0.
          5    1    4    4  502    0 -0.21372165983E+02  0.29977164255E+02 -0.61963615006E+02  0.72196688568E+02  0.41800000000E+01 0. -1.
         -5    1    4    4    0  502  0.89883055167E+02 -0.10217480340E+02 -0.17442588949E+02  0.92222973385E+02  0.41800000000E+01 0. -1.
        -11    1    3    3    0    0  0.32612847521E+01  0.16657638425E+02  0.32342012568E+02  0.36525589291E+02  0.00000000000E+00 0.  1.
         11    1    3    3    0    0 -0.71772173936E+02 -0.36417322339E+02 -0.12605955453E+02  0.81463957863E+02  0.00000000000E+00 0. -1.
</event>
<event>
 8    1  0.5900800E-006  0.9879793E+02  0.7561462E-02  0.1282844E+00
         -2   -1    0    0    0  501 -0.00000000000E+00  0.00000000000E+00  0.32828235608E+02  0.32828235608E+02  0.00000000000E+00 0.  1.
          2   -1    0    0  501    0  0.00000000000E+00 -0.00000000000E+00 -0.54900788761E+03  0.54900788761E+03  0.00000000000E+00 0. -1.
         23    2    1    2    0    0  0.61234389123E+02 -0.49538234267E+02 -0.21894262072E+03  0.24987284596E+03  0.91087215992E+02 0.  0.
         23    2    1    2    0    0 -0.61234389123E+02  0.49538234267E+02 -0.29723703128E+03  0.33196327725E+03  0.12508428204E+03 0.  0.
          5    1    4    4  502    0 -0.71819768420E+02  0.53242224164E+02 -0.30489157126E+03  0.31775644163E+03  0.41800000000E+01 0.  1.
         -5    1    4    4    0  502  0.10585379297E+02 -0.37039898964E+01  0.76545399835E+01  0.14206835622E+02  0.41800000000E+01 0.  1.
        -11    1    3    3    0    0 -0.10569385989E+02 -0.67647045410E+01  0.28386663780E+01  0.12865891906E+02  0.00000000000E+00 0.  1.
         11    1    3    3    0    0  0.71803775113E+02 -0.42773529726E+02 -0.22178128710E+03  0.23700695406E+03  0.00000000000E+00 0. -1.
</event>
<event>
 8    1  0.5900800E-006  0.1496173E+03  0.7561462E-02  0.1200944E+00
          2   -1    0    0  501    0  0.00000000000E+00  0.00000000000E+00  0.15491045321E+04  0.15491045321E+04  0.00000000000E+00 0. -1.
         -2   -1    0    0    0  501 -0.00000000000E+00 -0.00000000000E+00 -0.21205845310E+02  0.21205845310E+02  0.00000000000E+00 0.  1.
         23    2    1    2    0    0  0.12476505738E+03  0.58145023591E+01  0.41763170997E+03  0.44605945764E+03  0.94618532006E+02 0.  0.
         23    2    1    2    0    0 -0.12476505738E+03 -0.58145023591E+01  0.11102669769E+04  0.11242509198E+04  0.12508893955E+03 0.  0.
          5    1    4    4  502    0 -0.43958626690E+01 -0.46374193145E+02  0.39757426651E+03  0.40031569940E+03  0.41800000000E+01 0.  1.
         -5    1    4    4    0  502 -0.12036919471E+03  0.40559690786E+02  0.71269271035E+03  0.72393522040E+03  0.41800000000E+01 0.  1.
        -11    1    3    3    0    0  0.28119231069E+02 -0.32553650575E+01  0.15287941770E+02  0.32171566967E+02  0.00000000000E+00 0.  1.
         11    1    3    3    0    0  0.96645826314E+02  0.90698674166E+01  0.40234376820E+03  0.41388789067E+03  0.00000000000E+00 0. -1.
</event>
<event>
 8    1  0.5900800E-006  0.1332002E+03  0.7561462E-02  0.1222783E+00
          1   -1    0    0  501    0  0.00000000000E+00  0.00000000000E+00  0.24012689995E+03  0.24012689995E+03  0.00000000000E+00 0. -1.
         -1   -1    0    0    0  501 -0.00000000000E+00 -0.00000000000E+00 -0.75743237319E+02  0.75743237319E+02  0.00000000000E+00 0.  1.
         23    2    1    2    0    0 -0.72636382484E+02 -0.33669507623E+02  0.82279390275E+02  0.14616959519E+03  0.90476365363E+02 0.  0.
         23    2    1    2    0    0  0.72636382484E+02  0.33669507623E+02  0.82104272357E+02  0.16970054208E+03  0.12508989823E+03 0.  0.
          5    1    4    4  502    0  0.10231111853E+03  0.48529605192E+02  0.73824402985E+02  0.13524127488E+03  0.41800000000E+01 0.  1.
         -5    1    4    4    0  502 -0.29674736048E+02 -0.14860097569E+02  0.82798693720E+01  0.34459267202E+02  0.41800000000E+01 0.  1.
        -11    1    3    3    0    0 -0.91926323448E+02 -0.38638588900E+02  0.75686581370E+02  0.12518725212E+03  0.00000000000E+00 0.  1.
         11    1    3    3    0    0  0.19289940965E+02  0.49690812773E+01  0.65928089052E+01  0.20982343063E+02  0.00000000000E+00 0. -1.
</event>
<event>
 8    1  0.5900800E-006  0.1293092E+03  0.7561462E-02  0.1228484E+00
          4   -1    0    0  501    0  0.00000000000E+00  0.00000000000E+00  0.38027258564E+03  0.38027258564E+03  0.00000000000E+00 0. -1.
         -4   -1    0    0    0  501 -0.00000000000E+00 -0.00000000000E+00 -0.66684730574E+02  0.66684730574E+02  0.00000000000E+00 0.  1.
         23    2    1    2    0    0  0.24263887116E+02 -0.10499204513E+03  0.88612461230E+02  0.16789936164E+03  0.93412855614E+02 0.  0.
         23    2    1    2    0    0 -0.24263887116E+02  0.10499204513E+03  0.22497539384E+03  0.27905795458E+03  0.12508936175E+03 0.  0.
          5    1    4    4  502    0  0.18782627847E+02  0.55614633907E+02  0.17424501873E+02  0.61374752781E+02  0.41800000000E+01 0.  1.
         -5    1    4    4    0  502 -0.43046514963E+02  0.49377411224E+02  0.20755089196E+03  0.21768320180E+03  0.41800000000E+01 0.  1.
        -11    1    3    3    0    0 -0.25497633572E+02 -0.66490699769E+02  0.75202394343E+02  0.10356902331E+03  0.00000000000E+00 0. -1.
         11    1    3    3    0    0  0.49761520688E+02 -0.38501345363E+02  0.13410066887E+02  0.64330338331E+02  0.00000000000E+00 0.  1.
</event>
<event>
 8    1  0.5900800E-006  0.9942991E+02  0.7561462E-02  0.1281499E+00
          2   -1    0    0  501    0  0.00000000000E+00  0.00000000000E+00  0.29387786887E+03  0.29387786887E+03  0.00000000000E+00 0. -1.
         -2   -1    0    0    0  501 -0.00000000000E+00 -0.00000000000E+00 -0.54107920930E+02  0.54107920930E+02  0.00000000000E+00 0.  1.
         23    2    1    2    0    0  0.87909330359E+01 -0.59633955465E+02  0.75482509985E+02  0.13287985116E+03  0.91246678753E+02 0.  0.
         23    2    1    2    0    0 -0.87909330359E+01  0.59633955465E+02  0.16428743795E+03  0.21510593863E+03  0.12508682352E+03 0.  0.
          5    1    4    4  502    0 -0.58684780029E+02  0.64613481002E+02  0.90569853943E+02  0.12585378889E+03  0.41800000000E+01 0.  1.
         -5    1    4    4    0  502  0.49893846993E+02 -0.49795255374E+01  0.73717584008E+02  0.89252149746E+02  0.41800000000E+01 0.  1.
        -11    1    3    3    0    0 -0.20338924233E+01 -0.18954139000E+02 -0.20547564408E+02  0.28028530228E+02  0.00000000000E+00 0.  1.
         11    1    3    3    0    0  0.10824825459E+02 -0.40679816465E+02  0.96030074393E+02  0.10485132093E+03  0.00000000000E+00 0. -1.
</event>
<event>
 8    1  0.5900800E-006  0.1218945E+03  0.7561462E-02  0.1240004E+00
          1   -1    0    0  501    0  0.00000000000E+00  0.00000000000E+00  0.67501699703E+03  0.67501699703E+03  0.00000000000E+00 0. -1.
         -1   -1    0    0    0  501 -0.00000000000E+00 -0.00000000000E+00 -0.29509911133E+02  0.29509911133E+02  0.00000000000E+00 0.  1.
         23    2    1    2    0    0  0.65898012145E+02  0.57714450282E+02  0.24675689421E+03  0.27753445578E+03  0.91994040728E+02 0.  0.
         23    2    1    2    0    0 -0.65898012145E+02 -0.57714450282E+02  0.39875019169E+03  0.42699245239E+03  0.12508930108E+03 0.  0.
          5    1    4    4  502    0  0.21824992443E+02  0.19340645252E+02  0.14032222933E+03  0.14338127945E+03  0.41800000000E+01 0.  1.
         -5    1    4    4    0  502 -0.87723004588E+02 -0.77055095534E+02  0.25842796237E+03  0.28361117294E+03  0.41800000000E+01 0.  1.
        -11    1    3    3    0    0  0.21943428224E+02  0.47566771473E+02  0.39989988737E+02  0.65903801026E+02  0.00000000000E+00 0.  1.
         11    1    3    3    0    0  0.43954583921E+02  0.10147678809E+02  0.20676690547E+03  0.21163065475E+03  0.00000000000E+00 0. -1.
</event>
<event>
 8    1  0.5900800E-006  0.1210651E+03  0.7561462E-02  0.1241350E+00
          2   -1    0    0  501    0  0.00000000000E+00  0.00000000000E+00  0.61419235341E+02  0.61419235341E+02  0.00000000000E+00 0. -1.
         -2   -1    0    0    0  501 -0.00000000000E+00 -0.00000000000E+00 -0.29408942257E+03  0.29408942257E+03  0.00000000000E+00 0.  1.
         23    2    1    2    0    0 -0.42414124999E+02 -0.34433508877E+02 -0.18013330282E+03  0.20924658806E+03  0.91386559724E+02 0.  0.
         23    2    1    2    0    0  0.42414124999E+02  0.34433508877E+02 -0.52536884417E+02  0.14626206985E+03  0.12509134391E+03 0.  0.
          5    1    4    4  502    0 -0.44275433643E+02  0.45288739261E+01 -0.16990591715E+02  0.47822351784E+02  0.41800000000E+01 0. -1.
         -5    1    4    4    0  502  0.86689558642E+02  0.29904634950E+02 -0.35546292701E+02  0.98439718071E+02  0.41800000000E+01 0. -1.
        -11    1    3    3    0    0 -0.71136564732E+02 -0.24294017972E+02 -0.11567847358E+03  0.13795694763E+03  0.00000000000E+00 0.  1.
         11    1    3    3    0    0  0.28722439732E+02 -0.10139490905E+02 -0.64454829237E+02  0.71289640425E+02  0.00000000000E+00 0. -1.
</event>
<event>
 8    1  0.5900800E-006  0.1447709E+03  0.7561462E-02  0.1207050E+00
          1   -1    0    0  501    0  0.00000000000E+00  0.00000000000E+00  0.99494155604E+03  0.99494155604E+03  0.00000000000E+00 0. -1.
         -1   -1    0    0    0  501 -0.00000000000E+00 -0.00000000000E+00 -0.22427852130E+02  0.22427852130E+02  0.00000000000E+00 0.  1.
         23    2    1    2    0    0 -0.72339062997E+02 -0.71990271623E+02  0.43188127334E+03  0.45314774467E+03  0.91683722591E+02 0.  0.
         23    2    1    2    0    0  0.72339062997E+02  0.71990271623E+02  0.54063243056E+03  0.56422166350E+03  0.12508845408E+03 0.  0.
          5    1    4    4  502    0  0.22391221594E+02  0.95969174618E+02  0.41971602377E+03  0.43115016211E+03  0.41800000000E+01 0. -1.
         -5    1    4    4    0  502  0.49947841402E+02 -0.23978902995E+02  0.12091640679E+03  0.13307150138E+03  0.41800000000E+01 0. -1.
        -11    1    3    3    0    0 -0.61312918568E+02  0.12026663800E+01  0.15932709744E+03  0.17072154043E+03  0.00000000000E+00 0.  1.
         11    1    3    3    0    0 -0.11026144429E+02 -0.73192938003E+02  0.27255417591E+03  0.28242620424E+03  0.00000000000E+00 0. -1.
</event>
<event>
 8    1  0.5900800E-006  0.1021745E+03  0.7561462E-02  0.1275789E+00
         -1   -1    0    0    0  501 -0.00000000000E+00  0.00000000000E+00  0.32905791750E+02  0.32905791750E+02  0.00000000000E+00 0.  1.
          1   -1    0    0  501    0  0.00000000000E+00 -0.00000000000E+00 -0.39992299638E+03  0.39992299638E+03  0.00000000000E+00 0. -1.
         23    2    1    2    0    0  0.13082270449E+02  0.28450097040E+02 -0.13356816403E+03  0.16613503746E+03  0.93700813269E+02 0.  0.
         23    2    1    2    0    0 -0.13082270449E+02 -0.28450097040E+02 -0.23344904060E+03  0.26669375067E+03  0.12508616338E+03 0.  0.
          5    1    4    4  502    0  0.80848309062E-01  0.48711364758E+02 -0.69556716567E+02  0.85020072998E+02  0.41800000000E+01 0.  1.
         -5    1    4    4    0  502 -0.13163118758E+02 -0.77161461799E+02 -0.16389232404E+03  0.18167367768E+03  0.41800000000E+01 0.  1.
        -11    1    3    3    0    0  0.42215433004E+02  0.13472428710E+02 -0.21263989136E+02  0.49150853025E+02  0.00000000000E+00 0.  1.
         11    1    3    3    0    0 -0.29133162555E+02  0.14977668331E+02 -0.11230417489E+03  0.11698418443E+03  0.00000000000E+00 0. -1.
</event>
<event>
 8    1  0.5900800E-006  0.1175716E+03  0.7561462E-02  0.1247158E+00
         -2   -1    0    0    0  501 -0.00000000000E+00  0.00000000000E+00  0.26129889969E+03  0.26129889969E+03  0.00000000000E+00 0. -1.
          2   -1    0    0  501    0  0.00000000000E+00 -0.00000000000E+00 -0.56979719921E+02  0.56979719921E+02  0.00000000000E+00 0.  1.
         23    2    1    2    0    0  0.34872109561E+02  0.36678405557E+02  0.11931014585E+03  0.15879987054E+03  0.91766652554E+02 0.  0.
         23    2    1    2    0    0 -0.34872109561E+02 -0.36678405557E+02  0.85009033916E+02  0.15947874907E+03  0.12508223734E+03 0.  0.
          5    1    4    4  502    0 -0.58554767438E+02  0.25330610629E+02  0.62112318010E+02  0.89138729367E+02  0.41800000000E+01 0. -1.
         -5    1    4    4    0  502  0.23682657877E+02 -0.62009016186E+02  0.22896715906E+02  0.70340019703E+02  0.41800000000E+01 0. -1.
        -11    1    3    3    0    0  0.52405452917E+02 -0.11305840801E+02  0.57641077023E+02  0.78718786144E+02  0.00000000000E+00 0.  1.
         11    1    3    3    0    0 -0.17533343356E+02  0.47984246358E+02  0.61669068828E+02  0.80081084395E+02  0.00000000000E+00 0. -1.
</event>
<event>
 8    1  0.5900800E-006  0.6737208E+02  0.7561462E-02  0.1369264E+00
          4   -1    0    0  501    0  0.00000000000E+00  0.00000000000E+00  0.36377385276E+02  0.36377385276E+02  0.00000000000E+00 0. -1.
         -4   -1    0    0    0  501 -0.00000000000E+00 -0.00000000000E+00 -0.35597495397E+03  0.35597495397E+03  0.00000000000E+00 0.  1.
         23    2    1    2    0    0 -0.99637539626E+01 -0.21018263887E+02 -0.17621909209E+03  0.20066046497E+03  0.93115036235E+02 0.  0.
         23    2    1    2    0    0  0.99637539626E+01  0.21018263887E+02 -0.14337847660E+03  0.19169187428E+03  0.12508934128E+03 0.  0.
          5    1    4    4  502    0  0.26703783232E+02  0.22058493717E+02  0.10820544222E+02  0.36527055195E+02  0.41800000000E+01 0.  1.
         -5    1    4    4    0  502 -0.16740029269E+02 -0.10402298300E+01 -0.15419902082E+03  0.15516481908E+03  0.41800000000E+01 0.  1.
        -11    1    3    3    0    0  0.13111494120E+02 -0.46430128702E+02 -0.14970551897E+03  0.15728766811E+03  0.00000000000E+00 0.  1.
         11    1    3    3    0    0 -0.23075248083E+02  0.25411864815E+02 -0.26513573121E+02  0.43372796856E+02  0.00000000000E+00 0. -1.
</event>
<event>
 8    1  0.5900800E-006  0.1050105E+03  0.7561462E-02  0.1270099E+00
         -2   -1    0    0    0  501 -0.00000000000E+00  0.00000000000E+00  0.95780879669E+02  0.95780879669E+02  0.00000000000E+00 0.  1.
          2   -1    0    0  501    0  0.00000000000E+00 -0.00000000000E+00 -0.16968947245E+03  0.16968947245E+03  0.00000000000E+00 0. -1.
         23    2    1    2    0    0  0.56408358778E+02  0.36590343509E+01  0.48373400927E+01  0.10721813105E+03  0.90978218785E+02 0.  0.
         23    2    1    2    0    0 -0.56408358778E+02 -0.36590343509E+01 -0.78745932870E+02  0.15825222107E+03  0.12509017570E+03 0.  0.
          5    1    4    4  502    0  0.24432800226E+02  0.28564250771E+02 -0.57078951075E+02  0.68471579541E+02  0.41800000000E+01 0.  1.
         -5    1    4    4    0  502 -0.80841159005E+02 -0.32223285122E+02 -0.21666981795E+02  0.89780641529E+02  0.41800000000E+01 0.  1.
        -11    1    3    3    0    0  0.41558574429E+02  0.32418187865E+02  0.34761420850E+02  0.63138026517E+02  0.00000000000E+00 0.  1.
         11    1    3    3    0    0  0.14849784349E+02 -0.28759153514E+02 -0.29924080757E+02  0.44080104528E+02  0.00000000000E+00 0. -1.
</event>
<event>
 8    1  0.5900800E-006  0.1028599E+03  0.7561462E-02  0.1274394E+00
          3   -1    0    0  501    0  0.00000000000E+00  0.00000000000E+00  0.32798651218E+02  0.32798651218E+02  0.00000000000E+00 0. -1.
         -3   -1    0    0    0  501 -0.00000000000E+00 -0.00000000000E+00 -0.44333266185E+03  0.44333266185E+03  0.00000000000E+00 0.  1.
         23    2    1    2    0    0  0.33440923753E+02 -0.18750556108E+02 -0.24919228293E+03  0.26840888921E+03  0.92068774316E+02 0.  0.
         23    2    1    2    0    0 -0.33440923753E+02  0.18750556108E+02 -0.16134172770E+03  0.20772242385E+03  0.12509026155E+03 0.  0.
          5    1    4    4  502    0 -0.20723082633E+02 -0.52083199114E+02 -0.50871440377E+02  0.75812146981E+02  0.41800000000E+01 0. -1.
         -5    1    4    4    0  502 -0.12717841121E+02  0.70833755223E+02 -0.11047028733E+03  0.13191027687E+03  0.41800000000E+01 0. -1.
        -11    1    3    3    0    0 -0.20264541496E+02 -0.11300049668E+02 -0.14111779747E+02  0.27156676752E+02  0.00000000000E+00 0. -1.
         11    1    3    3    0    0  0.53705465250E+02 -0.74505064398E+01 -0.23508050318E+03  0.24125221246E+03  0.00000000000E+00 0.  1.
</event>
<event>
 8    1  0.5900800E-006  0.2309233E+03  0.7561462E-02  0.1125992E+00
         -2   -1    0    0    0  501 -0.00000000000E+00  0.00000000000E+00  0.80325237287E+02  0.80325237287E+02  0.00000000000E+00 0.  1.
          2   -1    0    0  501    0  0.00000000000E+00 -0.00000000000E+00 -0.73034654858E+03  0.73034654858E+03  0.00000000000E+00 0. -1.
         23    2    1    2    0    0 -0.14428280262E+03  0.15992017428E+03 -0.29123027739E+03  0.37389759824E+03  0.92694930957E+02 0.  0.
         23    2    1    2    0    0  0.14428280262E+03 -0.15992017428E+03 -0.35879103390E+03  0.43677418763E+03  0.12509474688E+03 0.  0.
          5    1    4    4  502    0  0.11925352760E+03 -0.43894720055E+02 -0.22004948444E+03  0.25414050896E+03  0.41800000000E+01 0.  1.
         -5    1    4    4    0  502  0.25029275021E+02 -0.11602545422E+03 -0.13874154946E+03  0.18263367867E+03  0.41800000000E+01 0.  1.
        -11    1    3    3    0    0 -0.88369729441E+02  0.10887992229E+03 -0.11244461060E+03  0.17974380939E+03  0.00000000000E+00 0.  1.
         11    1    3    3    0    0 -0.55913073182E+02  0.51040251985E+02 -0.17878566679E+03  0.19415378885E+03  0.00000000000E+00 0. -1.
</event>
<event>
 8    1  0.5900800E-006  0.1021840E+03  0.7561462E-02  0.1275769E+00
         -2   -1    0    0    0  501 -0.00000000000E+00  0.00000000000E+00  0.30081470180E+02  0.30081470180E+02  0.00000000000E+00 0.  1.
          2   -1    0    0  501    0  0.00000000000E+00 -0.00000000000E+00 -0.43996106689E+03  0.43996106689E+03  0.00000000000E+00 0. -1.
         23    2    1    2    0    0  0.38073186262E+01  0.36233817893E+02 -0.12868050765E+03  0.16012698647E+03  0.88060169839E+02 0.  0.
         23    2    1    2    0    0 -0.38073186262E+01 -0.36233817893E+02 -0.28119908906E+03  0.30991555060E+03  0.12508931042E+03 0.  0.
          5    1    4    4  502    0 -0.60571541015E+02 -0.10572108600E+02 -0.92455364119E+02  0.11111322071E+03  0.41800000000E+01 0.  1.
         -5    1    4    4    0  502  0.56764222389E+02 -0.25661709293E+02 -0.18874372494E+03  0.19880232990E+03  0.41800000000E+01 0.  1.
        -11    1    3    3    0    0 -0.31270553751E+02  0.32380062938E+02 -0.26986520982E+02  0.52484172114E+02  0.00000000000E+00 0.  1.
         11    1    3    3    0    0  0.35077872377E+02  0.38537549547E+01 -0.10169398667E+03  0.10764281435E+03  0.00000000000E+00 0. -1.
</event>
<event>
 8    1  0.5900800E-006  0.1096006E+03  0.7561462E-02  0.1261311E+00
          2   -1    0    0  501    0  0.00000000000E+00  0.00000000000E+00  0.53785511792E+03  0.53785511792E+03  0.00000000000E+00 0. -1.
         -2   -1    0    0    0  501 -0.00000000000E+00 -0.00000000000E+00 -0.29983733200E+02  0.29983733200E+02  0.00000000000E+00 0.  1.
         23    2    1    2    0    0  0.35399232667E+02  0.46925748711E+02  0.15946757102E+03  0.19236924932E+03  0.90115982542E+02 0.  0.
         23    2    1    2    0    0 -0.35399232667E+02 -0.46925748711E+02  0.34840381369E+03  0.37546960180E+03  0.12703177915E+03 0.  0.
          5    1    4    4  502    0 -0.30276717148E+02  0.25366238988E+02  0.32467330005E+02  0.51300346970E+02  0.41800000000E+01 0. -1.
         -5    1    4    4    0  502 -0.51225155190E+01 -0.72291987699E+02  0.31593648369E+03  0.32416925483E+03  0.41800000000E+01 0.  1.
        -11    1    3    3    0    0 -0.15422931092E+02 -0.18472456427E+02  0.45671798262E+02  0.51623750410E+02  0.00000000000E+00 0.  1.
         11    1    3    3    0    0  0.50822163759E+02  0.65398205138E+02  0.11379577276E+03  0.14074549891E+03  0.00000000000E+00 0. -1.
</event>
<event>
 8    1  0.5900800E-006  0.1001014E+03  0.7561462E-02  0.1280083E+00
         -3   -1    0    0    0  501 -0.00000000000E+00  0.00000000000E+00  0.74367600283E+03  0.74367600283E+03  0.00000000000E+00 0.  1.
          3   -1    0    0  501    0  0.00000000000E+00 -0.00000000000E+00 -0.16743960970E+02  0.16743960970E+02  0.00000000000E+00 0. -1.
         23    2    1    2    0    0  0.20048714316E+02 -0.26811162560E+02  0.33208648579E+03  0.34488843700E+03  0.86866625055E+02 0.  0.
         23    2    1    2    0    0 -0.20048714316E+02  0.26811162560E+02  0.39484555606E+03  0.41553152679E+03  0.12507056901E+03 0.  0.
          5    1    4    4  502    0 -0.11967908582E+02 -0.45948818580E+02  0.88363268046E+02  0.10039952343E+03  0.41800000000E+01 0.  1.
         -5    1    4    4    0  502 -0.80808057339E+01  0.72759981139E+02  0.30648228802E+03  0.31513200336E+03  0.41800000000E+01 0.  1.
        -11    1    3    3    0    0  0.46404493961E+02 -0.86506432877E+01  0.27849132047E+03  0.28246349546E+03  0.00000000000E+00 0.  1.
         11    1    3    3    0    0 -0.26355779644E+02 -0.18160519272E+02  0.53595165321E+02  0.62424941543E+02  0.00000000000E+00 0. -1.
</event>
<event>
 8    1  0.5900800E-006  0.1452329E+03  0.7561462E-02  0.1206456E+00
         -2   -1    0    0    0  501 -0.00000000000E+00  0.00000000000E+00  0.24871180422E+02  0.24871180422E+02  0.00000000000E+00 0. -1.
          2   -1    0    0  501    0  0.00000000000E+00 -0.00000000000E+00 -0.10036169989E+04  0.10036169989E+04  0.00000000000E+00 0.  1.
         23    2    1    2    0    0 -0.86292727145E+02  0.67599498987E+02 -0.35153892128E+03  0.37960800713E+03  0.92230682972E+02 0.  0.
         23    2    1    2    0    0  0.86292727145E+02 -0.67599498987E+02 -0.62720689723E+03  0.64888017223E+03  0.12506341971E+03 0.  0.
          5    1    4    4  502    0  0.11572742941E+03 -0.71246308832E+02 -0.53008127076E+03  0.54724080664E+03  0.41800000000E+01 0.  1.
         -5    1    4    4    0  502 -0.29434702262E+02  0.36468098447E+01 -0.97125626469E+02  0.10163936558E+03  0.41800000000E+01 0.  1.
        -11    1    3    3    0    0 -0.14496396536E+02  0.47976488964E+02 -0.24225879794E+03  0.24738879155E+03  0.00000000000E+00 0.  1.
         11    1    3    3    0    0 -0.71796330609E+02  0.19623010023E+02 -0.10928012334E+03  0.13221921558E+03  0.00000000000E+00 0. -1.
</event>
<event>
 8    1  0.5900800E-006  0.1177419E+03  0.7561462E-02  0.1246869E+00
         -1   -1    0    0    0  501 -0.00000000000E+00  0.00000000000E+00  0.15487666339E+02  0.15487666339E+02  0.00000000000E+00 0.  1.
          1   -1    0    0  501    0  0.00000000000E+00 -0.00000000000E+00 -0.95199734382E+03  0.95199734382E+03  0.00000000000E+00 0. -1.
         23    2    1    2    0    0  0.30347662878E+02 -0.43651802868E+02 -0.35313033242E+03  0.36848120061E+03  0.90834481273E+02 0.  0.
         23    2    1    2    0    0 -0.30347662878E+02  0.43651802868E+02 -0.58337934506E+03  0.59900380955E+03  0.12509053953E+03 0.  0.
          5    1    4    4  502    0  0.46626240526E+02  0.17180547946E+02 -0.15134865328E+03  0.15935201531E+03  0.41800000000E+01 0.  1.
         -5    1    4    4    0  502 -0.76973903404E+02  0.26471254922E+02 -0.43203069178E+03  0.43965179424E+03  0.41800000000E+01 0.  1.
        -11    1    3    3    0    0 -0.27415238571E+02  0.58582978978E+01 -0.12087169339E+03  0.12408014033E+03  0.00000000000E+00 0.  1.
         11    1    3    3    0    0  0.57762901449E+02 -0.49510100766E+02 -0.23225863903E+03  0.24440106028E+03  0.00000000000E+00 0. -1.
</event>
<event>
 8    1  0.5900800E-006  0.1413114E+03  0.7561462E-02  0.1211575E+00
          2   -1    0    0  501    0  0.00000000000E+00  0.00000000000E+00  0.82971161914E+03  0.82971161914E+03  0.00000000000E+00 0. -1.
         -2   -1    0    0    0  501 -0.00000000000E+00 -0.00000000000E+00 -0.38019045725E+02  0.38019045725E+02  0.00000000000E+00 0.  1.
         23    2    1    2    0    0 -0.19388429434E+01 -0.13662953516E+03  0.34479455000E+03  0.38395797846E+03  0.99343135282E+02 0.  0.
         23    2    1    2    0    0  0.19388429434E+01  0.13662953516E+03  0.44689802342E+03  0.48377268640E+03  0.12508708879E+03 0.  0.
          5    1    4    4  502    0  0.24180183014E+01  0.69304671649E+01 -0.74459668815E+01  0.11260240247E+02  0.41800000000E+01 0. -1.
         -5    1    4    4    0  502 -0.47917535793E+00  0.12969906800E+03  0.45434399030E+03  0.47251244615E+03  0.41800000000E+01 0. -1.
        -11    1    3    3    0    0 -0.24327940037E+02 -0.74126950352E+02  0.83144134423E+02  0.11401579068E+03  0.00000000000E+00 0.  1.
         11    1    3    3    0    0  0.22389097093E+02 -0.62502584811E+02  0.26165041558E+03  0.26994218779E+03  0.00000000000E+00 0. -1.
</event>
<event>
 8    1  0.5900800E-006  0.2657506E+03  0.7561462E-02  0.1103737E+00
          1   -1    0    0  501    0  0.00000000000E+00  0.00000000000E+00  0.15191745399E+03  0.15191745399E+03  0.00000000000E+00 0. -1.
         -1   -1    0    0    0  501 -0.00000000000E+00 -0.00000000000E+00 -0.53375616927E+03  0.53375616927E+03  0.00000000000E+00 0.  1.
         23    2    1    2    0    0 -0.16184448202E+03  0.20542745534E+03 -0.15370521604E+03  0.31677537422E+03  0.91253868476E+02 0.  0.
         23    2    1    2    0    0  0.16184448202E+03 -0.20542745534E+03 -0.22813349924E+03  0.36889824903E+03  0.12508776476E+03 0.  0.
          5    1    4    4  502    0  0.32468802885E+02 -0.45731089485E+02  0.68852634459E+01  0.56660700305E+02  0.41800000000E+01 0. -1.
         -5    1    4    4    0  502  0.12937567913E+03 -0.15969636585E+03 -0.23501876269E+03  0.31223754872E+03  0.41800000000E+01 0. -1.
        -11    1    3    3    0    0 -0.29996427909E+02  0.88568304708E+02 -0.88982625554E+02  0.12908151663E+03  0.00000000000E+00 0.  1.
         11    1    3    3    0    0 -0.13184805411E+03  0.11685915063E+03 -0.64722590483E+02  0.18769385759E+03  0.00000000000E+00 0. -1.
</event>
<event>
 8    1  0.5900800E-006  0.1129827E+03  0.7561462E-02  0.1255144E+00
         -1   -1    0    0    0  501 -0.00000000000E+00  0.00000000000E+00  0.16971491389E+02  0.16971491389E+02  0.00000000000E+00 0.  1.
          1   -1    0    0  501    0  0.00000000000E+00 -0.00000000000E+00 -0.75606037155E+03  0.75606037155E+03  0.00000000000E+00 0. -1.
         23    2    1    2    0    0 -0.11266244189E+02  0.27284837067E+02 -0.32808174168E+03  0.34239781913E+03  0.93419734174E+02 0.  0.
         23    2    1    2    0    0  0.11266244189E+02 -0.27284837067E+02 -0.41100713848E+03  0.43063404380E+03  0.12508965268E+03 0.  0.
          5    1    4    4  502    0  0.31139906792E+02 -0.72274084738E+02 -0.23684903487E+03  0.24961605485E+03  0.41800000000E+01 0. -1.
         -5    1    4    4    0  502 -0.19873662603E+02  0.44989247671E+02 -0.17415810361E+03  0.18101798895E+03  0.41800000000E+01 0. -1.
        -11    1    3    3    0    0 -0.50757196136E+02  0.17851567974E+01 -0.16011335265E+03  0.16797549060E+03  0.00000000000E+00 0. -1.
         11    1    3    3    0    0  0.39490951947E+02  0.25499680270E+02 -0.16796838903E+03  0.17442232854E+03  0.00000000000E+00 0.  1.
</event>
<event>
 8    1  0.5900800E-006  0.1023112E+03  0.7561462E-02  0.1275510E+00
         -2   -1    0    0    0  501 -0.00000000000E+00  0.00000000000E+00  0.44957744031E+02  0.44957744031E+02  0.00000000000E+00 0.  1.
          2   -1    0    0  501    0  0.00000000000E+00 -0.00000000000E+00 -0.25117319774E+03  0.25117319774E+03  0.00000000000E+00 0. -1.
         23    2    1    2    0    0 -0.65467810185E+01 -0.10469699828E+02 -0.81289867542E+02  0.11890855175E+03  0.85899511975E+02 0.  0.
         23    2    1    2    0    0  0.65467810185E+01  0.10469699828E+02 -0.12492558617E+03  0.17722239002E+03  0.12509555744E+03 0.  0.
          5    1    4    4  502    0 -0.59188847929E+02  0.46689166897E+01 -0.61928481853E+02  0.85893700391E+02  0.41800000000E+01 0.  1.
         -5    1    4    4    0  502  0.65735628947E+02  0.58007831383E+01 -0.62997104316E+02  0.91328689634E+02  0.41800000000E+01 0.  1.
        -11    1    3    3    0    0  0.11134422039E+02  0.31514669301E+02 -0.11076570779E+02  0.35211364011E+02  0.00000000000E+00 0.  1.
         11    1    3    3    0    0 -0.17681203057E+02 -0.41984369129E+02 -0.70213296763E+02  0.83697187737E+02  0.00000000000E+00 0. -1.
</event>
<event>
 8    1  0.5900800E-006  0.1173529E+03  0.7561462E-02  0.1247529E+00
          1   -1    0    0  501    0  0.00000000000E+00  0.00000000000E+00  0.42610523766E+03  0.42610523766E+03  0.00000000000E+00 0. -1.
         -1   -1    0    0    0  501 -0.00000000000E+00 -0.00000000000E+00 -0.34076656939E+02  0.34076656939E+02  0.00000000000E+00 0.  1.
         23    2    1    2    0    0 -0.35996244804E+02 -0.34939200924E+02  0.13984655672E+03  0.17424934511E+03  0.91045578935E+02 0.  0.
         23    2    1    2    0    0  0.35996244804E+02  0.34939200924E+02  0.25218202400E+03  0.28593254949E+03  0.12508066288E+03 0.  0.
          5    1    4    4  502    0 -0.27929156135E+02  0.59455450041E+02  0.13381292856E+03  0.14912531828E+03  0.41800000000E+01 0.  1.
         -5    1    4    4    0  502  0.63925400940E+02 -0.24516249117E+02  0.11836909544E+03  0.13680723121E+03  0.41800000000E+01 0.  1.
        -11    1    3    3    0    0  0.25237374790E+02 -0.29491830259E+02  0.32855881140E+02  0.50854715256E+02  0.00000000000E+00 0. -1.
         11    1    3    3    0    0 -0.61233619594E+02 -0.54473706658E+01  0.10699067558E+03  0.12339462986E+03  0.00000000000E+00 0.  1.
</event>
<event>
 7    1  0.5900800E-006  0.8319744E+02  0.7561462E-02  0.1320215E+00
          2   -1    0    0  501    0  0.00000000000E+00  0.00000000000E+00  0.57118485705E+03  0.57118485705E+03  0.00000000000E+00 0. -1.
         -2   -1    0    0    0  501 -0.00000000000E+00 -0.00000000000E+00 -0.12624876853E+03  0.12624876853E+03  0.00000000000E+00 0.  1.
         23    2    1    2    0    0 -0.25206272643E+02  0.51347991232E+02 -0.72132479849E+02  0.12525517957E+03  0.84934050748E+02 0.  0.
          5    1    1    2  502    0  0.41603330005E+01 -0.39224429546E+02  0.53823311683E+03  0.53969271321E+03  0.41800000000E+01 0. -1.
         -5    1    1    2    0  502  0.21045939643E+02 -0.12123561686E+02 -0.21164548468E+02  0.32485732796E+02  0.41800000000E+01 0.  1.
        -11    1    3    3    0    0 -0.22872235348E+02  0.74952566960E+02 -0.59408760269E+02  0.98338330474E+02  0.00000000000E+00 0.  1.
         11    1    3    3    0    0 -0.23340372953E+01 -0.23604575729E+02 -0.12723719579E+02  0.26916849098E+02  0.00000000000E+00 0. -1.
</event>
<event>
 8    1  0.5900800E-006  0.4411747E+02  0.7561462E-02  0.1479927E+00
          1   -1    0    0  501    0  0.00000000000E+00  0.00000000000E+00  0.73350006369E+02  0.73350006369E+02  0.00000000000E+00 0. -1.
         -1   -1    0    0    0  501 -0.00000000000E+00 -0.00000000000E+00 -0.17423124201E+03  0.17423124201E+03  0.00000000000E+00 0.  1.
         23    2    1    2    0    0  0.84279654784E+01  0.24859145004E+02 -0.61035545485E+02  0.11370138397E+03  0.92269492313E+02 0.  0.
         23    2    1    2    0    0 -0.84279654784E+01 -0.24859145004E+02 -0.39845690156E+02  0.13387986441E+03  0.12508849419E+03 0.  0.
          5    1    4    4  502    0 -0.18810324736E+02 -0.26616967088E+02 -0.82997485323E+02  0.89265593728E+02  0.41800000000E+01 0. -1.
         -5    1    4    4    0  502  0.10382359258E+02  0.17578220840E+01  0.43151795167E+02  0.44614270681E+02  0.41800000000E+01 0. -1.
        -11    1    3    3    0    0 -0.92859324626E+01  0.24638727905E+02 -0.82076105120E+02  0.86196186030E+02  0.00000000000E+00 0.  1.
         11    1    3    3    0    0  0.17713897941E+02  0.22041709968E+00  0.21040559635E+02  0.27505197940E+02  0.00000000000E+00 0. -1.
</event>
<event>
 8    1  0.5900800E-006  0.1327224E+03  0.7561462E-02  0.1223471E+00
         -2   -1    0    0    0  501 -0.00000000000E+00  0.00000000000E+00  0.40783114386E+02  0.40783114386E+02  0.00000000000E+00 0.  1.
          2   -1    0    0  501    0  0.00000000000E+00 -0.00000000000E+00 -0.74909879331E+03  0.74909879331E+03  0.00000000000E+00 0. -1.
         23    2    1    2    0    0  0.88469153509E+02  0.45383018880E+02 -0.10605640094E+03  0.16678450293E+03  0.81747787195E+02 0.  0.
         23    2    1    2    0    0 -0.88469153509E+02 -0.45383018880E+02 -0.60225927798E+03  0.62309740476E+03  0.12509088050E+03 0.  0.
          5    1    4    4  502    0 -0.64847531295E+02 -0.75886265172E+02 -0.25817214133E+03  0.27682892644E+03  0.41800000000E+01 0.  1.
         -5    1    4    4    0  502 -0.23621622214E+02  0.30503246292E+02 -0.34408713665E+03  0.34626847832E+03  0.41800000000E+01 0.  1.
        -11    1    3    3    0    0 -0.14236883967E+02 -0.49364522408E+00 -0.37457160771E+01  0.14729661898E+02  0.00000000000E+00 0.  1.
         11    1    3    3    0    0  0.10270603748E+03  0.45876664104E+02 -0.10231068486E+03  0.15205484103E+03  0.00000000000E+00 0. -1.
</event>
<event>
 8    1  0.5900800E-006  0.1329652E+03  0.7561462E-02  0.1223121E+00
         -2   -1    0    0    0  501 -0.00000000000E+00  0.00000000000E+00  0.10435444894E+03  0.10435444894E+03  0.00000000000E+00 0.  1.
          2   -1    0    0  501    0  0.00000000000E+00 -0.00000000000E+00 -0.24563994932E+03  0.24563994932E+03  0.00000000000E+00 0. -1.
         23    2    1    2    0    0  0.90388642586E+02 -0.56005529860E+02 -0.12107649554E+02  0.14112846580E+03  0.91999579331E+02 0.  0.
         23    2    1    2    0    0 -0.90388642586E+02  0.56005529860E+02 -0.12917785082E+03  0.20886593247E+03  0.12502533551E+03 0.  0.
          5    1    4    4  502    0 -0.15578818968E+02  0.60151539899E+02 -0.11741499643E+03  0.13290846902E+03  0.41800000000E+01 0. -1.
         -5    1    4    4    0  502 -0.74809823618E+02 -0.41460100390E+01 -0.11762854396E+02  0.75957463442E+02  0.41800000000E+01 0. -1.
        -11    1    3    3    0    0  0.69206016231E+02 -0.73635854267E+02  0.15365325834E+02  0.10221450462E+03  0.00000000000E+00 0.  1.
         11    1    3    3    0    0  0.21182626355E+02  0.17630324407E+02 -0.27472975388E+02  0.38913961179E+02  0.00000000000E+00 0. -1.
</event>
<event>
 8    1  0.5900800E-006  0.1156084E+03  0.7561462E-02  0.1250523E+00
         -2   -1    0    0    0  501 -0.00000000000E+00  0.00000000000E+00  0.10533156240E+03  0.10533156240E+03  0.00000000000E+00 0.  1.
          2   -1    0    0  501    0  0.00000000000E+00 -0.00000000000E+00 -0.35927222076E+03  0.35927222076E+03  0.00000000000E+00 0. -1.
         23    2    1    2    0    0 -0.21061351467E+02 -0.10604770908E+03  0.22533881710E+02  0.14246305012E+03  0.89990264460E+02 0.  0.
         23    2    1    2    0    0  0.21061351467E+02  0.10604770908E+03 -0.27647454007E+03  0.32214073304E+03  0.12508710345E+03 0.  0.
          5    1    4    4  502    0 -0.10325851264E+02  0.70419967344E+02 -0.26316597851E+03  0.27265252548E+03  0.41800000000E+01 0.  1.
         -5    1    4    4    0  502  0.31387202731E+02  0.35627741735E+02 -0.13308561557E+02  0.49488207556E+02  0.41800000000E+01 0.  1.
        -11    1    3    3    0    0 -0.22452740911E+02 -0.37596140340E+02  0.51951249192E+02  0.67945033928E+02  0.00000000000E+00 0.  1.
         11    1    3    3    0    0  0.13913894437E+01 -0.68451568739E+02 -0.29417367482E+02  0.74518016190E+02  0.00000000000E+00 0. -1.
</event>
<event>
 8    1  0.5900800E-006  0.9114398E+02  0.7561462E-02  0.1300105E+00
          1   -1    0    0  501    0  0.00000000000E+00  0.00000000000E+00  0.13485306010E+03  0.13485306010E+03  0.00000000000E+00 0. -1.
         -1   -1    0    0    0  501 -0.00000000000E+00 -0.00000000000E+00 -0.12580815404E+03  0.12580815404E+03  0.00000000000E+00 0.  1.
         23    2    1    2    0    0  0.36281278440E+02  0.32984360504E+02 -0.46383448981E+02  0.11531880348E+03  0.93502421856E+02 0.  0.
         23    2    1    2    0    0 -0.36281278440E+02 -0.32984360504E+02  0.55428355041E+02  0.14534241066E+03  0.12509122507E+03 0.  0.
          5    1    4    4  502    0 -0.49332767562E+02 -0.37768481906E+02 -0.22396115368E+02  0.66175815555E+02  0.41800000000E+01 0. -1.
         -5    1    4    4    0  502  0.13051489122E+02  0.47841214016E+01  0.77824470409E+02  0.79166595104E+02  0.41800000000E+01 0. -1.
        -11    1    3    3    0    0  0.45336716678E+02 -0.21566038777E+02 -0.19863937980E+02  0.53991554337E+02  0.00000000000E+00 0. -1.
         11    1    3    3    0    0 -0.90554382380E+01  0.54550399280E+02 -0.26519511001E+02  0.61327249140E+02  0.00000000000E+00 0.  1.
</event>
<event>
 8    1  0.5900800E-006  0.1301617E+03  0.7561462E-02  0.1227216E+00
         -1   -1    0    0    0  501 -0.00000000000E+00  0.00000000000E+00  0.41078918190E+03  0.41078918190E+03  0.00000000000E+00 0.  1.
          1   -1    0    0  501    0  0.00000000000E+00 -0.00000000000E+00 -0.16604738384E+03  0.16604738384E+03  0.00000000000E+00 0. -1.
         23    2    1    2    0    0  0.85254661320E+02  0.63225227153E+02  0.35379581419E+03  0.37987586773E+03  0.88704059208E+02 0.  0.
         23    2    1    2    0    0 -0.85254661320E+02 -0.63225227153E+02 -0.10905401613E+03  0.19696069801E+03  0.12503979966E+03 0.  0.
          5    1    4    4  502    0 -0.71171742141E+02 -0.86191152410E+02 -0.12306951898E+03  0.16630667616E+03  0.41800000000E+01 0. -1.
         -5    1    4    4    0  502 -0.14082919178E+02  0.22965925257E+02  0.14015502848E+02  0.30654021850E+02  0.41800000000E+01 0. -1.
        -11    1    3    3    0    0  0.61412983911E+01  0.37521310847E+02  0.21280557868E+03  0.21617534233E+03  0.00000000000E+00 0.  1.
         11    1    3    3    0    0  0.79113362929E+02  0.25703916306E+02  0.14099023551E+03  0.16370052540E+03  0.00000000000E+00 0. -1.
</event>
<event>
 8    1  0.5900800E-006  0.8442108E+02  0.7561462E-02  0.1316953E+00
          2   -1    0    0  501    0  0.00000000000E+00  0.00000000000E+00  0.35652847526E+03  0.35652847526E+03  0.00000000000E+00 0.  1.
         -2   -1    0    0    0  501 -0.00000000000E+00 -0.00000000000E+00 -0.51703500125E+02  0.51703500125E+02  0.00000000000E+00 0. -1.
         23    2    1    2    0    0  0.51554840228E+01 -0.54576224420E+02  0.49848964967E+02  0.11898144583E+03  0.93094155858E+02 0.  0.
         23    2    1    2    0    0 -0.51554840228E+01  0.54576224420E+02  0.25497601017E+03  0.28925052956E+03  0.12509180549E+03 0.  0.
          5    1    4    4  502    0 -0.51803331201E+02  0.36461849246E+02  0.58057722368E+02  0.86030361504E+02  0.41800000000E+01 0. -1.
         -5    1    4    4    0  502  0.46647847178E+02  0.18114375174E+02  0.19691828780E+03  0.20322016805E+03  0.41800000000E+01 0. -1.
        -11    1    3    3    0    0  0.56337003615E+01 -0.28087291110E+02  0.76326607381E+02  0.81525367193E+02  0.00000000000E+00 0.  1.
         11    1    3    3    0    0 -0.47821633876E+00 -0.26488933310E+02 -0.26477642413E+02  0.37456078632E+02  0.00000000000E+00 0. -1.
</event>
<event>
 8    1  0.5900800E-006  0.1576420E+03  0.7561462E-02  0.1191385E+00
          1   -1    0    0  501    0  0.00000000000E+00  0.00000000000E+00  0.18499922807E+03  0.18499922807E+03  0.00000000000E+00 0. -1.
         -1   -1    0    0    0  501 -0.00000000000E+00 -0.00000000000E+00 -0.17869051459E+03  0.17869051459E+03  0.00000000000E+00 0.  1.
         23    2    1    2    0    0  0.14192328032E+03 -0.34855623132E+02 -0.17375781890E+02  0.16988889112E+03  0.84871582806E+02 0.  0.
         23    2    1    2    0    0 -0.14192328032E+03  0.34855623132E+02  0.23684495371E+02  0.19380085154E+03  0.12506271537E+03 0.  0.
          5    1    4    4  502    0 -0.12234184442E+03  0.34893401140E+02 -0.34819245195E+02  0.13196563407E+03  0.41800000000E+01 0.  1.
         -5    1    4    4    0  502 -0.19581435897E+02 -0.37778007981E-01  0.58503740566E+02  0.61835217467E+02  0.41800000000E+01 0.  1.
        -11    1    3    3    0    0  0.10131414322E+03  0.16343078697E+02 -0.14777532539E+01  0.10263447565E+03  0.00000000000E+00 0. -1.
         11    1    3    3    0    0  0.40609137100E+02 -0.51198701829E+02 -0.15898028637E+02  0.67254415465E+02  0.00000000000E+00 0.  1.
</event>
<event>
 8    1  0.7881845E-006  0.1130826E+03  0.7561462E-02  0.1254965E+00
          2   -1    0    0  501    0  0.00000000000E+00  0.00000000000E+00  0.76639308514E+03  0.76639308514E+03  0.00000000000E+00 0. -1.
         -2   -1    0    0    0  501 -0.00000000000E+00 -0.00000000000E+00 -0.23165337441E+02  0.23165337441E+02  0.00000000000E+00 0.  1.
         23    2    1    2    0    0  0.36812977411E+02 -0.65903752620E+02  0.23653662636E+03  0.26222351151E+03  0.84339163269E+02 0.  0.
         23    2    1    2    0    0 -0.36812977411E+02  0.65903752620E+02  0.50669112134E+03  0.52733491108E+03  0.12509083132E+03 0.  0.
          5    1    4    4  502    0  0.20588116173E+02  0.61718907962E+02  0.40665884539E+03  0.41185189457E+03  0.41800000000E+01 0.  1.
         -5    1    4    4    0  502 -0.57401093584E+02  0.41848446577E+01  0.10003227595E+03  0.11548301650E+03  0.41800000000E+01 0.  1.
        -11    1    3    3    0    0 -0.17817119734E+02 -0.37889706758E+02  0.15253931838E+03  0.15818129878E+03  0.00000000000E+00 0. -1.
         11    1    3    3    0    0  0.54630097146E+02 -0.28014045862E+02  0.83997307986E+02  0.10404221272E+03  0.00000000000E+00 0.  1.
</event>
<event>
 8    1  0.5900800E-006  0.2855859E+03  0.7561462E-02  0.1092677E+00
          2   -1    0    0  501    0  0.00000000000E+00  0.00000000000E+00  0.36685579204E+04  0.36685579204E+04  0.00000000000E+00 0. -1.
         -2   -1    0    0    0  501 -0.00000000000E+00 -0.00000000000E+00 -0.29133516984E+02  0.29133516984E+02  0.00000000000E+00 0.  1.
         23    2    1    2    0    0 -0.22492146520E+03  0.14763142055E+03  0.93596348997E+03  0.97799775291E+03  0.89817861768E+02 0.  0.
         23    2    1    2    0    0  0.22492146520E+03 -0.14763142055E+03  0.27034609135E+04  0.27196936845E+04  0.12509246587E+03 0.  0.
          5    1    4    4  502    0 -0.25972158568E+01 -0.48045778735E+02  0.44927602861E+03  0.45186454239E+03  0.41800000000E+01 0.  1.
         -5    1    4    4    0  502  0.22751868106E+03 -0.99585641811E+02  0.22541848849E+04  0.22678291421E+04  0.41800000000E+01 0.  1.
        -11    1    3    3    0    0 -0.13335543758E+03  0.55063139340E+02  0.36733386535E+03  0.39465148001E+03  0.00000000000E+00 0. -1.
         11    1    3    3    0    0 -0.91566027624E+02  0.92568281205E+02  0.56862962463E+03  0.58334627290E+03  0.00000000000E+00 0.  1.
</event>
<event>
 8    1  0.5900800E-006  0.9851041E+02  0.7561462E-02  0.1283460E+00
         -1   -1    0    0    0  501 -0.00000000000E+00  0.00000000000E+00  0.16063612183E+03  0.16063612183E+03  0.00000000000E+00 0.  1.
          1   -1    0    0  501    0  0.00000000000E+00 -0.00000000000E+00 -0.84311120833E+02  0.84311120833E+02  0.00000000000E+00 0. -1.
         23    2    1    2    0    0  0.37361037832E+02 -0.36935936003E+01  0.71343377251E+02  0.12071324432E+03  0.89846091150E+02 0.  0.
         23    2    1    2    0    0 -0.37361037832E+02  0.36935936003E+01  0.49816237469E+01  0.12423399834E+03  0.11832066594E+03 0.  0.
          5    1    4    4  502    0 -0.72001925673E+02  0.84947381716E+00 -0.26805343036E+02  0.76948019609E+02  0.41800000000E+01 0. -1.
         -5    1    4    4    0  502  0.34640887841E+02  0.28441197832E+01  0.31786966783E+02  0.47285978736E+02  0.41800000000E+01 0.  1.
        -11    1    3    3    0    0  0.44075631971E+02  0.31424217382E+02  0.64682102214E+02  0.84344040208E+02  0.00000000000E+00 0.  1.
         11    1    3    3    0    0 -0.67145941392E+01 -0.35117810982E+02  0.66612750375E+01  0.36369204112E+02  0.00000000000E+00 0. -1.
</event>
<event>
 8    1  0.5900800E-006  0.1346735E+03  0.7561462E-02  0.1220681E+00
          1   -1    0    0  501    0  0.00000000000E+00  0.00000000000E+00  0.15150795507E+03  0.15150795507E+03  0.00000000000E+00 0. -1.
         -1   -1    0    0    0  501 -0.00000000000E+00 -0.00000000000E+00 -0.12460428175E+03  0.12460428175E+03  0.00000000000E+00 0.  1.
         23    2    1    2    0    0  0.81307848526E+02  0.75534793130E+01 -0.12827136538E+02  0.12153234743E+03  0.89092955722E+02 0.  0.
         23    2    1    2    0    0 -0.81307848526E+02 -0.75534793130E+01  0.39730809859E+02  0.15457988938E+03  0.12509349970E+03 0.  0.
          5    1    4    4  502    0 -0.38821576692E+02  0.58740508096E+02  0.18356179396E+02  0.72883357705E+02  0.41800000000E+01 0. -1.
         -5    1    4    4    0  502 -0.42486271833E+02 -0.66293987409E+02  0.21374630462E+02  0.81696531679E+02  0.41800000000E+01 0. -1.
        -11    1    3    3    0    0 -0.15281110799E+02  0.17064073295E+02 -0.83243159865E+01  0.24371893265E+02  0.00000000000E+00 0.  1.
         11    1    3    3    0    0  0.96588959324E+02 -0.95105939825E+01 -0.45028205514E+01  0.97160454168E+02  0.00000000000E+00 0. -1.
</event>
<event>
 7    1  0.5900800E-006  0.1283331E+03  0.7561462E-02  0.1229950E+00
          2   -1    0    0  501    0  0.00000000000E+00  0.00000000000E+00  0.16792093250E+04  0.16792093250E+04  0.00000000000E+00 0. -1.
         -2   -1    0    0    0  501 -0.00000000000E+00 -0.00000000000E+00 -0.18557959081E+02  0.18557959081E+02  0.00000000000E+00 0.  1.
         23    2    1    2    0    0  0.77240493008E+02  0.84415331413E+02  0.42195683609E+03  0.44583495716E+03  0.87345266421E+02 0.  0.
          5    1    1    2  502    0 -0.13301480589E+02 -0.17168182303E+02  0.91256718375E+03  0.91283515112E+03  0.41800000000E+01 0. -1.
         -5    1    1    2    0  502 -0.63939012419E+02 -0.67247149110E+02  0.32612734606E+03  0.33909717578E+03  0.41800000000E+01 0.  1.
        -11    1    3    3    0    0  0.95497724082E+02  0.70160265459E+02  0.37813398764E+03  0.39626706999E+03  0.00000000000E+00 0.  1.
         11    1    3    3    0    0 -0.18257231074E+02  0.14255065954E+02  0.43822848457E+02  0.49567887173E+02  0.00000000000E+00 0. -1.
</event>
<event>
 8    1  0.5900800E-006  0.8623245E+02  0.7561462E-02  0.1312241E+00
          2   -1    0    0  501    0  0.00000000000E+00  0.00000000000E+00  0.28038052717E+03  0.28038052717E+03  0.00000000000E+00 0.  1.
         -2   -1    0    0    0  501 -0.00000000000E+00 -0.00000000000E+00 -0.10367213992E+03  0.10367213992E+03  0.00000000000E+00 0. -1.
         23    2    1    2    0    0  0.61795528483E+02  0.46470404864E+02 -0.36070192496E+02  0.12540172850E+03  0.91904019803E+02 0.  0.
         23    2    1    2    0    0 -0.61795528483E+02 -0.46470404864E+02  0.21277857974E+03  0.25865093859E+03  0.12508956059E+03 0.  0.
          5    1    4    4  502    0 -0.19462376246E+02  0.11437024071E+02  0.17681710022E+03  0.17830128698E+03  0.41800000000E+01 0. -1.
         -5    1    4    4    0  502 -0.42333152237E+02 -0.57907428936E+02  0.35961479517E+02  0.80349651607E+02  0.41800000000E+01 0. -1.
        -11    1    3    3    0    0  0.11238637794E+02  0.51628927057E+01  0.30041305985E+02  0.32487574638E+02  0.00000000000E+00 0.  1.
         11    1    3    3    0    0  0.50556890689E+02  0.41307512159E+02 -0.66111498481E+02  0.92914153864E+02  0.00000000000E+00 0. -1.
</event>
<event>
 8    1  0.5900800E-006  0.1022525E+03  0.7561462E-02  0.1275629E+00
          3   -1    0    0  501    0  0.00000000000E+00  0.00000000000E+00  0.47736733264E+03  0.47736733264E+03  0.00000000000E+00 0. -1.
         -3   -1    0    0    0  501 -0.00000000000E+00 -0.00000000000E+00 -0.37846350282E+02  0.37846350282E+02  0.00000000000E+00 0.  1.
         23    2    1    2    0    0 -0.32353228652E+02  0.71066942925E+02  0.21483035270E+03  0.24645665735E+03  0.92149670256E+02 0.  0.
         23    2    1    2    0    0  0.32353228652E+02 -0.71066942925E+02  0.22469062966E+03  0.26875702557E+03  0.12508884027E+03 0.  0.
          5    1    4    4  502    0 -0.13670197160E+02  0.12177060384E+02  0.14023252193E+03  0.14148423127E+03  0.41800000000E+01 0. -1.
         -5    1    4    4    0  502  0.46023425811E+02 -0.83244003309E+02  0.84458107724E+02  0.12727279431E+03  0.41800000000E+01 0. -1.
        -11    1    3    3    0    0 -0.38424589504E+00  0.54513471092E+02  0.39126311583E+02  0.67102417494E+02  0.00000000000E+00 0.  1.
         11    1    3    3    0    0 -0.31968982757E+02  0.16553471832E+02  0.17570404112E+03  0.17935423985E+03  0.00000000000E+00 0. -1.
</event>
<event>
 7    1  0.5900800E-006  0.1742070E+03  0.7561462E-02  0.1173530E+00
          2   -1    0    0  501    0  0.00000000000E+00  0.00000000000E+00  0.12907552256E+04  0.12907552256E+04  0.00000000000E+00 0. -1.
         -2   -1    0    0    0  501 -0.00000000000E+00 -0.00000000000E+00 -0.32099265284E+02  0.32099265284E+02  0.00000000000E+00 0.  1.
         23    2    1    2    0    0 -0.55691709720E+02 -0.83358486131E+02  0.20549872989E+03  0.24605334015E+03  0.90897274276E+02 0.  0.
          5    1    1    2  502    0 -0.68363480405E+02  0.58658717825E+02  0.58188670700E+03  0.58883276303E+03  0.41800000000E+01 0. -1.
         -5    1    1    2    0  502  0.12405519012E+03  0.24699768306E+02  0.47127052341E+03  0.48796838769E+03  0.41800000000E+01 0.  1.
        -11    1    3    3    0    0 -0.35984537121E+02  0.91204968124E+01  0.34632339332E+02  0.50768782746E+02  0.00000000000E+00 0. -1.
         11    1    3    3    0    0 -0.19707172600E+02 -0.92478982944E+02  0.17086639056E+03  0.19528455740E+03  0.00000000000E+00 0.  1.
</event>
<event>
 7    1  0.5900800E-006  0.2495824E+03  0.7561462E-02  0.1113569E+00
         -1   -1    0    0    0  501 -0.00000000000E+00  0.00000000000E+00  0.68800710675E+02  0.68800710675E+02  0.00000000000E+00 0.  1.
          1   -1    0    0  501    0  0.00000000000E+00 -0.00000000000E+00 -0.10710712950E+04  0.10710712950E+04  0.00000000000E+00 0. -1.
         23    2    1    2    0    0 -0.14735302103E+02 -0.34766101898E+02 -0.79459777002E+02  0.12526431475E+03  0.89171079497E+02 0.  0.
          5    1    1    2  502    0 -0.17291692118E+03  0.11589963627E+03 -0.36097706267E+03  0.41671920941E+03  0.41800000000E+01 0. -1.
         -5    1    1    2    0  502  0.18765222328E+03 -0.81133534370E+02 -0.56183374470E+03  0.59788848157E+03  0.41800000000E+01 0.  1.
        -11    1    3    3    0    0 -0.24343741354E+02  0.19607176684E+02 -0.36391158884E+01  0.31469068704E+02  0.00000000000E+00 0. -1.
         11    1    3    3    0    0  0.96084392509E+01 -0.54373278582E+02 -0.75820661114E+02  0.93795246043E+02  0.00000000000E+00 0.  1.
</event>
<event>
 7    1  0.5900800E-006  0.9479269E+02  0.7561462E-02  0.1291644E+00
         -2   -1    0    0    0  501 -0.00000000000E+00  0.00000000000E+00  0.60960520671E+02  0.60960520671E+02  0.00000000000E+00 0.  1.
          2   -1    0    0  501    0  0.00000000000E+00 -0.00000000000E+00 -0.32973547059E+03  0.32973547059E+03  0.00000000000E+00 0. -1.
         23    2    1    2    0    0  0.32139775451E+02 -0.38810309409E+02 -0.21755727397E+02  0.10623766060E+03  0.90961110219E+02 0.  0.
          5    1    1    2  502    0 -0.50010151068E+02  0.55723675432E+01 -0.24073532364E+03  0.24597364684E+03  0.41800000000E+01 0. -1.
         -5    1    1    2    0  502  0.17870375617E+02  0.33237941866E+02 -0.62838988821E+01  0.38484683828E+02  0.41800000000E+01 0.  1.
        -11    1    3    3    0    0 -0.22013602579E+02  0.13506843708E+02  0.50409707483E+01  0.26314348017E+02  0.00000000000E+00 0. -1.
         11    1    3    3    0    0  0.54153378030E+02 -0.52317153117E+02 -0.26796698145E+02  0.79923312581E+02  0.00000000000E+00 0.  1.
</event>
<event>
 8    1  0.5900800E-006  0.1267859E+03  0.7561462E-02  0.1232304E+00
         -4   -1    0    0    0  501 -0.00000000000E+00  0.00000000000E+00  0.19284035171E+03  0.19284035171E+03  0.00000000000E+00 0.  1.
          4   -1    0    0  501    0  0.00000000000E+00 -0.00000000000E+00 -0.10223857553E+03  0.10223857553E+03  0.00000000000E+00 0. -1.
         23    2    1    2    0    0  0.23179283837E+02  0.80406649378E+02  0.75307563023E+02  0.14380253920E+03  0.89473084052E+02 0.  0.
         23    2    1    2    0    0 -0.23179283837E+02 -0.80406649378E+02  0.15294213162E+02  0.15127638804E+03  0.12509246244E+03 0.  0.
          5    1    4    4  502    0  0.29978009391E+02 -0.79338064714E+02 -0.20107513618E+02  0.87263933349E+02  0.41800000000E+01 0.  1.
         -5    1    4    4    0  502 -0.53157293228E+02 -0.10685846635E+01  0.35401726780E+02  0.64012454690E+02  0.41800000000E+01 0.  1.
        -11    1    3    3    0    0  0.49672223388E+00  0.90496982595E+02  0.77133604069E+02  0.11890981233E+03  0.00000000000E+00 0.  1.
         11    1    3    3    0    0  0.22682561603E+02 -0.10090333217E+02 -0.18260410461E+01  0.24892726874E+02  0.00000000000E+00 0. -1.
</event>
<event>
 8    1  0.5900800E-006  0.1256717E+03  0.7561462E-02  0.1234023E+00
         -4   -1    0    0    0  501 -0.00000000000E+00  0.00000000000E+00  0.86588128199E+02  0.86588128199E+02  0.00000000000E+00 0.  1.
          4   -1    0    0  501    0  0.00000000000E+00 -0.00000000000E+00 -0.36487040555E+03  0.36487040555E+03  0.00000000000E+00 0. -1.
         23    2    1    2    0    0 -0.49287112477E+02 -0.54557637514E+02  0.20439444417E+02  0.11936624615E+03  0.91786570714E+02 0.  0.
         23    2    1    2    0    0  0.49287112477E+02  0.54557637514E+02 -0.29872172177E+03  0.33209228760E+03  0.12507943541E+03 0.  0.
          5    1    4    4  502    0  0.79182147636E+02  0.69116176309E+02 -0.26226356126E+03  0.28257124110E+03  0.41800000000E+01 0.  1.
         -5    1    4    4    0  502 -0.29895035159E+02 -0.14558538796E+02 -0.36458160506E+02  0.49521046501E+02  0.41800000000E+01 0.  1.
        -11    1    3    3    0    0  0.17238878509E+02  0.10010994635E+02  0.17634955005E+02  0.26615607899E+02  0.00000000000E+00 0. -1.
         11    1    3    3    0    0 -0.66525990986E+02 -0.64568632149E+02  0.28044894124E+01  0.92750638246E+02  0.00000000000E+00 0.  1.
</event>
<event>
 8    1  0.5900800E-006  0.2085559E+03  0.7561462E-02  0.1142715E+00
          1   -1    0    0  501    0  0.00000000000E+00  0.00000000000E+00  0.31847005125E+03  0.31847005125E+03  0.00000000000E+00 0. -1.
         -1   -1    0    0    0  501 -0.00000000000E+00 -0.00000000000E+00 -0.16586527486E+03  0.16586527486E+03  0.00000000000E+00 0.  1.
         23    2    1    2    0    0  0.17915676210E+03  0.59668089170E+02 -0.26849330776E+01  0.20970437470E+03  0.91166274655E+02 0.  0.
         23    2    1    2    0    0 -0.17915676210E+03 -0.59668089170E+02  0.15528970947E+03  0.27463095141E+03  0.12509931788E+03 0.  0.
          5    1    4    4  502    0  0.11134116601E+02  0.45260754162E+01 -0.86215691962E+01  0.15370678794E+02  0.41800000000E+01 0.  1.
         -5    1    4    4    0  502 -0.19029087870E+03 -0.64194164587E+02  0.16391127866E+03  0.25926027261E+03  0.41800000000E+01 0.  1.
        -11    1    3    3    0    0  0.59022517949E+02 -0.16481609975E+02 -0.24131751673E+02  0.65860781435E+02  0.00000000000E+00 0. -1.
         11    1    3    3    0    0  0.12013424415E+03  0.76149699146E+02  0.21446818595E+02  0.14384359327E+03  0.00000000000E+00 0.  1.
</event>
<event>
 8    1  0.5900800E-006  0.7922810E+02  0.7561462E-02  0.1331256E+00
         -1   -1    0    0    0  501 -0.00000000000E+00  0.00000000000E+00  0.87134269351E+02  0.87134269351E+02  0.00000000000E+00 0.  1.
          1   -1    0    0  501    0  0.00000000000E+00 -0.00000000000E+00 -0.14181184881E+03  0.14181184881E+03  0.00000000000E+00 0. -1.
         23    2    1    2    0    0  0.16033331931E+01 -0.11998138768E+02  0.44369642807E+01  0.90063441171E+02  0.89135911799E+02 0.  0.
         23    2    1    2    0    0 -0.16033331931E+01  0.11998138768E+02 -0.59114543736E+02  0.13888267699E+03  0.12508933877E+03 0.  0.
          5    1    4    4  502    0  0.15088952070E+02 -0.52177576308E+02 -0.45683892515E+02  0.71096176967E+02  0.41800000000E+01 0.  1.
         -5    1    4    4    0  502 -0.16692285263E+02  0.64175715076E+02 -0.13430651221E+02  0.67786500020E+02  0.41800000000E+01 0.  1.
        -11    1    3    3    0    0 -0.11588693369E+02 -0.19260782791E+02 -0.38489251937E+02  0.44572391482E+02  0.00000000000E+00 0. -1.
         11    1    3    3    0    0  0.13192026562E+02  0.72626440230E+01  0.42926216218E+02  0.45491049689E+02  0.00000000000E+00 0.  1.
</event>
<event>
 8    1  0.5900800E-006  0.5138055E+02  0.7561462E-02  0.1438034E+00
          1   -1    0    0  501    0  0.00000000000E+00  0.00000000000E+00  0.17920173874E+03  0.17920173874E+03  0.00000000000E+00 0. -1.
         -1   -1    0    0    0  501 -0.00000000000E+00 -0.00000000000E+00 -0.94095864035E+02  0.94095864035E+02  0.00000000000E+00 0.  1.
         23    2    1    2    0    0 -0.88294722438E+01 -0.95775250803E-01 -0.36128338353E+02  0.98875134519E+02  0.91613681517E+02 0.  0.
         23    2    1    2    0    0  0.88294722438E+01  0.95775250803E-01  0.12123421306E+03  0.17442246826E+03  0.12508994469E+03 0.  0.
          5    1    4    4  502    0  0.77963387904E+01 -0.33654250943E+02 -0.12080360177E+02  0.36834752708E+02  0.41800000000E+01 0.  1.
         -5    1    4    4    0  502  0.10331334533E+01  0.33750026193E+02  0.13331457324E+03  0.13758771555E+03  0.41800000000E+01 0.  1.
        -11    1    3    3    0    0 -0.21372412052E+02  0.56302461273E+00  0.27039462844E+02  0.34470705600E+02  0.00000000000E+00 0. -1.
         11    1    3    3    0    0  0.12542939809E+02 -0.65879986354E+00 -0.63167801197E+02  0.64404428919E+02  0.00000000000E+00 0.  1.
</event>
<event>
 8    1  0.5900800E-006  0.1100396E+03  0.7561462E-02  0.1260496E+00
          2   -1    0    0  501    0  0.00000000000E+00  0.00000000000E+00  0.16411750044E+04  0.16411750044E+04  0.00000000000E+00 0. -1.
         -2   -1    0    0    0  501 -0.00000000000E+00 -0.00000000000E+00 -0.12345241104E+02  0.12345241104E+02  0.00000000000E+00 0.  1.
         23    2    1    2    0    0  0.18582465744E+02  0.84421732201E+02  0.55284730859E+03  0.56684712225E+03  0.90571388915E+02 0.  0.
         23    2    1    2    0    0 -0.18582465744E+02 -0.84421732201E+02  0.10759824547E+04  0.10866731233E+04  0.12509155472E+03 0.  0.
          5    1    4    4  502    0  0.53033129681E+01 -0.60658838932E+02  0.10153466611E+04  0.10171794014E+04  0.41800000000E+01 0. -1.
         -5    1    4    4    0  502 -0.23885778712E+02 -0.23762893269E+02  0.60635793602E+02  0.69493721925E+02  0.41800000000E+01 0. -1.
        -11    1    3    3    0    0 -0.16582160938E+02 -0.13288245869E+02  0.10303854810E+03  0.10520688159E+03  0.00000000000E+00 0. -1.
         11    1    3    3    0    0  0.35164626682E+02  0.97709978070E+02  0.44980876049E+03  0.46164024066E+03  0.00000000000E+00 0.  1.
</event>
<event>
 8    1  0.5900800E-006  0.1165907E+03  0.7561462E-02  0.1248830E+00
         -1   -1    0    0    0  501 -0.00000000000E+00  0.00000000000E+00  0.19086295081E+02  0.19086295081E+02  0.00000000000E+00 0.  1.
          1   -1    0    0  501    0  0.00000000000E+00 -0.00000000000E+00 -0.14129848784E+04  0.14129848784E+04  0.00000000000E+00 0. -1.
         23    2    1    2    0    0  0.14294242161E+02 -0.99577363973E+02 -0.34335834097E+03  0.36933780291E+03  0.91626882351E+02 0.  0.
         23    2    1    2    0    0 -0.14294242161E+02  0.99577363973E+02 -0.10505402423E+04  0.10627333705E+04  0.12508972523E+03 0.  0.
          5    1    4    4  502    0  0.36741204668E+00  0.60547227240E+02 -0.97043215078E+03  0.97232820251E+03  0.41800000000E+01 0.  1.
         -5    1    4    4    0  502 -0.14661654208E+02  0.39030136733E+02 -0.80108091521E+02  0.90405168019E+02  0.41800000000E+01 0.  1.
        -11    1    3    3    0    0  0.24687312110E+02  0.52550907370E+01 -0.11663930403E+03  0.11933904057E+03  0.00000000000E+00 0.  1.
         11    1    3    3    0    0 -0.10393069949E+02 -0.10483245471E+03 -0.22671903694E+03  0.24999876234E+03  0.00000000000E+00 0. -1.
</event>
<event>
 8    1  0.5900800E-006  0.9286083E+02  0.7561462E-02  0.1296068E+00
          2   -1    0    0  501    0  0.00000000000E+00  0.00000000000E+00  0.34497603596E+03  0.34497603596E+03  0.00000000000E+00 0.  1.
         -2   -1    0    0    0  501 -0.00000000000E+00 -0.00000000000E+00 -0.63734484651E+02  0.63734484651E+02  0.00000000000E+00 0. -1.
         23    2    1    2    0    0  0.64078026614E+02  0.36270357771E+02  0.32838093712E+02  0.12100588804E+03  0.90236091414E+02 0.  0.
         23    2    1    2    0    0 -0.64078026614E+02 -0.36270357771E+02  0.24840345760E+03  0.28770463257E+03  0.12509254778E+03 0.  0.
          5    1    4    4  502    0 -0.40265318404E+02  0.14813547608E+02  0.22050235474E+03  0.22467642935E+03  0.41800000000E+01 0. -1.
         -5    1    4    4    0  502 -0.23812708210E+02 -0.51083905379E+02  0.27901102854E+02  0.63028203222E+02  0.41800000000E+01 0. -1.
        -11    1    3    3    0    0  0.24127457764E+02  0.39211351259E+02 -0.23647385221E+02  0.51757734817E+02  0.00000000000E+00 0. -1.
         11    1    3    3    0    0  0.39950568850E+02 -0.29409934879E+01  0.56485478933E+02  0.69248153220E+02  0.00000000000E+00 0.  1.
</event>
<event>
 8    1  0.7331069E-006  0.3794552E+03  0.7561462E-02  0.1051135E+00
          1   -1    0    0  501    0  0.00000000000E+00  0.00000000000E+00  0.36936982105E+03  0.36936982105E+03  0.00000000000E+00 0. -1.
         -1   -1    0    0    0  501 -0.00000000000E+00 -0.00000000000E+00 -0.40659339166E+03  0.40659339166E+03  0.00000000000E+00 0.  1.
         23    2    1    2    0    0 -0.25919135018E+03  0.25853176085E+03 -0.79286611218E+02  0.38681607135E+03  0.96547806616E+02 0.  0.
         23    2    1    2    0    0  0.25919135018E+03 -0.25853176085E+03  0.42063040609E+02  0.38914714136E+03  0.12508945146E+03 0.  0.
          5    1    4    4  502    0  0.23823671973E+03 -0.26817420203E+03  0.54104118915E+02  0.36279314401E+03  0.41800000000E+01 0. -1.
         -5    1    4    4    0  502  0.20954630454E+02  0.96424411800E+01 -0.12041078306E+02  0.26353997346E+02  0.41800000000E+01 0. -1.
        -11    1    3    3    0    0 -0.15587088362E+03  0.92718813863E+02 -0.18992084819E+02  0.18235462728E+03  0.00000000000E+00 0. -1.
         11    1    3    3    0    0 -0.10332046656E+03  0.16581294698E+03 -0.60294526399E+02  0.20446144407E+03  0.00000000000E+00 0.  1.
</event>
<event>
 8    1  0.5900800E-006  0.1362511E+03  0.7561462E-02  0.1218464E+00
          2   -1    0    0  501    0  0.00000000000E+00  0.00000000000E+00  0.15191783379E+04  0.15191783379E+04  0.00000000000E+00 0. -1.
         -2   -1    0    0    0  501 -0.00000000000E+00 -0.00000000000E+00 -0.15275839895E+02  0.15275839895E+02  0.00000000000E+00 0.  1.
         23    2    1    2    0    0  0.14124698462E+02  0.82553243281E+02  0.37141089733E+03  0.39200256872E+03  0.93302808884E+02 0.  0.
         23    2    1    2    0    0 -0.14124698462E+02 -0.82553243281E+02  0.11324916007E+04  0.11424516091E+04  0.12507561071E+03 0.  0.
          5    1    4    4  502    0  0.43555532313E+02  0.62658490918E+01  0.29946360794E+03  0.30270822608E+03  0.41800000000E+01 0.  1.
         -5    1    4    4    0  502 -0.57680230774E+02 -0.88819092373E+02  0.83302799273E+03  0.83974338298E+03  0.41800000000E+01 0.  1.
        -11    1    3    3    0    0  0.50136413869E+02  0.29435817706E+02  0.13395239185E+03  0.14602523974E+03  0.00000000000E+00 0.  1.
         11    1    3    3    0    0 -0.36011715408E+02  0.53117425575E+02  0.23745850549E+03  0.24597732898E+03  0.00000000000E+00 0. -1.
</event>
<event>
 8    1  0.5900800E-006  0.1171574E+03  0.7561462E-02  0.1247861E+00
          1   -1    0    0  501    0  0.00000000000E+00  0.00000000000E+00  0.11760795986E+03  0.11760795986E+03  0.00000000000E+00 0. -1.
         -1   -1    0    0    0  501 -0.00000000000E+00 -0.00000000000E+00 -0.16469564213E+03  0.16469564213E+03  0.00000000000E+00 0.  1.
         23    2    1    2    0    0  0.82646797563E+02  0.24462946586E+02 -0.36189672565E+02  0.13000237858E+03  0.90343771969E+02 0.  0.
         23    2    1    2    0    0 -0.82646797563E+02 -0.24462946586E+02 -0.10898009701E+02  0.15230122341E+03  0.12509183480E+03 0.  0.
          5    1    4    4  502    0  0.55979363734E+01  0.35794542149E+02 -0.25317324565E+02  0.44396232525E+02  0.41800000000E+01 0. -1.
         -5    1    4    4    0  502 -0.88244733936E+02 -0.60257488735E+02  0.14419314864E+02  0.10790499088E+03  0.41800000000E+01 0. -1.
        -11    1    3    3    0    0  0.51802001700E+02  0.29562889445E+02  0.22304063510E+02  0.63677963704E+02  0.00000000000E+00 0. -1.
         11    1    3    3    0    0  0.30844795863E+02 -0.50999428583E+01 -0.58493736075E+02  0.66324414878E+02  0.00000000000E+00 0.  1.
</event>
<event>
 8    1  0.9191349E-006  0.9554050E+02  0.7561462E-02  0.1289963E+00
          2   -1    0    0  501    0  0.00000000000E+00  0.00000000000E+00  0.10502536502E+03  0.10502536502E+03  0.00000000000E+00 0. -1.
         -2   -1    0    0    0  501 -0.00000000000E+00 -0.00000000000E+00 -0.17017124646E+03  0.17017124646E+03  0.00000000000E+00 0.  1.
         23    2    1    2    0    0 -0.19767676979E+01 -0.76237762464E+02 -0.39826109397E+02  0.12651950112E+03  0.92762929759E+02 0.  0.
         23    2    1    2    0    0  0.19767676979E+01  0.76237762464E+02 -0.25319772047E+02  0.14867711036E+03  0.12509072009E+03 0.  0.
          5    1    4    4  502    0 -0.33662341187E+02  0.18077292534E+02 -0.60604949714E+02  0.71766106550E+02  0.41800000000E+01 0. -1.
         -5    1    4    4    0  502  0.35639108885E+02  0.58160469930E+02  0.35285177667E+02  0.76911003813E+02  0.41800000000E+01 0. -1.
        -11    1    3    3    0    0  0.99033451178E+01 -0.70353400153E+02 -0.66131518796E+02  0.97062118954E+02  0.00000000000E+00 0.  1.
         11    1    3    3    0    0 -0.11880112816E+02 -0.58843623102E+01  0.26305409398E+02  0.29457382164E+02  0.00000000000E+00 0. -1.
</event>
<event>
 8    1  0.5900800E-006  0.1480871E+03  0.7561462E-02  0.1202843E+00
         -2   -1    0    0    0  501 -0.00000000000E+00  0.00000000000E+00  0.44468993346E+03  0.44468993346E+03  0.00000000000E+00 0.  1.
          2   -1    0    0  501    0  0.00000000000E+00 -0.00000000000E+00 -0.73459507579E+02  0.73459507579E+02  0.00000000000E+00 0. -1.
         23    2    1    2    0    0 -0.10437493328E+03 -0.46743504957E+02  0.29992757541E+03  0.33427036845E+03  0.93279401684E+02 0.  0.
         23    2    1    2    0    0  0.10437493328E+03  0.46743504957E+02  0.71302850466E+02  0.18387907258E+03  0.12509330476E+03 0.  0.
          5    1    4    4  502    0  0.56905636375E+02 -0.26319218097E+02 -0.11184794162E+02  0.63824170288E+02  0.41800000000E+01 0. -1.
         -5    1    4    4    0  502  0.47469296909E+02  0.73062723054E+02  0.82487644628E+02  0.12005490230E+03  0.41800000000E+01 0. -1.
        -11    1    3    3    0    0 -0.46074780666E+02 -0.69615840225E+02  0.14762937311E+03  0.16959859206E+03  0.00000000000E+00 0. -1.
         11    1    3    3    0    0 -0.58300152619E+02  0.22872335268E+02  0.15229820230E+03  0.16467177639E+03  0.00000000000E+00 0.  1.
</event>
<event>
 8    1  0.5900800E-006  0.1010496E+03  0.7561462E-02  0.1278104E+00
          2   -1    0    0  501    0  0.00000000000E+00  0.00000000000E+00  0.34070246973E+03  0.34070246973E+03  0.00000000000E+00 0. -1.
         -2   -1    0    0    0  501 -0.00000000000E+00 -0.00000000000E+00 -0.38115102339E+02  0.38115102339E+02  0.00000000000E+00 0.  1.
         23    2    1    2    0    0 -0.32205945785E+02  0.16171983026E+01  0.12764737979E+03  0.16135037846E+03  0.93275145606E+02 0.  0.
         23    2    1    2    0    0  0.32205945785E+02 -0.16171983026E+01  0.17493998761E+03  0.21746719361E+03  0.12509253679E+03 0.  0.
          5    1    4    4  502    0 -0.32688721034E+02 -0.41247389012E+02  0.78102707132E+02  0.94273033496E+02  0.41800000000E+01 0.  1.
         -5    1    4    4    0  502  0.64894666819E+02  0.39630190710E+02  0.96837280474E+02  0.12319416012E+03  0.41800000000E+01 0.  1.
        -11    1    3    3    0    0 -0.44147131673E+02 -0.19990719847E+02  0.12778077835E+03  0.13666208483E+03  0.00000000000E+00 0. -1.
         11    1    3    3    0    0  0.11941185888E+02  0.21607918150E+02 -0.13339855926E+00  0.24688293630E+02  0.00000000000E+00 0.  1.
</event>
<event>
 6    1  0.5900800E-006  0.1042799E+03  0.7561462E-02  0.1271545E+00
          2   -1    0    0  501    0  0.00000000000E+00  0.00000000000E+00  0.20692909802E+04  0.20692909802E+04  0.00000000000E+00 0. -1.
         -2   -1    0    0    0  501 -0.00000000000E+00 -0.00000000000E+00 -0.88685795042E+01  0.88685795042E+01  0.00000000000E+00 0.  1.
          5    1    1    2  502    0 -0.62669844647E+02 -0.46192851926E+02  0.15220768651E+04  0.15240724210E+04  0.41800000000E+01 0. -1.
         -5    1    1    2    0  502  0.84330782465E+02  0.40334145135E+02  0.36520469585E+03  0.37700194483E+03  0.41800000000E+01 0.  1.
        -11    1    1    2    0    0 -0.18427175738E+02 -0.99101207113E+01  0.89954893724E+02  0.92356127047E+02  0.00000000000E+00 0. -1.
         11    1    1    2    0    0 -0.32337620799E+01  0.15768827502E+02  0.83185946086E+02  0.84729066820E+02  0.00000000000E+00 0.  1.
</event>
<event>
 8    1  0.5900800E-006  0.6664228E+02  0.7561462E-02  0.1371898E+00
          2   -1    0    0  501    0  0.00000000000E+00  0.00000000000E+00  0.39289747141E+03  0.39289747141E+03  0.00000000000E+00 0.  1.
         -2   -1    0    0    0  501 -0.00000000000E+00 -0.00000000000E+00 -0.37799892966E+02  0.37799892966E+02  0.00000000000E+00 0. -1.
         23    2    1    2    0    0 -0.39131109723E+02 -0.37829187882E+02  0.13976953542E+03  0.17579398944E+03  0.91682672786E+02 0.  0.
         23    2    1    2    0    0  0.39131109723E+02  0.37829187882E+02  0.21532804303E+03  0.25490337494E+03  0.12508906121E+03 0.  0.
          5    1    4    4  502    0  0.29756407755E+02 -0.56145011961E+01  0.20730704893E+03  0.20954868495E+03  0.41800000000E+01 0. -1.
         -5    1    4    4    0  502  0.93747019677E+01  0.43443689078E+02  0.80209940980E+01  0.45354689989E+02  0.41800000000E+01 0. -1.
        -11    1    3    3    0    0 -0.22797695274E+02 -0.81708986674E+01 -0.69684829984E+01  0.25200362103E+02  0.00000000000E+00 0. -1.
         11    1    3    3    0    0 -0.16333414449E+02 -0.29658289214E+02  0.14673801841E+03  0.15059362734E+03  0.00000000000E+00 0.  1.
</event>
<event>
 8    1  0.5900800E-006  0.1071288E+03  0.7561462E-02  0.1265981E+00
         -2   -1    0    0    0  501 -0.00000000000E+00  0.00000000000E+00  0.21464788590E+03  0.21464788590E+03  0.00000000000E+00 0. -1.
          2   -1    0    0  501    0  0.00000000000E+00 -0.00000000000E+00 -0.24776607241E+03  0.24776607241E+03  0.00000000000E+00 0.  1.
         23    2    1    2    0    0 -0.39996056144E+02 -0.23034811874E+00  0.18377341966E+03  0.20886126285E+03  0.90832922322E+02 0.  0.
         23    2    1    2    0    0  0.39996056144E+02  0.23034811874E+00 -0.21689160617E+03  0.25355269546E+03  0.12508902022E+03 0.  0.
          5    1    4    4  502    0 -0.28911530540E+02 -0.39379152856E+02 -0.58830516574E+02  0.76583917099E+02  0.41800000000E+01 0.  1.
         -5    1    4    4    0  502  0.68907586685E+02  0.39609500975E+02 -0.15806108960E+03  0.17696877836E+03  0.41800000000E+01 0.  1.
        -11    1    3    3    0    0 -0.14882205342E+01  0.34048614956E+02  0.25965331711E+02  0.42845319833E+02  0.00000000000E+00 0.  1.
         11    1    3    3    0    0 -0.38507835610E+02 -0.34278963074E+02  0.15780808795E+03  0.16601594302E+03  0.00000000000E+00 0. -1.
</event>
<event>
 8    1  0.5900800E-006  0.2498286E+03  0.7561462E-02  0.1113413E+00
         -1   -1    0    0    0  501 -0.00000000000E+00  0.00000000000E+00  0.37158252407E+03  0.37158252407E+03  0.00000000000E+00 0.  1.
          1   -1    0    0  501    0  0.00000000000E+00 -0.00000000000E+00 -0.20480562655E+03  0.20480562655E+03  0.00000000000E+00 0. -1.
         23    2    1    2    0    0  0.12248000267E+03 -0.20487598978E+03  0.16826110362E+03  0.30689880630E+03  0.94337458475E+02 0.  0.
         23    2    1    2    0    0 -0.12248000267E+03  0.20487598978E+03 -0.14842060968E+01  0.26948934432E+03  0.12508709602E+03 0.  0.
          5    1    4    4  502    0 -0.11464323774E+02 -0.91232811874E+01  0.22509324807E+02  0.27181005913E+02  0.41800000000E+01 0.  1.
         -5    1    4    4    0  502 -0.11101567889E+03  0.21399927097E+03 -0.23993530904E+02  0.24230833841E+03  0.41800000000E+01 0.  1.
        -11    1    3    3    0    0  0.87673007891E+02 -0.10096525478E+03  0.42986952040E+02  0.14045788348E+03  0.00000000000E+00 0. -1.
         11    1    3    3    0    0  0.34806994777E+02 -0.10391073501E+03  0.12527415158E+03  0.16644092282E+03  0.00000000000E+00 0.  1.
</event>
<event>
 8    1  0.5900800E-006  0.8929574E+02  0.7561462E-02  0.1304566E+00
         -3   -1    0    0    0  501 -0.00000000000E+00  0.00000000000E+00  0.45558369308E+02  0.45558369308E+02  0.00000000000E+00 0.  1.
          3   -1    0    0  501    0  0.00000000000E+00 -0.00000000000E+00 -0.27503960191E+03  0.27503960191E+03  0.00000000000E+00 0. -1.
         23    2    1    2    0    0 -0.22225291447E+02 -0.15344986242E+02 -0.95194521591E+02  0.13510048624E+03  0.91982130100E+02 0.  0.
         23    2    1    2    0    0  0.22225291447E+02  0.15344986242E+02 -0.13428671101E+03  0.18549748498E+03  0.12508782514E+03 0.  0.
          5    1    4    4  502    0 -0.28993689957E+02  0.64622129897E+00  0.10527218152E+02  0.31134328021E+02  0.41800000000E+01 0.  1.
         -5    1    4    4    0  502  0.51218981404E+02  0.14698764943E+02 -0.14481392917E+03  0.15436315696E+03  0.41800000000E+01 0.  1.
        -11    1    3    3    0    0 -0.69693744269E+01  0.38885605686E+02 -0.37742236446E+02  0.54636424859E+02  0.00000000000E+00 0.  1.
         11    1    3    3    0    0 -0.15255917020E+02 -0.54230591927E+02 -0.57452285145E+02  0.80464061377E+02  0.00000000000E+00 0. -1.
</event>
<event>
 8    1  0.5900800E-006  0.1773330E+03  0.7561462E-02  0.1170409E+00
          1   -1    0    0  501    0  0.00000000000E+00  0.00000000000E+00  0.63150009362E+02  0.63150009362E+02  0.00000000000E+00 0. -1.
         -1   -1    0    0    0  501 -0.00000000000E+00 -0.00000000000E+00 -0.53155345601E+03  0.53155345601E+03  0.00000000000E+00 0.  1.
         23    2    1    2    0    0 -0.14765480582E+03 -0.28374955399E+01 -0.23870005141E+03  0.29433477067E+03  0.88573413730E+02 0.  0.
         23    2    1    2    0    0  0.14765480582E+03  0.28374955399E+01 -0.22970339523E+03  0.30036869470E+03  0.12509080666E+03 0.  0.
          5    1    4    4  502    0  0.10786326178E+03  0.58093824760E+02 -0.12251060683E+03  0.17330809821E+03  0.41800000000E+01 0.  1.
         -5    1    4    4    0  502  0.39791544037E+02 -0.55256329220E+02 -0.10719278840E+03  0.12706059649E+03  0.41800000000E+01 0.  1.
        -11    1    3    3    0    0 -0.40206632861E+02  0.31481301724E+02 -0.12089257952E+03  0.13123513808E+03  0.00000000000E+00 0.  1.
         11    1    3    3    0    0 -0.10744817296E+03 -0.34318797264E+02 -0.11780747189E+03  0.16309963259E+03  0.00000000000E+00 0. -1.
</event>
<event>
 8    1  0.5900800E-006  0.1250649E+03  0.7561462E-02  0.1234968E+00
         -1   -1    0    0    0  501 -0.00000000000E+00  0.00000000000E+00  0.63502551311E+02  0.63502551311E+02  0.00000000000E+00 0.  1.
          1   -1    0    0  501    0  0.00000000000E+00 -0.00000000000E+00 -0.34843528245E+03  0.34843528245E+03  0.00000000000E+00 0. -1.
         23    2    1    2    0    0 -0.90927637314E+02 -0.14316614806E+02 -0.71632705763E+02  0.14808771431E+03  0.91246511752E+02 0.  0.
         23    2    1    2    0    0  0.90927637314E+02  0.14316614806E+02 -0.21330002538E+03  0.26385011945E+03  0.12508870462E+03 0.  0.
          5    1    4    4  502    0  0.85801075473E+01  0.59498840366E+02 -0.98390236710E+02  0.11537695320E+03  0.41800000000E+01 0. -1.
         -5    1    4    4    0  502  0.82347529767E+02 -0.45182225561E+02 -0.11490978867E+03  0.14847316625E+03  0.41800000000E+01 0. -1.
        -11    1    3    3    0    0 -0.67539687026E+01 -0.93429348724E+01 -0.62179248965E+02  0.63238955772E+02  0.00000000000E+00 0. -1.
         11    1    3    3    0    0 -0.84173668612E+02 -0.49736799333E+01 -0.94534567979E+01  0.84848758536E+02  0.00000000000E+00 0.  1.
</event>
<event>
 8    1  0.5900800E-006  0.7830312E+02  0.7561462E-02  0.1333937E+00
          2   -1    0    0  501    0  0.00000000000E+00  0.00000000000E+00  0.30155277667E+02  0.30155277667E+02  0.00000000000E+00 0. -1.
         -2   -1    0    0    0  501 -0.00000000000E+00 -0.00000000000E+00 -0.48878248794E+03  0.48878248794E+03  0.00000000000E+00 0.  1.
         23    2    1    2    0    0  0.46038796723E+01 -0.36869451411E+02 -0.27469703240E+03  0.29341600571E+03  0.96197404536E+02 0.  0.
         23    2    1    2    0    0 -0.46038796723E+01  0.36869451411E+02 -0.18393017788E+03  0.22552175991E+03  0.12509676935E+03 0.  0.
          5    1    4    4  502    0  0.28519971437E+02 -0.15259543051E+02 -0.15277961122E+03  0.15622203567E+03  0.41800000000E+01 0.  1.
         -5    1    4    4    0  502 -0.33123851110E+02  0.52128994462E+02 -0.31150566660E+02  0.69299724236E+02  0.41800000000E+01 0.  1.
        -11    1    3    3    0    0 -0.76246415265E+01 -0.46125281497E+02 -0.27411003190E+03  0.27806831237E+03  0.00000000000E+00 0.  1.
         11    1    3    3    0    0  0.12228521199E+02  0.92558300858E+01 -0.58700049669E+00  0.15347693340E+02  0.00000000000E+00 0. -1.
</event>
<event>
 8    1  0.5900800E-006  0.9951783E+02  0.7561462E-02  0.1281313E+00
         -3   -1    0    0    0  501 -0.00000000000E+00  0.00000000000E+00  0.63605206557E+02  0.63605206557E+02  0.00000000000E+00 0.  1.
          3   -1    0    0  501    0  0.00000000000E+00 -0.00000000000E+00 -0.19347170184E+03  0.19347170184E+03  0.00000000000E+00 0. -1.
         23    2    1    2    0    0  0.19025538111E+02  0.10388431627E+02 -0.62532964642E+02  0.11337226778E+03  0.92048947972E+02 0.  0.
         23    2    1    2    0    0 -0.19025538111E+02 -0.10388431627E+02 -0.67333530642E+02  0.14370464062E+03  0.12508928321E+03 0.  0.
          5    1    4    4  502    0 -0.59366362096E+02 -0.28508782903E+02 -0.73592009419E+02  0.98845191595E+02  0.41800000000E+01 0.  1.
         -5    1    4    4    0  502  0.40340823985E+02  0.18120351276E+02  0.62584787762E+01  0.44859449024E+02  0.41800000000E+01 0.  1.
        -11    1    3    3    0    0 -0.12842123134E+02  0.41891068695E+02 -0.11183586573E+02  0.45220066029E+02  0.00000000000E+00 0.  1.
         11    1    3    3    0    0  0.31867661245E+02 -0.31502637068E+02 -0.51349378069E+02  0.68152201751E+02  0.00000000000E+00 0. -1.
</event>
<event>
 8    1  0.5900800E-006  0.9929665E+02  0.7561462E-02  0.1281782E+00
          2   -1    0    0  501    0  0.00000000000E+00  0.00000000000E+00  0.17459333969E+03  0.17459333969E+03  0.00000000000E+00 0.  1.
         -2   -1    0    0    0  501 -0.00000000000E+00 -0.00000000000E+00 -0.70681160302E+02  0.70681160302E+02  0.00000000000E+00 0. -1.
         23    2    1    2    0    0  0.92828881240E+01 -0.29541163127E+01  0.18957343932E+02  0.93751893519E+02  0.91296976042E+02 0.  0.
         23    2    1    2    0    0 -0.92828881240E+01  0.29541163127E+01  0.84954835459E+02  0.15152260648E+03  0.12508747895E+03 0.  0.
          5    1    4    4  502    0 -0.65480134725E+02  0.96073865238E+01  0.60387573011E+02  0.89688802499E+02  0.41800000000E+01 0. -1.
         -5    1    4    4    0  502  0.56197246601E+02 -0.66532702111E+01  0.24567262448E+02  0.61833803977E+02  0.41800000000E+01 0. -1.
        -11    1    3    3    0    0 -0.32857127216E+02  0.29299828006E+01 -0.17836386277E+02  0.37500830437E+02  0.00000000000E+00 0.  1.
         11    1    3    3    0    0  0.42140015340E+02 -0.58840991133E+01  0.36793730208E+02  0.56251063082E+02  0.00000000000E+00 0. -1.
</event>
<event>
 8    1  0.5900800E-006  0.9929141E+02  0.7561462E-02  0.1281793E+00
          1   -1    0    0  501    0  0.00000000000E+00  0.00000000000E+00  0.34656953776E+03  0.34656953776E+03  0.00000000000E+00 0. -1.
         -1   -1    0    0    0  501 -0.00000000000E+00 -0.00000000000E+00 -0.42293423273E+02  0.42293423273E+02  0.00000000000E+00 0.  1.
         23    2    1    2    0    0 -0.31016707068E+01  0.53543171495E+01  0.45185925220E+02  0.10108984571E+03  0.90216960683E+02 0.  0.
         23    2    1    2    0    0  0.31016707068E+01 -0.53543171495E+01  0.25909018927E+03  0.28777311532E+03  0.12508937067E+03 0.  0.
          5    1    4    4  502    0  0.38928547762E+02  0.37746260143E+02  0.60351104300E+02  0.81240015853E+02  0.41800000000E+01 0.  1.
         -5    1    4    4    0  502 -0.35826877055E+02 -0.43100577292E+02  0.19873908497E+03  0.20653309947E+03  0.41800000000E+01 0.  1.
        -11    1    3    3    0    0  0.41416645313E+02 -0.65066942458E+01  0.99513306311E+01  0.43089494779E+02  0.00000000000E+00 0. -1.
         11    1    3    3    0    0 -0.44518316019E+02  0.11861011395E+02  0.35234594589E+02  0.58000350933E+02  0.00000000000E+00 0.  1.
</event>
<event>
 8    1  0.5900800E-006  0.1078872E+03  0.7561462E-02  0.1264533E+00
         -2   -1    0    0    0  501 -0.00000000000E+00  0.00000000000E+00  0.35051326713E+03  0.35051326713E+03  0.00000000000E+00 0.  1.
          2   -1    0    0  501    0  0.00000000000E+00 -0.00000000000E+00 -0.51056533704E+02  0.51056533704E+02  0.00000000000E+00 0. -1.
         23    2    1    2    0    0  0.18581199832E+02  0.53573582968E+02  0.21374483884E+03  0.23968015737E+03  0.92435555529E+02 0.  0.
         23    2    1    2    0    0 -0.18581199832E+02 -0.53573582968E+02  0.85711894593E+02  0.16188964347E+03  0.12508532292E+03 0.  0.
          5    1    4    4  502    0  0.40871360802E+02 -0.54053260575E+02  0.75293877543E+02  0.10138473015E+03  0.41800000000E+01 0.  1.
         -5    1    4    4    0  502 -0.59452560634E+02  0.47967760773E+00  0.10418017049E+02  0.60504913320E+02  0.41800000000E+01 0.  1.
        -11    1    3    3    0    0  0.39570119607E+02  0.54404630612E+02  0.20693985393E+03  0.21760000308E+03  0.00000000000E+00 0.  1.
         11    1    3    3    0    0 -0.20988919775E+02 -0.83104764405E+00  0.68049849077E+01  0.22080154282E+02  0.00000000000E+00 0. -1.
</event>
<event>
 8    1  0.5900800E-006  0.1268332E+03  0.7561462E-02  0.1232232E+00
         -1   -1    0    0    0  501 -0.00000000000E+00  0.00000000000E+00  0.25270258116E+02  0.25270258116E+02  0.00000000000E+00 0.  1.
          1   -1    0    0  501    0  0.00000000000E+00 -0.00000000000E+00 -0.89248965016E+03  0.89248965016E+03  0.00000000000E+00 0. -1.
         23    2    1    2    0    0 -0.34284714392E+02  0.95938136133E+02 -0.35148373691E+03  0.37738010154E+03  0.92170256162E+02 0.  0.
         23    2    1    2    0    0  0.34284714392E+02 -0.95938136133E+02 -0.51573565513E+03  0.54037980673E+03  0.12508997539E+03 0.  0.
          5    1    4    4  502    0  0.73404110552E+02 -0.80520799283E+02 -0.44336785666E+03  0.45657889930E+03  0.41800000000E+01 0.  1.
         -5    1    4    4    0  502 -0.39119396160E+02 -0.15417336850E+02 -0.72367798473E+02  0.83800907437E+02  0.41800000000E+01 0.  1.
        -11    1    3    3    0    0 -0.21228367461E+02  0.44497575702E+02 -0.46359699555E+02  0.67674955273E+02  0.00000000000E+00 0.  1.
         11    1    3    3    0    0 -0.13056346931E+02  0.51440560431E+02 -0.30512403735E+03  0.30970514627E+03  0.00000000000E+00 0. -1.
</event>
<event>
 7    1  0.6049475E-006  0.2294882E+03  0.7561462E-02  0.1127000E+00
         -2   -1    0    0    0  501 -0.00000000000E+00  0.00000000000E+00  0.10781626599E+03  0.10781626599E+03  0.00000000000E+00 0.  1.
          2   -1    0    0  501    0  0.00000000000E+00 -0.00000000000E+00 -0.60234039744E+03  0.60234039744E+03  0.00000000000E+00 0. -1.
         23    2    1    2    0    0 -0.81947254005E+01 -0.21525541634E+03 -0.39970640684E+03  0.47097187432E+03  0.12508895612E+03 0.  0.
          5    1    3    3  502    0  0.49391707011E+02 -0.11730751664E+03 -0.26973681501E+03  0.29828847774E+03  0.41800000000E+01 0. -1.
         -5    1    3    3    0  502 -0.57586432411E+02 -0.97947899703E+02 -0.12996959183E+03  0.17268339658E+03  0.41800000000E+01 0. -1.
        -11    1    1    2    0    0 -0.18820424375E+01  0.19752085142E+03 -0.76685407091E+02  0.21189308741E+03  0.00000000000E+00 0.  1.
         11    1    1    2    0    0  0.10076767838E+02  0.17734564922E+02 -0.18132317520E+02  0.27291701700E+02  0.00000000000E+00 0. -1.
</event>
<event>
 8    1  0.5900800E-006  0.1213894E+03  0.7561462E-02  0.1240822E+00
         -2   -1    0    0    0  501 -0.00000000000E+00  0.00000000000E+00  0.52955166452E+02  0.52955166452E+02  0.00000000000E+00 0.  1.
          2   -1    0    0  501    0  0.00000000000E+00 -0.00000000000E+00 -0.31959424612E+03  0.31959424612E+03  0.00000000000E+00 0. -1.
         23    2    1    2    0    0  0.54639975125E+02 -0.31314897307E+02 -0.70987701749E+02  0.13193863921E+03  0.91664611720E+02 0.  0.
         23    2    1    2    0    0 -0.54639975125E+02  0.31314897307E+02 -0.19565137792E+03  0.24061077336E+03  0.12509169797E+03 0.  0.
          5    1    4    4  502    0  0.40202348496E+02  0.96392787118E+01 -0.45216278318E+02  0.61409516718E+02  0.41800000000E+01 0. -1.
         -5    1    4    4    0  502 -0.94842323621E+02  0.21675618595E+02 -0.15043509960E+03  0.17920125664E+03  0.41800000000E+01 0. -1.
        -11    1    3    3    0    0  0.21997866501E+02  0.28322891962E+02 -0.33186264302E+01  0.36015352574E+02  0.00000000000E+00 0.  1.
         11    1    3    3    0    0  0.32642108624E+02 -0.59637789268E+02 -0.67669075319E+02  0.95923286634E+02  0.00000000000E+00 0. -1.
</event>
<event>
 8    1  0.5900800E-006  0.1215033E+03  0.7561462E-02  0.1240637E+00
         -1   -1    0    0    0  501 -0.00000000000E+00  0.00000000000E+00  0.23042147714E+03  0.23042147714E+03  0.00000000000E+00 0.  1.
          1   -1    0    0  501    0  0.00000000000E+00 -0.00000000000E+00 -0.10042793159E+03  0.10042793159E+03  0.00000000000E+00 0. -1.
         23    2    1    2    0    0 -0.10392958073E+03 -0.74991188323E+00  0.84544962409E+02  0.16198436559E+03  0.91044845593E+02 0.  0.
         23    2    1    2    0    0  0.10392958073E+03  0.74991188323E+00  0.45448583133E+02  0.16886504313E+03  0.12509160229E+03 0.  0.
          5    1    4    4  502    0  0.35483998217E+02 -0.75929184494E+01  0.82681809550E+02  0.90390931904E+02  0.41800000000E+01 0. -1.
         -5    1    4    4    0  502  0.68445582517E+02  0.83428303327E+01 -0.37233226417E+02  0.78474111231E+02  0.41800000000E+01 0. -1.
        -11    1    3    3    0    0 -0.99172005784E+02  0.32077148960E+02  0.56570007525E+02  0.11859256287E+03  0.00000000000E+00 0.  1.
         11    1    3    3    0    0 -0.47575749503E+01 -0.32827060843E+02  0.27974954884E+02  0.43391802725E+02  0.00000000000E+00 0. -1.
</event>
<event>
 8    1  0.5900800E-006  0.7556713E+02  0.7561462E-02  0.1342124E+00
          2   -1    0    0  501    0  0.00000000000E+00  0.00000000000E+00  0.26024765889E+03  0.26024765889E+03  0.00000000000E+00 0. -1.
         -2   -1    0    0    0  501 -0.00000000000E+00 -0.00000000000E+00 -0.57797045041E+02  0.57797045041E+02  0.00000000000E+00 0.  1.
         23    2    1    2    0    0 -0.19043752739E+02 -0.30710838208E+02  0.33788141464E+02  0.10497124661E+03  0.92582417391E+02 0.  0.
         23    2    1    2    0    0  0.19043752739E+02  0.30710838208E+02  0.16866247239E+03  0.21307345732E+03  0.12508976186E+03 0.  0.
          5    1    4    4  502    0  0.31022453377E+02  0.28906115784E+02 -0.13008692767E+01  0.42627699963E+02  0.41800000000E+01 0. -1.
         -5    1    4    4    0  502 -0.11978700638E+02  0.18047224240E+01  0.16996334166E+03  0.17044575736E+03  0.41800000000E+01 0. -1.
        -11    1    3    3    0    0 -0.23578866508E+02  0.28125032554E+02 -0.53439948984E+00  0.36705122051E+02  0.00000000000E+00 0.  1.
         11    1    3    3    0    0  0.45351137691E+01 -0.58835870762E+02  0.34322540954E+02  0.68266124562E+02  0.00000000000E+00 0. -1.
</event>
<event>
 8    1  0.5900800E-006  0.9327522E+02  0.7561462E-02  0.1295109E+00
          1   -1    0    0  501    0  0.00000000000E+00  0.00000000000E+00  0.16716072368E+03  0.16716072368E+03  0.00000000000E+00 0. -1.
         -1   -1    0    0    0  501 -0.00000000000E+00 -0.00000000000E+00 -0.87383347229E+02  0.87383347229E+02  0.00000000000E+00 0.  1.
         23    2    1    2    0    0  0.62690382220E+01  0.64867361346E+01 -0.15436311965E+02  0.97079729509E+02  0.95419157241E+02 0.  0.
         23    2    1    2    0    0 -0.62690382220E+01 -0.64867361346E+01  0.95213688418E+02  0.15746434140E+03  0.12509194125E+03 0.  0.
          5    1    4    4  502    0 -0.62194463008E+02 -0.12604140044E+02  0.27385933314E+02  0.69242164312E+02  0.41800000000E+01 0.  1.
         -5    1    4    4    0  502  0.55925424786E+02  0.61174039093E+01  0.67827755104E+02  0.88222177090E+02  0.41800000000E+01 0.  1.
        -11    1    3    3    0    0 -0.21449443204E+02 -0.19171833484E+02  0.27566516539E+02  0.39844079196E+02  0.00000000000E+00 0. -1.
         11    1    3    3    0    0  0.27718481426E+02  0.25658569619E+02 -0.43002828503E+02  0.57235650313E+02  0.00000000000E+00 0.  1.
</event>
<event>
 8    1  0.5900800E-006  0.1017423E+03  0.7561462E-02  0.1276674E+00
          2   -1    0    0  501    0  0.00000000000E+00  0.00000000000E+00  0.44762273598E+03  0.44762273598E+03  0.00000000000E+00 0. -1.
         -2   -1    0    0    0  501 -0.00000000000E+00 -0.00000000000E+00 -0.46070071881E+02  0.46070071881E+02  0.00000000000E+00 0.  1.
         23    2    1    2    0    0 -0.54073441110E+02 -0.42555600950E+02  0.75879162997E+02  0.13810114519E+03  0.92624849363E+02 0.  0.
         23    2    1    2    0    0  0.54073441110E+02  0.42555600950E+02  0.32567350110E+03  0.35559166267E+03  0.12508910838E+03 0.  0.
          5    1    4    4  502    0  0.56254932911E+02  0.79279025517E+02  0.17292075594E+03  0.19841583001E+03  0.41800000000E+01 0. -1.
         -5    1    4    4    0  502 -0.21814918010E+01 -0.36723424567E+02  0.15275274516E+03  0.15717583266E+03  0.41800000000E+01 0. -1.
        -11    1    3    3    0    0 -0.42262841937E+02 -0.29414260460E+02 -0.82400222330E+01  0.52146375650E+02  0.00000000000E+00 0.  1.
         11    1    3    3    0    0 -0.11810599173E+02 -0.13141340490E+02  0.84119185230E+02  0.85954769539E+02  0.00000000000E+00 0. -1.
</event>
<event>
 8    1  0.5900800E-006  0.1484486E+03  0.7561462E-02  0.1202392E+00
         -2   -1    0    0    0  501 -0.00000000000E+00  0.00000000000E+00  0.32829658877E+02  0.32829658877E+02  0.00000000000E+00 0.  1.
          2   -1    0    0  501    0  0.00000000000E+00 -0.00000000000E+00 -0.96734743956E+03  0.96734743956E+03  0.00000000000E+00 0. -1.
         23    2    1    2    0    0 -0.41956509976E+02 -0.13190818152E+03 -0.35750244708E+03  0.39374986960E+03  0.89837870972E+02 0.  0.
         23    2    1    2    0    0  0.41956509976E+02  0.13190818152E+03 -0.57701533360E+03  0.60642722884E+03  0.12508865490E+03 0.  0.
          5    1    4    4  502    0 -0.13533472561E+02  0.43552122860E+02 -0.44802883865E+02  0.64068034836E+02  0.41800000000E+01 0.  1.
         -5    1    4    4    0  502  0.55489982537E+02  0.88356058657E+02 -0.53221244974E+03  0.54235919400E+03  0.41800000000E+01 0.  1.
        -11    1    3    3    0    0 -0.52570239754E+02 -0.11803639283E+03 -0.35271637092E+03  0.37563953261E+03  0.00000000000E+00 0. -1.
         11    1    3    3    0    0  0.10613729777E+02 -0.13871788682E+02 -0.47860761605E+01  0.18110336994E+02  0.00000000000E+00 0.  1.
</event>
<event>
 8    1  0.5900800E-006  0.1454409E+03  0.7561462E-02  0.1206190E+00
         -1   -1    0    0    0  501 -0.00000000000E+00  0.00000000000E+00  0.53068589031E+02  0.53068589031E+02  0.00000000000E+00 0.  1.
          1   -1    0    0  501    0  0.00000000000E+00 -0.00000000000E+00 -0.57853491566E+03  0.57853491566E+03  0.00000000000E+00 0. -1.
         23    2    1    2    0    0 -0.12579771475E+03  0.43118324493E+02 -0.18977333215E+03  0.24947837467E+03  0.92419082926E+02 0.  0.
         23    2    1    2    0    0  0.12579771475E+03 -0.43118324493E+02 -0.33569299448E+03  0.38212513002E+03  0.12508226698E+03 0.  0.
          5    1    4    4  502    0  0.79669442079E+02  0.17004069684E+02 -0.26898306420E+03  0.28107956101E+03  0.41800000000E+01 0. -1.
         -5    1    4    4    0  502  0.46128272668E+02 -0.60122394177E+02 -0.66709930274E+02  0.10104556902E+03  0.41800000000E+01 0. -1.
        -11    1    3    3    0    0 -0.11512431162E+03  0.42521325400E+02 -0.20002081249E+03  0.23466997181E+03  0.00000000000E+00 0. -1.
         11    1    3    3    0    0 -0.10673403127E+02  0.59699909320E+00  0.10247480333E+02  0.14808402865E+02  0.00000000000E+00 0.  1.
</event>
<event>
 8    1  0.5900800E-006  0.1008649E+03  0.7561462E-02  0.1278488E+00
         -2   -1    0    0    0  501 -0.00000000000E+00  0.00000000000E+00  0.58790560874E+02  0.58790560874E+02  0.00000000000E+00 0.  1.
          2   -1    0    0  501    0  0.00000000000E+00 -0.00000000000E+00 -0.25229643493E+03  0.25229643493E+03  0.00000000000E+00 0. -1.
         23    2    1    2    0    0  0.44089789572E+01 -0.50947467462E+02 -0.60428218291E+02  0.12142594046E+03  0.92073915491E+02 0.  0.
         23    2    1    2    0    0 -0.44089789572E+01  0.50947467462E+02 -0.13307765576E+03  0.18966105535E+03  0.12508624991E+03 0.  0.
          5    1    4    4  502    0 -0.20952839137E+02  0.86555366386E+02 -0.11683573451E+03  0.14696569048E+03  0.41800000000E+01 0. -1.
         -5    1    4    4    0  502  0.16543860180E+02 -0.35607898924E+02 -0.16241921250E+02  0.42695364869E+02  0.41800000000E+01 0. -1.
        -11    1    3    3    0    0  0.84378412197E+01 -0.61354141681E+02 -0.78620631828E+02  0.10008362311E+03  0.00000000000E+00 0. -1.
         11    1    3    3    0    0 -0.40288622625E+01  0.10406674219E+02  0.18192413537E+02  0.21342317347E+02  0.00000000000E+00 0.  1.
</event>
<event>
 8    1  0.5900800E-006  0.1208616E+03  0.7561462E-02  0.1241682E+00
         -2   -1    0    0    0  501 -0.00000000000E+00  0.00000000000E+00  0.72075684288E+02  0.72075684288E+02  0.00000000000E+00 0.  1.
          2   -1    0    0  501    0  0.00000000000E+00 -0.00000000000E+00 -0.25060210934E+03  0.25060210934E+03  0.00000000000E+00 0. -1.
         23    2    1    2    0    0 -0.55150610392E+02 -0.51406602850E+02 -0.62757918073E+02  0.13630638710E+03  0.94639559593E+02 0.  0.
         23    2    1    2    0    0  0.55150610392E+02  0.51406602850E+02 -0.11576850698E+03  0.18637140653E+03  0.12509086825E+03 0.  0.
          5    1    4    4  502    0  0.42156390184E+02 -0.35514703910E+02 -0.27510451703E+02  0.61747492095E+02  0.41800000000E+01 0.  1.
         -5    1    4    4    0  502  0.12994220208E+02  0.86921306760E+02 -0.88258055276E+02  0.12462391443E+03  0.41800000000E+01 0.  1.
        -11    1    3    3    0    0 -0.37641263616E+02 -0.65789649463E+02 -0.78184447435E+02  0.10889421713E+03  0.00000000000E+00 0. -1.
         11    1    3    3    0    0 -0.17509346776E+02  0.14383046613E+02  0.15426529362E+02  0.27412169972E+02  0.00000000000E+00 0.  1.
</event>
<event>
 8    1  0.5900800E-006  0.1588958E+03  0.7561462E-02  0.1189949E+00
          2   -1    0    0  501    0  0.00000000000E+00  0.00000000000E+00  0.13612570070E+04  0.13612570070E+04  0.00000000000E+00 0.  1.
         -2   -1    0    0    0  501 -0.00000000000E+00 -0.00000000000E+00 -0.20121017233E+02  0.20121017233E+02  0.00000000000E+00 0. -1.
         23    2    1    2    0    0 -0.11006683764E+03 -0.48557960424E+02  0.50246274470E+03  0.52493622779E+03  0.92825907824E+02 0.  0.
         23    2    1    2    0    0  0.11006683764E+03  0.48557960424E+02  0.83867324506E+03  0.85644179644E+03  0.12508858638E+03 0.  0.
          5    1    4    4  502    0 -0.18836234603E+02  0.30086848840E+02  0.96224225822E+02  0.10264792371E+03  0.41800000000E+01 0. -1.
         -5    1    4    4    0  502  0.12890307224E+03  0.18471111584E+02  0.74244901924E+03  0.75379387273E+03  0.41800000000E+01 0. -1.
        -11    1    3    3    0    0 -0.72598600121E+02  0.18525398771E+02  0.26114757258E+03  0.27168327480E+03  0.00000000000E+00 0.  1.
         11    1    3    3    0    0 -0.37468237515E+02 -0.67083359195E+02  0.24131517212E+03  0.25325295299E+03  0.00000000000E+00 0. -1.
</event>
<event>
 8    1  0.5900800E-006  0.1341647E+03  0.7561462E-02  0.1221404E+00
         -4   -1    0    0    0  501 -0.00000000000E+00  0.00000000000E+00  0.17323662330E+03  0.17323662330E+03  0.00000000000E+00 0.  1.
          4   -1    0    0  501    0  0.00000000000E+00 -0.00000000000E+00 -0.14289532005E+03  0.14289532005E+03  0.00000000000E+00 0. -1.
         23    2    1    2    0    0  0.68677252755E+02 -0.89684785753E+02  0.18518350647E+02  0.14717918276E+03  0.92514089120E+02 0.  0.
         23    2    1    2    0    0 -0.68677252755E+02  0.89684785753E+02  0.11822952602E+02  0.16895276059E+03  0.12508128261E+03 0.  0.
          5    1    4    4  502    0 -0.94251849036E+02  0.88513942935E+02  0.35160776626E+02  0.13405924718E+03  0.41800000000E+01 0.  1.
         -5    1    4    4    0  502  0.25574596281E+02  0.11708428177E+01 -0.23337824024E+02  0.34893513409E+02  0.41800000000E+01 0.  1.
        -11    1    3    3    0    0  0.61455305365E+02 -0.82053147364E+02 -0.22399095936E+02  0.10493423201E+03  0.00000000000E+00 0. -1.
         11    1    3    3    0    0  0.72219473900E+01 -0.76316383891E+01  0.40917446583E+02  0.42244950745E+02  0.00000000000E+00 0.  1.
</event>
<event>
 8    1  0.5900800E-006  0.9025686E+02  0.7561462E-02  0.1302231E+00
         -2   -1    0    0    0  501 -0.00000000000E+00  0.00000000000E+00  0.25842808573E+02  0.25842808573E+02  0.00000000000E+00 0.  1.
          2   -1    0    0  501    0  0.00000000000E+00 -0.00000000000E+00 -0.44277708268E+03  0.44277708268E+03  0.00000000000E+00 0. -1.
         23    2    1    2    0    0  0.44352698715E+01  0.62892113717E+01 -0.18662493013E+03  0.20642661905E+03  0.87885486342E+02 0.  0.
         23    2    1    2    0    0 -0.44352698715E+01 -0.62892113717E+01 -0.23030934398E+03  0.26219327220E+03  0.12507474671E+03 0.  0.
          5    1    4    4  502    0 -0.29542729356E+02 -0.57441375009E+02 -0.15242582747E+03  0.16560008967E+03  0.41800000000E+01 0. -1.
         -5    1    4    4    0  502  0.25107459484E+02  0.51152163638E+02 -0.77883516510E+02  0.96593182526E+02  0.41800000000E+01 0. -1.
        -11    1    3    3    0    0  0.16008109819E+02  0.29020444336E+02 -0.17549390888E+03  0.17859607449E+03  0.00000000000E+00 0. -1.
         11    1    3    3    0    0 -0.11572839947E+02 -0.22731232964E+02 -0.11131021245E+02  0.27830544559E+02  0.00000000000E+00 0.  1.
</event>
<event>
 8    1  0.5900800E-006  0.1088827E+03  0.7561462E-02  0.1262653E+00
          3   -1    0    0  501    0  0.00000000000E+00  0.00000000000E+00  0.11280801566E+03  0.11280801566E+03  0.00000000000E+00 0. -1.
         -3   -1    0    0    0  501 -0.00000000000E+00 -0.00000000000E+00 -0.18311842730E+03  0.18311842730E+03  0.00000000000E+00 0.  1.
         23    2    1    2    0    0  0.49761558028E+02  0.36035744554E+02 -0.10770734443E+03  0.15163465158E+03  0.87277763347E+02 0.  0.
         23    2    1    2    0    0 -0.49761558028E+02 -0.36035744554E+02  0.37396932784E+02  0.14429179137E+03  0.12508718133E+03 0.  0.
          5    1    4    4  502    0 -0.83045759168E+02 -0.39785503479E+02 -0.22700090732E+01  0.92206885556E+02  0.41800000000E+01 0. -1.
         -5    1    4    4    0  502  0.33284201140E+02  0.37497589244E+01  0.39666941857E+02  0.52084905815E+02  0.41800000000E+01 0. -1.
        -11    1    3    3    0    0 -0.14417741623E+02 -0.54480282956E+01 -0.59076731578E+02  0.61054176760E+02  0.00000000000E+00 0.  1.
         11    1    3    3    0    0  0.64179299651E+02  0.41483772850E+02 -0.48630612847E+02  0.90580474824E+02  0.00000000000E+00 0. -1.
</event>
<event>
 8    1  0.5900800E-006  0.1156594E+03  0.7561462E-02  0.1250434E+00
         -2   -1    0    0    0  501 -0.00000000000E+00  0.00000000000E+00  0.49251821289E+02  0.49251821289E+02  0.00000000000E+00 0.  1.
          2   -1    0    0  501    0  0.00000000000E+00 -0.00000000000E+00 -0.46406801560E+03  0.46406801560E+03  0.00000000000E+00 0. -1.
         23    2    1    2    0    0 -0.87462555664E+02 -0.57823996026E+02 -0.22478055528E+03  0.26280966835E+03  0.86886768790E+02 0.  0.
         23    2    1    2    0    0  0.87462555664E+02  0.57823996026E+02 -0.19003563904E+03  0.25051016854E+03  0.12509391382E+03 0.  0.
          5    1    4    4  502    0  0.50845182325E+02 -0.63211049829E+01 -0.16434483977E+03  0.17219723486E+03  0.41800000000E+01 0. -1.
         -5    1    4    4    0  502  0.36617373339E+02  0.64145101009E+02 -0.25690799262E+02  0.78312933673E+02  0.41800000000E+01 0. -1.
        -11    1    3    3    0    0 -0.73280815715E+02 -0.54611400599E+02 -0.22989545447E+03  0.24739523644E+03  0.00000000000E+00 0. -1.
         11    1    3    3    0    0 -0.14181739948E+02 -0.32125954268E+01  0.51148991975E+01  0.15414431911E+02  0.00000000000E+00 0.  1.
</event>
<event>
 8    1  0.5900800E-006  0.1276476E+03  0.7561462E-02  0.1230989E+00
         -2   -1    0    0    0  501 -0.00000000000E+00  0.00000000000E+00  0.59064408715E+02  0.59064408715E+02  0.00000000000E+00 0.  1.
          2   -1    0    0  501    0  0.00000000000E+00 -0.00000000000E+00 -0.32746704375E+03  0.32746704375E+03  0.00000000000E+00 0. -1.
         23    2    1    2    0    0 -0.22434193748E+02  0.70947141955E+02 -0.60470134909E+02  0.13270535839E+03  0.91745762460E+02 0.  0.
         23    2    1    2    0    0  0.22434193748E+02 -0.70947141955E+02 -0.20793250012E+03  0.25382609407E+03  0.12511982826E+03 0.  0.
          5    1    4    4  502    0 -0.33198553188E+02 -0.79733447997E+02 -0.14848592367E+03  0.17182871876E+03  0.41800000000E+01 0.  1.
         -5    1    4    4    0  502  0.55632746937E+02  0.87863060417E+01 -0.59446576459E+02  0.81997375313E+02  0.41800000000E+01 0.  1.
        -11    1    3    3    0    0 -0.37388170510E+02 -0.24258840133E+01 -0.16826266390E+01  0.37504552254E+02  0.00000000000E+00 0.  1.
         11    1    3    3    0    0  0.14953976762E+02  0.73373025969E+02 -0.58787508270E+02  0.95200806139E+02  0.00000000000E+00 0. -1.
</event>
<event>
 8    1  0.5900800E-006  0.1140650E+03  0.7561462E-02  0.1253222E+00
         -1   -1    0    0    0  501 -0.00000000000E+00  0.00000000000E+00  0.17746802084E+02  0.17746802084E+02  0.00000000000E+00 0.  1.
          1   -1    0    0  501    0  0.00000000000E+00 -0.00000000000E+00 -0.89912509820E+03  0.89912509820E+03  0.00000000000E+00 0. -1.
         23    2    1    2    0    0 -0.58927899540E+01 -0.45735892804E+02 -0.21438232136E+03  0.23668253038E+03  0.89063705341E+02 0.  0.
         23    2    1    2    0    0  0.58927899540E+01  0.45735892804E+02 -0.66699597475E+03  0.68018936991E+03  0.12508977469E+03 0.  0.
          5    1    4    4  502    0 -0.56452103890E+02  0.17338411706E+02 -0.40714769258E+03  0.41142943079E+03  0.41800000000E+01 0.  1.
         -5    1    4    4    0  502  0.62344893844E+02  0.28397481098E+02 -0.25984828218E+03  0.26875993911E+03  0.41800000000E+01 0.  1.
        -11    1    3    3    0    0  0.40911567826E+02 -0.12126834400E+02 -0.90589630538E+02  0.10013639526E+03  0.00000000000E+00 0.  1.
         11    1    3    3    0    0 -0.46804357780E+02 -0.33609058405E+02 -0.12379269082E+03  0.13654613512E+03  0.00000000000E+00 0. -1.
</event>
<event>
 8    1  0.5900800E-006  0.2470197E+03  0.7561462E-02  0.1115203E+00
         -2   -1    0    0    0  501 -0.00000000000E+00  0.00000000000E+00  0.41351455517E+02  0.41351455517E+02  0.00000000000E+00 0.  1.
          2   -1    0    0  501    0  0.00000000000E+00 -0.00000000000E+00 -0.18984767909E+04  0.18984767909E+04  0.00000000000E+00 0. -1.
         23    2    1    2    0    0 -0.10563860452E+02  0.23656247323E+03 -0.55064452225E+03  0.60618177569E+03  0.90407723176E+02 0.  0.
         23    2    1    2    0    0  0.10563860452E+02 -0.23656247323E+03 -0.13064808131E+04  0.13336464707E+04  0.12508954755E+03 0.  0.
          5    1    4    4  502    0  0.15423359927E+02 -0.93917675524E+01 -0.35182922983E+03  0.35231713653E+03  0.41800000000E+01 0. -1.
         -5    1    4    4    0  502 -0.48594994745E+01 -0.22717070567E+03 -0.95465158328E+03  0.98132933417E+03  0.41800000000E+01 0. -1.
        -11    1    3    3    0    0 -0.39132412869E+02  0.79567183444E+02 -0.25868343778E+03  0.27345822972E+03  0.00000000000E+00 0.  1.
         11    1    3    3    0    0  0.28568552417E+02  0.15699528978E+03 -0.29196108447E+03  0.33272354597E+03  0.00000000000E+00 0. -1.
</event>
<event>
 7    1  0.5900800E-006  0.1216878E+03  0.7561462E-02  0.1240338E+00
          1   -1    0    0  501    0  0.00000000000E+00  0.00000000000E+00  0.78745919929E+03  0.78745919929E+03  0.00000000000E+00 0. -1.
         -1   -1    0    0    0  501 -0.00000000000E+00 -0.00000000000E+00 -0.28825528489E+02  0.28825528489E+02  0.00000000000E+00 0.  1.
         23    2    1    2    0    0 -0.24449800944E+02 -0.88770550027E+01  0.16008325175E+03  0.19528167714E+03  0.10877357705E+03 0.  0.
          5    1    1    2  502    0  0.58245356202E+02 -0.49211780249E+02  0.46719233213E+03  0.47339250991E+03  0.41800000000E+01 0. -1.
         -5    1    1    2    0  502 -0.33795555258E+02  0.58088835252E+02  0.13135808691E+03  0.14761054073E+03  0.41800000000E+01 0.  1.
        -11    1    3    3    0    0  0.37238131798E+02  0.71922086391E+00  0.10712679460E+03  0.11341669128E+03  0.00000000000E+00 0.  1.
         11    1    3    3    0    0 -0.61687932742E+02 -0.95962758666E+01  0.52956457149E+02  0.81864985863E+02  0.00000000000E+00 0. -1.
</event>
<event>
 8    1  0.5900800E-006  0.1943238E+03  0.7561462E-02  0.1154618E+00
         -4   -1    0    0    0  501 -0.00000000000E+00  0.00000000000E+00  0.68388523752E+03  0.68388523752E+03  0.00000000000E+00 0.  1.
          4   -1    0    0  501    0  0.00000000000E+00 -0.00000000000E+00 -0.62266142176E+02  0.62266142176E+02  0.00000000000E+00 0. -1.
         23    2    1    2    0    0 -0.88142607018E+02 -0.13823659726E+03  0.40881526897E+03  0.44982224399E+03  0.91277878216E+02 0.  0.
         23    2    1    2    0    0  0.88142607018E+02  0.13823659726E+03  0.21280382637E+03  0.29632913570E+03  0.12508801763E+03 0.  0.
          5    1    4    4  502    0  0.47353064508E+02 -0.10923917191E+02  0.73161705489E+02  0.87930382890E+02  0.41800000000E+01 0. -1.
         -5    1    4    4    0  502  0.40789542510E+02  0.14916051445E+03  0.13964212088E+03  0.20839875281E+03  0.41800000000E+01 0. -1.
        -11    1    3    3    0    0 -0.10214930758E+03 -0.94150630264E+02  0.33562420334E+03  0.36323880311E+03  0.00000000000E+00 0. -1.
         11    1    3    3    0    0  0.14006700559E+02 -0.44085966997E+02  0.73191065629E+02  0.86583440879E+02  0.00000000000E+00 0.  1.
</event>
<event>
 8    1  0.5900800E-006  0.1071819E+03  0.7561462E-02  0.1265879E+00
         -1   -1    0    0    0  501 -0.00000000000E+00  0.00000000000E+00  0.22043918260E+02  0.22043918260E+02  0.00000000000E+00 0.  1.
          1   -1    0    0  501    0  0.00000000000E+00 -0.00000000000E+00 -0.61155707981E+03  0.61155707981E+03  0.00000000000E+00 0. -1.
         23    2    1    2    0    0 -0.35508061257E+02  0.11484383355E+02 -0.26487914067E+03  0.28370504843E+03  0.94524504036E+02 0.  0.
         23    2    1    2    0    0  0.35508061257E+02 -0.11484383355E+02 -0.32463402088E+03  0.34989594965E+03  0.12508882680E+03 0.  0.
          5    1    4    4  502    0  0.70668887914E+02  0.10861485672E+02 -0.27864412165E+03  0.28770137734E+03  0.41800000000E+01 0. -1.
         -5    1    4    4    0  502 -0.35160826657E+02 -0.22345869027E+02 -0.45989899225E+02  0.62194572308E+02  0.41800000000E+01 0. -1.
        -11    1    3    3    0    0 -0.58817343772E+02  0.34439353943E+02 -0.16214761313E+03  0.17589029954E+03  0.00000000000E+00 0.  1.
         11    1    3    3    0    0  0.23309282515E+02 -0.22954970588E+02 -0.10273152754E+03  0.10781474888E+03  0.00000000000E+00 0. -1.
</event>
<event>
 8    1  0.5900800E-006  0.1421424E+03  0.7561462E-02  0.1210475E+00
         -1   -1    0    0    0  501 -0.00000000000E+00  0.00000000000E+00  0.13121402577E+02  0.13121402577E+02  0.00000000000E+00 0.  1.
          1   -1    0    0  501    0  0.00000000000E+00 -0.00000000000E+00 -0.19921223305E+04  0.19921223305E+04  0.00000000000E+00 0. -1.
         23    2    1    2    0    0 -0.10681892300E+03 -0.12086716264E+02 -0.54235463308E+03  0.56029262138E+03  0.90680221282E+02 0.  0.
         23    2    1    2    0    0  0.10681892300E+03  0.12086716264E+02 -0.14366462948E+04  0.14449511117E+04  0.11124193311E+03 0.  0.
          5    1    4    4  502    0 -0.23380858869E+01  0.32646922650E+02 -0.60639603341E+03  0.60729310052E+03  0.41800000000E+01 0. -1.
         -5    1    4    4    0  502  0.10915700888E+03 -0.20560206386E+02 -0.83025026140E+03  0.83765801114E+03  0.41800000000E+01 0.  1.
        -11    1    3    3    0    0 -0.11719282213E+03 -0.28599851558E+02 -0.48196439889E+03  0.49683175308E+03  0.00000000000E+00 0.  1.
         11    1    3    3    0    0  0.10373899135E+02  0.16513135293E+02 -0.60390234185E+02  0.63460868300E+02  0.00000000000E+00 0. -1.
</event>
<event>
 8    1  0.5900800E-006  0.1559750E+03  0.7561462E-02  0.1193317E+00
          1   -1    0    0  501    0  0.00000000000E+00  0.00000000000E+00  0.28320758103E+03  0.28320758103E+03  0.00000000000E+00 0. -1.
         -1   -1    0    0    0  501 -0.00000000000E+00 -0.00000000000E+00 -0.12993164237E+03  0.12993164237E+03  0.00000000000E+00 0.  1.
         23    2    1    2    0    0  0.46978009143E+02 -0.13692186077E+03  0.45943537413E+01  0.17086269647E+03  0.90655521933E+02 0.  0.
         23    2    1    2    0    0 -0.46978009143E+02  0.13692186077E+03  0.14868158492E+03  0.24227652693E+03  0.12504868054E+03 0.  0.
          5    1    4    4  502    0 -0.51498337252E+02  0.59542642518E+02  0.14442013861E+03  0.16453587406E+03  0.41800000000E+01 0. -1.
         -5    1    4    4    0  502  0.45203281089E+01  0.77379218255E+02  0.42614463167E+01  0.77740652870E+02  0.41800000000E+01 0. -1.
        -11    1    3    3    0    0  0.36508279038E+02 -0.13991729344E+03 -0.18061560021E+02  0.14572550701E+03  0.00000000000E+00 0.  1.
         11    1    3    3    0    0  0.10469730104E+02  0.29954326708E+01  0.22655913763E+02  0.25137189456E+02  0.00000000000E+00 0. -1.
</event>
<event>
 8    1  0.5900800E-006  0.9459813E+02  0.7561462E-02  0.1292084E+00
         -1   -1    0    0    0  501 -0.00000000000E+00  0.00000000000E+00  0.30639312206E+02  0.30639312206E+02  0.00000000000E+00 0.  1.
          1   -1    0    0  501    0  0.00000000000E+00 -0.00000000000E+00 -0.40137275717E+03  0.40137275717E+03  0.00000000000E+00 0. -1.
         23    2    1    2    0    0 -0.10887789946E+02  0.37210708984E+01 -0.16447147772E+03  0.19051164658E+03  0.95453811652E+02 0.  0.
         23    2    1    2    0    0  0.10887789946E+02 -0.37210708984E+01 -0.20626196724E+03  0.24150042280E+03  0.12508423060E+03 0.  0.
          5    1    4    4  502    0  0.33145645280E+02  0.52485294170E+02 -0.79083137935E+02  0.10062283543E+03  0.41800000000E+01 0. -1.
         -5    1    4    4    0  502 -0.22257855334E+02 -0.56206365068E+02 -0.12717882931E+03  0.14087758737E+03  0.41800000000E+01 0. -1.
        -11    1    3    3    0    0  0.17479936332E+02  0.25292611315E+02 -0.10529260863E+02  0.32498149110E+02  0.00000000000E+00 0.  1.
         11    1    3    3    0    0 -0.28367726278E+02 -0.21571540416E+02 -0.15394221686E+03  0.15801349747E+03  0.00000000000E+00 0. -1.
</event>
<event>
 8    1  0.5900800E-006  0.9510561E+02  0.7561462E-02  0.1290938E+00
         -1   -1    0    0    0  501 -0.00000000000E+00  0.00000000000E+00  0.25761022593E+02  0.25761022593E+02  0.00000000000E+00 0.  1.
          1   -1    0    0  501    0  0.00000000000E+00 -0.00000000000E+00 -0.48963818115E+03  0.48963818115E+03  0.00000000000E+00 0. -1.
         23    2    1    2    0    0  0.74860057736E+01 -0.30327524306E+02 -0.85109525840E+02  0.11528898675E+03  0.71218818180E+02 0.  0.
         23    2    1    2    0    0 -0.74860057736E+01  0.30327524306E+02 -0.37876763272E+03  0.40011021700E+03  0.12508983628E+03 0.  0.
          5    1    4    4  502    0  0.33078468482E+02  0.60591211365E+02 -0.28713944298E+03  0.29535065953E+03  0.41800000000E+01 0. -1.
         -5    1    4    4    0  502 -0.40564474255E+02 -0.30263687059E+02 -0.91628189739E+02  0.10475955747E+03  0.41800000000E+01 0. -1.
        -11    1    3    3    0    0 -0.10975771567E+02 -0.45230887403E+02 -0.77445384084E+02  0.90355344351E+02  0.00000000000E+00 0. -1.
         11    1    3    3    0    0  0.18461777341E+02  0.14903363097E+02 -0.76641417561E+01  0.24933642395E+02  0.00000000000E+00 0.  1.
</event>
<event>
 8    1  0.5900800E-006  0.9589036E+02  0.7561462E-02  0.1289183E+00
          2   -1    0    0  501    0  0.00000000000E+00  0.00000000000E+00  0.10404664447E+03  0.10404664447E+03  0.00000000000E+00 0. -1.
         -2   -1    0    0    0  501 -0.00000000000E+00 -0.00000000000E+00 -0.12413249255E+03  0.12413249255E+03  0.00000000000E+00 0.  1.
         23    2    1    2    0    0  0.98122197504E+01 -0.10249675909E+02 -0.39755460488E+02  0.10076044323E+03  0.91492266174E+02 0.  0.
         23    2    1    2    0    0 -0.98122197504E+01  0.10249675909E+02  0.19669612400E+02  0.12741869379E+03  0.12508914566E+03 0.  0.
          5    1    4    4  502    0 -0.50362058338E+01  0.57922041016E+02 -0.23445287979E+02  0.62828975266E+02  0.41800000000E+01 0.  1.
         -5    1    4    4    0  502 -0.47760139166E+01 -0.47672365106E+02  0.43114900379E+02  0.64589718520E+02  0.41800000000E+01 0.  1.
        -11    1    3    3    0    0  0.43518315230E+02 -0.23166898326E+02 -0.32272276544E+01  0.49406112343E+02  0.00000000000E+00 0. -1.
         11    1    3    3    0    0 -0.33706095479E+02  0.12917222417E+02 -0.36528232833E+02  0.51354330892E+02  0.00000000000E+00 0.  1.
</event>
<event>
 8    1  0.5900800E-006  0.1992770E+03  0.7561462E-02  0.1150350E+00
         -1   -1    0    0    0  501 -0.00000000000E+00  0.00000000000E+00  0.28761114016E+03  0.28761114016E+03  0.00000000000E+00 0.  1.
          1   -1    0    0  501    0  0.00000000000E+00 -0.00000000000E+00 -0.17944120339E+03  0.17944120339E+03  0.00000000000E+00 0. -1.
         23    2    1    2    0    0  0.50548755761E+02 -0.18193143262E+03  0.11855372127E+03  0.24031646260E+03  0.89681628469E+02 0.  0.
         23    2    1    2    0    0 -0.50548755761E+02  0.18193143262E+03 -0.10383784503E+02  0.22673588095E+03  0.12508842412E+03 0.  0.
          5    1    4    4  502    0 -0.64321943312E+01  0.45426770945E+02  0.52672158769E+02  0.69977091621E+02  0.41800000000E+01 0. -1.
         -5    1    4    4    0  502 -0.44116561430E+02  0.13650466167E+03 -0.63055943272E+02  0.15675878933E+03  0.41800000000E+01 0. -1.
        -11    1    3    3    0    0  0.73982305950E+02 -0.16241164345E+03  0.10344388079E+03  0.20628029473E+03  0.00000000000E+00 0. -1.
         11    1    3    3    0    0 -0.23433550189E+02 -0.19519789168E+02  0.15109840481E+02  0.34036167866E+02  0.00000000000E+00 0.  1.
</event>
<event>
 8    1  0.5900800E-006  0.1481028E+03  0.7561462E-02  0.1202824E+00
         -1   -1    0    0    0  501 -0.00000000000E+00  0.00000000000E+00  0.95398839352E+02  0.95398839352E+02  0.00000000000E+00 0.  1.
          1   -1    0    0  501    0  0.00000000000E+00 -0.00000000000E+00 -0.26308797438E+03  0.26308797438E+03  0.00000000000E+00 0. -1.
         23    2    1    2    0    0 -0.85773990213E+02  0.66068500203E+02 -0.33117471583E+02  0.14522906872E+03  0.90953237219E+02 0.  0.
         23    2    1    2    0    0  0.85773990213E+02 -0.66068500203E+02 -0.13457166344E+03  0.21325774501E+03  0.12508840510E+03 0.  0.
          5    1    4    4  502    0  0.11176079013E+03 -0.63301108530E+02 -0.13553474524E+03  0.18677431333E+03  0.41800000000E+01 0.  1.
         -5    1    4    4    0  502 -0.25986799922E+02 -0.27673916732E+01  0.96308180194E+00  0.26483431678E+02  0.41800000000E+01 0.  1.
        -11    1    3    3    0    0 -0.10396228950E+03  0.44691330895E+02 -0.29384677905E+02  0.11691420783E+03  0.00000000000E+00 0.  1.
         11    1    3    3    0    0  0.18188299291E+02  0.21377169307E+02 -0.37327936777E+01  0.28314860892E+02  0.00000000000E+00 0. -1.
</event>
<event>
 8    1  0.5900800E-006  0.9959305E+02  0.7561462E-02  0.1281154E+00
          2   -1    0    0  501    0  0.00000000000E+00  0.00000000000E+00  0.55343756113E+03  0.55343756113E+03  0.00000000000E+00 0. -1.
         -2   -1    0    0    0  501 -0.00000000000E+00 -0.00000000000E+00 -0.30059841906E+02  0.30059841906E+02  0.00000000000E+00 0.  1.
         23    2    1    2    0    0 -0.26984540213E+01  0.48576376109E+02  0.11330342445E+03  0.15201902797E+03  0.88911039270E+02 0.  0.
         23    2    1    2    0    0  0.26984540213E+01 -0.48576376109E+02  0.41007429478E+03  0.43147837507E+03  0.12508283233E+03 0.  0.
          5    1    4    4  502    0  0.59729772450E+02 -0.22978669319E+02  0.27793604829E+03  0.28523952093E+03  0.41800000000E+01 0. -1.
         -5    1    4    4    0  502 -0.57031318429E+02 -0.25597706790E+02  0.13213824649E+03  0.14623885414E+03  0.41800000000E+01 0. -1.
        -11    1    3    3    0    0 -0.12069138018E+02 -0.83703825337E+01 -0.86879537585E+01  0.17064815755E+02  0.00000000000E+00 0.  1.
         11    1    3    3    0    0  0.93706839963E+01  0.56946758642E+02  0.12199137821E+03  0.13495421222E+03  0.00000000000E+00 0. -1.
</event>
<event>
 8    1  0.5900800E-006  0.1045801E+03  0.7561462E-02  0.1270949E+00
          2   -1    0    0  501    0  0.00000000000E+00  0.00000000000E+00  0.22019267564E+04  0.22019267564E+04  0.00000000000E+00 0. -1.
         -2   -1    0    0    0  501 -0.00000000000E+00 -0.00000000000E+00 -0.12320476550E+02  0.12320476550E+02  0.00000000000E+00 0.  1.
         23    2    1    2    0    0  0.12488645456E+02  0.57235816294E+02  0.29398104791E+03  0.31369342747E+03  0.92448931735E+02 0.  0.
         23    2    1    2    0    0 -0.12488645456E+02 -0.57235816294E+02  0.18956252319E+04  0.19005538055E+04  0.12360357034E+03 0.  0.
          5    1    4    4  502    0 -0.47929733055E+02 -0.11614485239E+02  0.14891807053E+04  0.14900029533E+04  0.41800000000E+01 0. -1.
         -5    1    4    4    0  502  0.35441087599E+02 -0.45621331055E+02  0.40644452667E+03  0.41055085214E+03  0.41800000000E+01 0.  1.
        -11    1    3    3    0    0  0.10720403459E+01 -0.21831683408E+02  0.25535247664E+02  0.33612803278E+02  0.00000000000E+00 0. -1.
         11    1    3    3    0    0  0.11416605110E+02  0.79067499702E+02  0.26844580024E+03  0.28008062420E+03  0.00000000000E+00 0.  1.
</event>
<event>
 8    1  0.5900800E-006  0.1518007E+03  0.7561462E-02  0.1198278E+00
          2   -1    0    0  501    0  0.00000000000E+00  0.00000000000E+00  0.21797489016E+03  0.21797489016E+03  0.00000000000E+00 0. -1.
         -2   -1    0    0    0  501 -0.00000000000E+00 -0.00000000000E+00 -0.10872584061E+03  0.10872584061E+03  0.00000000000E+00 0.  1.
         23    2    1    2    0    0 -0.48655863086E+02 -0.97001700617E+02  0.50761136032E+02  0.15107375610E+03  0.92031863581E+02 0.  0.
         23    2    1    2    0    0  0.48655863086E+02  0.97001700617E+02  0.58487913524E+02  0.17562697468E+03  0.12508906935E+03 0.  0.
          5    1    4    4  502    0  0.20667580445E+02 -0.27004750078E+02 -0.29175153831E+01  0.34385893972E+02  0.41800000000E+01 0.  1.
         -5    1    4    4    0  502  0.27988282642E+02  0.12400645070E+03  0.61405428907E+02  0.14124108070E+03  0.41800000000E+01 0.  1.
        -11    1    3    3    0    0 -0.43494169280E+02  0.14886458819E+01  0.12414260354E+02  0.45255637086E+02  0.00000000000E+00 0. -1.
         11    1    3    3    0    0 -0.51616938064E+01 -0.98490346499E+02  0.38346875678E+02  0.10581811901E+03  0.00000000000E+00 0.  1.
</event>
<event>
 8    1  0.5900800E-006  0.5343263E+02  0.7561462E-02  0.1427660E+00
         -2   -1    0    0    0  501 -0.00000000000E+00  0.00000000000E+00  0.12116581871E+03  0.12116581871E+03  0.00000000000E+00 0.  1.
          2   -1    0    0  501    0  0.00000000000E+00 -0.00000000000E+00 -0.10605059807E+03  0.10605059807E+03  0.00000000000E+00 0. -1.
         23    2    1    2    0    0  0.26970106314E+02 -0.47006516558E+01  0.27426505333E+02  0.98594699092E+02  0.90659906980E+02 0.  0.
         23    2    1    2    0    0 -0.26970106314E+02  0.47006516558E+01 -0.12311284693E+02  0.12862171768E+03  0.12506996349E+03 0.  0.
          5    1    4    4  502    0 -0.11741030386E+02 -0.11935102250E+02 -0.67069242328E+02  0.69253549561E+02  0.41800000000E+01 0.  1.
         -5    1    4    4    0  502 -0.15229075928E+02  0.16635753906E+02  0.54757957636E+02  0.59368168122E+02  0.41800000000E+01 0.  1.
        -11    1    3    3    0    0  0.44957499944E+02  0.65842172826E+01  0.50028703178E+02  0.67582541089E+02  0.00000000000E+00 0.  1.
         11    1    3    3    0    0 -0.17987393629E+02 -0.11284868938E+02 -0.22602197845E+02  0.31012158002E+02  0.00000000000E+00 0. -1.
</event>
<event>
 8    1  0.5900800E-006  0.8092724E+02  0.7561462E-02  0.1326440E+00
          2   -1    0    0  501    0  0.00000000000E+00  0.00000000000E+00  0.86528181886E+03  0.86528181886E+03  0.00000000000E+00 0. -1.
         -2   -1    0    0    0  501 -0.00000000000E+00 -0.00000000000E+00 -0.27487865933E+02  0.27487865933E+02  0.00000000000E+00 0.  1.
         23    2    1    2    0    0 -0.22177159639E+02 -0.22707098365E+02  0.83093920741E+02  0.12711455125E+03  0.90807878234E+02 0.  0.
         23    2    1    2    0    0  0.22177159639E+02  0.22707098365E+02  0.75470003218E+03  0.76565513354E+03  0.12509279042E+03 0.  0.
          5    1    4    4  502    0 -0.38064417186E+02  0.73760258367E+01  0.90565151045E+02  0.98604384267E+02  0.41800000000E+01 0. -1.
         -5    1    4    4    0  502  0.60241576825E+02  0.15331072529E+02  0.66413488114E+03  0.66705074928E+03  0.41800000000E+01 0. -1.
        -11    1    3    3    0    0  0.16920666687E+02 -0.50746917227E+01  0.82344588870E+02  0.84218126157E+02  0.00000000000E+00 0. -1.
         11    1    3    3    0    0 -0.39097826327E+02 -0.17632406643E+02  0.74933187102E+00  0.42896425093E+02  0.00000000000E+00 0.  1.
</event>
<event>
 8    1  0.5900800E-006  0.1238172E+03  0.7561462E-02  0.1236929E+00
         -2   -1    0    0    0  501 -0.00000000000E+00  0.00000000000E+00  0.34715904786E+02  0.34715904786E+02  0.00000000000E+00 0.  1.
          2   -1    0    0  501    0  0.00000000000E+00 -0.00000000000E+00 -0.52309424852E+03  0.52309424852E+03  0.00000000000E+00 0. -1.
         23    2    1    2    0    0 -0.75784397155E+02  0.23145023925E+02 -0.14401053127E+03  0.18295658106E+03  0.80343702009E+02 0.  0.
         23    2    1    2    0    0  0.75784397155E+02 -0.23145023925E+02 -0.34436781247E+03  0.37485357225E+03  0.12508814244E+03 0.  0.
          5    1    4    4  502    0  0.80625748509E+02  0.34010729486E+02 -0.16999006738E+03  0.19123633664E+03  0.41800000000E+01 0.  1.
         -5    1    4    4    0  502 -0.48413513540E+01 -0.57155753411E+02 -0.17437774509E+03  0.18361723561E+03  0.41800000000E+01 0.  1.
        -11    1    3    3    0    0 -0.84188245875E+02  0.32224431091E+02 -0.14479191548E+03  0.17056017557E+03  0.00000000000E+00 0. -1.
         11    1    3    3    0    0  0.84038487204E+01 -0.90794071652E+01  0.78138421058E+00  0.12396405490E+02  0.00000000000E+00 0.  1.
</event>
<event>
 8    1  0.5900800E-006  0.1444326E+03  0.7561462E-02  0.1207486E+00
         -2   -1    0    0    0  501 -0.00000000000E+00  0.00000000000E+00  0.76359844724E+02  0.76359844724E+02  0.00000000000E+00 0. -1.
          2   -1    0    0  501    0  0.00000000000E+00 -0.00000000000E+00 -0.40909566444E+03  0.40909566444E+03  0.00000000000E+00 0.  1.
         23    2    1    2    0    0 -0.12411903916E+02  0.13364813929E+03 -0.10473841061E+03  0.19280086260E+03  0.90477386502E+02 0.  0.
         23    2    1    2    0    0  0.12411903916E+02 -0.13364813929E+03 -0.22799740911E+03  0.29265464657E+03  0.12509213846E+03 0.  0.
          5    1    4    4  502    0  0.28334820994E+02 -0.10434854079E+03 -0.23464703755E+03  0.25839540375E+03  0.41800000000E+01 0.  1.
         -5    1    4    4    0  502 -0.15922917078E+02 -0.29299598492E+02  0.66496284433E+01  0.34259242818E+02  0.41800000000E+01 0.  1.
        -11    1    3    3    0    0 -0.36561501576E+02  0.90439647562E+02 -0.28011203075E+02  0.10149236792E+03  0.00000000000E+00 0.  1.
         11    1    3    3    0    0  0.24149597660E+02  0.43208491723E+02 -0.76727207531E+02  0.91308494675E+02  0.00000000000E+00 0. -1.
</event>
<event>
 8    1  0.5900800E-006  0.1000600E+03  0.7561462E-02  0.1280170E+00
          1   -1    0    0  501    0  0.00000000000E+00  0.00000000000E+00  0.12464428020E+04  0.12464428020E+04  0.00000000000E+00 0. -1.
         -1   -1    0    0    0  501 -0.00000000000E+00 -0.00000000000E+00 -0.10975428782E+02  0.10975428782E+02  0.00000000000E+00 0.  1.
         23    2    1    2    0    0 -0.38525687942E+02  0.41046427217E+02  0.25189555553E+03  0.26462552755E+03  0.58363182871E+02 0.  0.
         23    2    1    2    0    0  0.38525687942E+02 -0.41046427217E+02  0.98357181774E+03  0.99279270328E+03  0.12269797566E+03 0.  0.
          5    1    4    4  502    0  0.55481821010E+02 -0.73003644878E+02  0.82511795051E+03  0.83020772658E+03  0.41800000000E+01 0. -1.
         -5    1    4    4    0  502 -0.16956133068E+02  0.31957217661E+02  0.15845386723E+03  0.16258497670E+03  0.41800000000E+01 0.  1.
        -11    1    3    3    0    0 -0.17966769938E+01  0.34571238244E+02  0.18336159334E+03  0.18660083728E+03  0.00000000000E+00 0. -1.
         11    1    3    3    0    0 -0.36729010948E+02  0.64751889732E+01  0.68533962188E+02  0.78024690263E+02  0.00000000000E+00 0.  1.
</event>
<event>
 8    1  0.5900800E-006  0.9536931E+02  0.7561462E-02  0.1290346E+00
         -1   -1    0    0    0  501 -0.00000000000E+00  0.00000000000E+00  0.10201123822E+03  0.10201123822E+03  0.00000000000E+00 0.  1.
          1   -1    0    0  501    0  0.00000000000E+00 -0.00000000000E+00 -0.13870398808E+03  0.13870398808E+03  0.00000000000E+00 0. -1.
         23    2    1    2    0    0  0.27475701502E+02  0.38035078011E+02 -0.35258346107E+01  0.10326611991E+03  0.91923221658E+02 0.  0.
         23    2    1    2    0    0 -0.27475701502E+02 -0.38035078011E+02 -0.33166915249E+02  0.13744910639E+03  0.12486244931E+03 0.  0.
          5    1    4    4  502    0 -0.49910350762E+02 -0.69644621534E+02  0.73023015425E+00  0.85787073956E+02  0.41800000000E+01 0. -1.
         -5    1    4    4    0  502  0.22434649259E+02  0.31609543523E+02 -0.33897145403E+02  0.51662032438E+02  0.41800000000E+01 0. -1.
        -11    1    3    3    0    0  0.38175944703E+02  0.15846378670E+02  0.37239811778E+02  0.55635546660E+02  0.00000000000E+00 0.  1.
         11    1    3    3    0    0 -0.10700243201E+02  0.22188699341E+02 -0.40765646388E+02  0.47630573254E+02  0.00000000000E+00 0. -1.
</event>
<event>
 7    1  0.5900800E-006  0.1544595E+03  0.7561462E-02  0.1195098E+00
          3   -1    0    0  501    0  0.00000000000E+00  0.00000000000E+00  0.12048110841E+03  0.12048110841E+03  0.00000000000E+00 0. -1.
         -3   -1    0    0    0  501 -0.00000000000E+00 -0.00000000000E+00 -0.28308115368E+03  0.28308115368E+03  0.00000000000E+00 0.  1.
         23    2    1    2    0    0  0.45124262660E+02 -0.11710690308E+03 -0.13140515742E+03  0.20360954724E+03  0.91865698163E+02 0.  0.
          5    1    1    2  502    0  0.44461904290E+02  0.59835319753E+02  0.26105228773E+02  0.79095396783E+02  0.41800000000E+01 0. -1.
         -5    1    1    2    0  502 -0.89586166950E+02  0.57271583326E+02 -0.57300116630E+02  0.12085731807E+03  0.41800000000E+01 0.  1.
        -11    1    3    3    0    0  0.45429053527E+02 -0.90742552676E+02 -0.14255272491E+03  0.17498368252E+03  0.00000000000E+00 0.  1.
         11    1    3    3    0    0 -0.30479086671E+00 -0.26364350403E+02  0.11147567487E+02  0.28625864712E+02  0.00000000000E+00 0. -1.
</event>
<event>
 8    1  0.5900800E-006  0.8073845E+02  0.7561462E-02  0.1326969E+00
         -1   -1    0    0    0  501 -0.00000000000E+00  0.00000000000E+00  0.21315063054E+03  0.21315063054E+03  0.00000000000E+00 0.  1.
          1   -1    0    0  501    0  0.00000000000E+00 -0.00000000000E+00 -0.71046104066E+02  0.71046104066E+02  0.00000000000E+00 0. -1.
         23    2    1    2    0    0  0.11086504728E+02  0.58365285370E+02  0.58838770490E+02  0.12261221159E+03  0.89679074447E+02 0.  0.
         23    2    1    2    0    0 -0.11086504728E+02 -0.58365285370E+02  0.83265755980E+02  0.16158452302E+03  0.12508778852E+03 0.  0.
          5    1    4    4  502    0 -0.19457586526E+02 -0.65815510214E+02 -0.82848202571E+01  0.69255972341E+02  0.41800000000E+01 0. -1.
         -5    1    4    4    0  502  0.83710817980E+01  0.74502248437E+01  0.91550576237E+02  0.92328550677E+02  0.41800000000E+01 0. -1.
        -11    1    3    3    0    0 -0.22345562434E+02  0.21942765636E+02  0.65619118707E+02  0.72709544518E+02  0.00000000000E+00 0.  1.
         11    1    3    3    0    0  0.33432067161E+02  0.36422519735E+02 -0.67803482164E+01  0.49902667067E+02  0.00000000000E+00 0. -1.
</event>
<event>
 6    1  0.5900800E-006  0.1453544E+03  0.7561462E-02  0.1206301E+00
          2   -1    0    0  501    0  0.00000000000E+00  0.00000000000E+00  0.17467339514E+04  0.17467339514E+04  0.00000000000E+00 0.  1.
         -2   -1    0    0    0  501 -0.00000000000E+00 -0.00000000000E+00 -0.33472485003E+02  0.33472485003E+02  0.00000000000E+00 0. -1.
          5    1    1    2  502    0  0.62233085485E+02 -0.64877981733E+02  0.14778723957E+03  0.17303366731E+03  0.41800000000E+01 0. -1.
         -5    1    1    2    0  502  0.48812244427E+02  0.74591041902E+02  0.14200683960E+04  0.14228696990E+04  0.41800000000E+01 0.  1.
        -11    1    1    2    0    0 -0.96547049438E+02 -0.82960394227E+01  0.11357002308E+03  0.14929268960E+03  0.00000000000E+00 0. -1.
         11    1    1    2    0    0 -0.14498280475E+02 -0.14170207465E+01  0.31835807749E+02  0.35010380455E+02  0.00000000000E+00 0.  1.
</event>
<event>
 8    1  0.5900800E-006  0.1722646E+03  0.7561462E-02  0.1175507E+00
         -2   -1    0    0    0  501 -0.00000000000E+00  0.00000000000E+00  0.77802758481E+02  0.77802758481E+02  0.00000000000E+00 0.  1.
          2   -1    0    0  501    0  0.00000000000E+00 -0.00000000000E+00 -0.40447533105E+03  0.40447533105E+03  0.00000000000E+00 0. -1.
         23    2    1    2    0    0  0.11016832001E+03 -0.84844306948E+02 -0.12135018727E+03  0.20453628984E+03  0.88168082406E+02 0.  0.
         23    2    1    2    0    0 -0.11016832001E+03  0.84844306948E+02 -0.20532238530E+03  0.27774179969E+03  0.12509040825E+03 0.  0.
          5    1    4    4  502    0 -0.61407959151E+02 -0.19594478145E+02 -0.11236538442E+03  0.12960838336E+03  0.41800000000E+01 0. -1.
         -5    1    4    4    0  502 -0.48760360857E+02  0.10443878509E+03 -0.92957000881E+02  0.14813341634E+03  0.41800000000E+01 0. -1.
        -11    1    3    3    0    0 -0.27559394431E+01  0.14156486493E+02 -0.12086670832E+02  0.18817250698E+02  0.00000000000E+00 0. -1.
         11    1    3    3    0    0  0.11292425945E+03 -0.99000793441E+02 -0.10926351644E+03  0.18571903914E+03  0.00000000000E+00 0.  1.
</event>
<event>
 7    1  0.5900800E-006  0.1474975E+03  0.7561462E-02  0.1203582E+00
          2   -1    0    0  501    0  0.00000000000E+00  0.00000000000E+00  0.52654372868E+02  0.52654372868E+02  0.00000000000E+00 0. -1.
         -2   -1    0    0    0  501 -0.00000000000E+00 -0.00000000000E+00 -0.59605027367E+03  0.59605027367E+03  0.00000000000E+00 0.  1.
         23    2    1    2    0    0  0.46562645442E+02  0.10473165430E+03 -0.34774004938E+03  0.38122148842E+03  0.10615970012E+03 0.  0.
          5    1    1    2  502    0 -0.83686726781E+02 -0.23903522845E+02 -0.13144285499E+03  0.15770080270E+03  0.41800000000E+01 0. -1.
         -5    1    1    2    0  502  0.37124081339E+02 -0.80828131457E+02 -0.64212996432E+02  0.10978235542E+03  0.41800000000E+01 0.  1.
        -11    1    3    3    0    0  0.19228874858E+02  0.78896642282E+02 -0.32961529160E+03  0.33947116262E+03  0.00000000000E+00 0.  1.
         11    1    3    3    0    0  0.27333770584E+02  0.25835012019E+02 -0.18124757780E+02  0.41750325806E+02  0.00000000000E+00 0. -1.
</event>
<event>
 8    1  0.5900800E-006  0.1649704E+03  0.7561462E-02  0.1183197E+00
         -2   -1    0    0    0  501 -0.00000000000E+00  0.00000000000E+00  0.10114689063E+03  0.10114689063E+03  0.00000000000E+00 0.  1.
          2   -1    0    0  501    0  0.00000000000E+00 -0.00000000000E+00 -0.43347382648E+03  0.43347382648E+03  0.00000000000E+00 0. -1.
         23    2    1    2    0    0  0.12268346339E+03 -0.67223206297E+02 -0.18216856421E+02  0.16872079747E+03  0.92545459017E+02 0.  0.
         23    2    1    2    0    0 -0.12268346339E+03  0.67223206297E+02 -0.31411007943E+03  0.36589991965E+03  0.12508963802E+03 0.  0.
          5    1    4    4  502    0 -0.42738776254E+02 -0.21232865950E+02 -0.18063050799E+03  0.18687506631E+03  0.41800000000E+01 0. -1.
         -5    1    4    4    0  502 -0.79944687139E+02  0.88456072247E+02 -0.13347957145E+03  0.17902485334E+03  0.41800000000E+01 0. -1.
        -11    1    3    3    0    0  0.20813449063E+02  0.19819730596E+02  0.12357095085E+02  0.31284487877E+02  0.00000000000E+00 0.  1.
         11    1    3    3    0    0  0.10187001433E+03 -0.87042936893E+02 -0.30573951506E+02  0.13743630959E+03  0.00000000000E+00 0. -1.
</event>
<event>
 8    1  0.5900800E-006  0.9317737E+02  0.7561462E-02  0.1295335E+00
          1   -1    0    0  501    0  0.00000000000E+00  0.00000000000E+00  0.51548905840E+03  0.51548905840E+03  0.00000000000E+00 0.  1.
         -1   -1    0    0    0  501 -0.00000000000E+00 -0.00000000000E+00 -0.25159128175E+02  0.25159128175E+02  0.00000000000E+00 0. -1.
         23    2    1    2    0    0 -0.22107609784E+02 -0.25861050274E+02  0.14760056645E+03  0.17422185307E+03  0.86080116973E+02 0.  0.
         23    2    1    2    0    0  0.22107609784E+02  0.25861050274E+02  0.34272936377E+03  0.36642633350E+03  0.12508917125E+03 0.  0.
          5    1    4    4  502    0 -0.49026014854E+02  0.20499818004E+01  0.87929301218E+02  0.10078088594E+03  0.41800000000E+01 0.  1.
         -5    1    4    4    0  502  0.71133624638E+02  0.23811068474E+02  0.25480006255E+03  0.26564544756E+03  0.41800000000E+01 0.  1.
        -11    1    3    3    0    0 -0.38873919329E+02 -0.13511240640E+02  0.14777359127E+03  0.15339742339E+03  0.00000000000E+00 0.  1.
         11    1    3    3    0    0  0.16766309544E+02 -0.12349809634E+02 -0.17302481473E+00  0.20824429676E+02  0.00000000000E+00 0. -1.
</event>
<event>
 7    1  0.5900800E-006  0.8171586E+02  0.7561462E-02  0.1324251E+00
         -2   -1    0    0    0  501 -0.00000000000E+00  0.00000000000E+00  0.34470294884E+02  0.34470294884E+02  0.00000000000E+00 0.  1.
          2   -1    0    0  501    0  0.00000000000E+00 -0.00000000000E+00 -0.39722819500E+03  0.39722819500E+03  0.00000000000E+00 0. -1.
         23    2    1    2    0    0  0.16712590273E+02  0.44499804046E+02 -0.12384537502E+03  0.15454046849E+03  0.79281373932E+02 0.  0.
          5    1    1    2  502    0 -0.18297401748E+02  0.65516371333E+01 -0.22244336916E+03  0.22332989890E+03  0.41800000000E+01 0. -1.
         -5    1    1    2    0  502  0.15848114746E+01 -0.51051441180E+02 -0.16469155933E+02  0.53828122492E+02  0.41800000000E+01 0.  1.
        -11    1    3    3    0    0  0.46914834573E+02  0.40232344621E+02 -0.78945213185E+02  0.10025961271E+03  0.00000000000E+00 0. -1.
         11    1    3    3    0    0 -0.30202244299E+02  0.42674594248E+01 -0.44900161834E+02  0.54280855772E+02  0.00000000000E+00 0.  1.
</event>
<event>
 8    1  0.5900800E-006  0.1115563E+03  0.7561462E-02  0.1257715E+00
          2   -1    0    0  501    0  0.00000000000E+00  0.00000000000E+00  0.44819540800E+03  0.44819540800E+03  0.00000000000E+00 0. -1.
         -2   -1    0    0    0  501 -0.00000000000E+00 -0.00000000000E+00 -0.39533314400E+02  0.39533314400E+02  0.00000000000E+00 0.  1.
         23    2    1    2    0    0  0.16962309811E+02 -0.38052762639E+02  0.67554673325E+02  0.12201910074E+03  0.92678446032E+02 0.  0.
         23    2    1    2    0    0 -0.16962309811E+02  0.38052762639E+02  0.34110742028E+03  0.36570962166E+03  0.12511403802E+03 0.  0.
          5    1    4    4  502    0  0.13050366895E+02  0.77920609878E+02  0.24309603434E+03  0.25564641173E+03  0.41800000000E+01 0. -1.
         -5    1    4    4    0  502 -0.30012676705E+02 -0.39867847240E+02  0.98011385936E+02  0.11006320993E+03  0.41800000000E+01 0. -1.
        -11    1    3    3    0    0 -0.20994013457E+02 -0.49917018533E+02  0.61248679790E+02  0.81754866010E+02  0.00000000000E+00 0. -1.
         11    1    3    3    0    0  0.37956323268E+02  0.11864255894E+02  0.63059935343E+01  0.40264234730E+02  0.00000000000E+00 0.  1.
</event>
<event>
 7    1  0.5900800E-006  0.9194390E+02  0.7561462E-02  0.1298211E+00
         -1   -1    0    0    0  501 -0.00000000000E+00  0.00000000000E+00  0.16493165729E+03  0.16493165729E+03  0.00000000000E+00 0.  1.
          1   -1    0    0  501    0  0.00000000000E+00 -0.00000000000E+00 -0.10757759139E+03  0.10757759139E+03  0.00000000000E+00 0. -1.
         23    2    1    2    0    0  0.10345137412E+02  0.34353275174E+02  0.83157231518E+02  0.12887606684E+03  0.91688309332E+02 0.  0.
          5    1    1    2  502    0 -0.40343885564E+02 -0.37215533727E+02 -0.70574338517E+02  0.89503266477E+02  0.41800000000E+01 0. -1.
         -5    1    1    2    0  502  0.29998748151E+02  0.28622585536E+01  0.44771172897E+02  0.54129915364E+02  0.41800000000E+01 0.  1.
        -11    1    3    3    0    0  0.49128876604E+02  0.33795197093E+02  0.48588119086E+02  0.76919225030E+02  0.00000000000E+00 0.  1.
         11    1    3    3    0    0 -0.38783739192E+02  0.55807808032E+00  0.34569112432E+02  0.51956841813E+02  0.00000000000E+00 0. -1.
</event>
<event>
 8    1  0.5900800E-006  0.1173800E+03  0.7561462E-02  0.1247483E+00
          1   -1    0    0  501    0  0.00000000000E+00  0.00000000000E+00  0.25849293673E+03  0.25849293673E+03  0.00000000000E+00 0. -1.
         -1   -1    0    0    0  501 -0.00000000000E+00 -0.00000000000E+00 -0.72919582370E+02  0.72919582370E+02  0.00000000000E+00 0.  1.
         23    2    1    2    0    0 -0.24237808694E+02 -0.80695895301E+02  0.94818405152E+02  0.15539297936E+03  0.89761624261E+02 0.  0.
         23    2    1    2    0    0  0.24237808694E+02  0.80695895301E+02  0.90754949210E+02  0.17601953974E+03  0.12508844342E+03 0.  0.
          5    1    4    4  502    0  0.29919942033E+02 -0.28072668699E+02  0.31970449202E+02  0.52181027983E+02  0.41800000000E+01 0.  1.
         -5    1    4    4    0  502 -0.56821333392E+01  0.10876856400E+03  0.58784500009E+02  0.12383851176E+03  0.41800000000E+01 0.  1.
        -11    1    3    3    0    0 -0.10208534060E+02 -0.45555514016E+02  0.10609387379E+03  0.11591129833E+03  0.00000000000E+00 0. -1.
         11    1    3    3    0    0 -0.14029274634E+02 -0.35140381285E+02 -0.11275468641E+02  0.39481681026E+02  0.00000000000E+00 0.  1.
</event>
<event>
 8    1  0.5900800E-006  0.9031884E+02  0.7561462E-02  0.1302081E+00
          2   -1    0    0  501    0  0.00000000000E+00  0.00000000000E+00  0.20622316997E+03  0.20622316997E+03  0.00000000000E+00 0.  1.
         -2   -1    0    0    0  501 -0.00000000000E+00 -0.00000000000E+00 -0.57818788929E+02  0.57818788929E+02  0.00000000000E+00 0. -1.
         23    2    1    2    0    0 -0.10627943158E+02  0.11278029691E+02  0.58156898580E+02  0.10902843164E+03  0.90911093515E+02 0.  0.
         23    2    1    2    0    0  0.10627943158E+02 -0.11278029691E+02  0.90247482463E+02  0.15501352726E+03  0.12507772949E+03 0.  0.
          5    1    4    4  502    0  0.65712092983E+02  0.10274619599E+02  0.50744291158E+02  0.83762177964E+02  0.41800000000E+01 0. -1.
         -5    1    4    4    0  502 -0.55084149825E+02 -0.21552649289E+02  0.39503191305E+02  0.71251349296E+02  0.41800000000E+01 0. -1.
        -11    1    3    3    0    0 -0.32066701271E+02  0.74374645602E+01 -0.12407966429E+02  0.35178783953E+02  0.00000000000E+00 0. -1.
         11    1    3    3    0    0  0.21438758113E+02  0.38405651305E+01  0.70564865008E+02  0.73849647687E+02  0.00000000000E+00 0.  1.
</event>
<event>
 7    1  0.5900800E-006  0.1701040E+03  0.7561462E-02  0.1177739E+00
         -2   -1    0    0    0  501 -0.00000000000E+00  0.00000000000E+00  0.97559083785E+02  0.97559083785E+02  0.00000000000E+00 0.  1.
          2   -1    0    0  501    0  0.00000000000E+00 -0.00000000000E+00 -0.38220726309E+03  0.38220726309E+03  0.00000000000E+00 0. -1.
         23    2    1    2    0    0 -0.82440719069E+02  0.10665337877E+03 -0.19306940748E+03  0.26665904959E+03  0.12513927145E+03 0.  0.
          5    1    3    3  502    0 -0.96201793362E+02  0.23115581475E+02 -0.10915793631E+03  0.14738399713E+03  0.41800000000E+01 0. -1.
         -5    1    3    3    0  502  0.13761074293E+02  0.83537797295E+02 -0.83911471175E+02  0.11927505245E+03  0.41800000000E+01 0. -1.
        -11    1    1    2    0    0  0.48405906149E+02 -0.11195155478E+03 -0.11799215732E+03  0.16970100635E+03  0.00000000000E+00 0. -1.
         11    1    1    2    0    0  0.34034812919E+02  0.52981760134E+01  0.26413385494E+02  0.43406290936E+02  0.00000000000E+00 0.  1.
</event>
<event>
 8    1  0.5900800E-006  0.7146681E+02  0.7561462E-02  0.1355175E+00
          1   -1    0    0  501    0  0.00000000000E+00  0.00000000000E+00  0.18399621282E+04  0.18399621282E+04  0.00000000000E+00 0. -1.
         -1   -1    0    0    0  501 -0.00000000000E+00 -0.00000000000E+00 -0.26865542646E+02  0.26865542646E+02  0.00000000000E+00 0.  1.
         23    2    1    2    0    0 -0.41906956220E+02 -0.42529172497E+02  0.96284515192E+02  0.14442976108E+03  0.89578594129E+02 0.  0.
         23    2    1    2    0    0  0.41906956220E+02  0.42529172497E+02  0.17168120703E+04  0.17223979097E+04  0.12508377648E+03 0.  0.
          5    1    4    4  502    0 -0.11681578757E+02  0.11487172779E+02  0.13681063284E+04  0.13682108071E+04  0.41800000000E+01 0.  1.
         -5    1    4    4    0  502  0.53588534977E+02  0.31041999718E+02  0.34870574189E+03  0.35418710260E+03  0.41800000000E+01 0.  1.
        -11    1    3    3    0    0 -0.46094899248E+01 -0.19684052953E+02  0.98580068762E+02  0.10063170124E+03  0.00000000000E+00 0. -1.
         11    1    3    3    0    0 -0.37297466295E+02 -0.22845119544E+02 -0.22955535702E+01  0.43798059834E+02  0.00000000000E+00 0.  1.
</event>
<event>
 8    1  0.5900800E-006  0.1140268E+03  0.7561462E-02  0.1253290E+00
          3   -1    0    0  501    0  0.00000000000E+00  0.00000000000E+00  0.24726537771E+03  0.24726537771E+03  0.00000000000E+00 0. -1.
         -3   -1    0    0    0  501 -0.00000000000E+00 -0.00000000000E+00 -0.77174331609E+02  0.77174331609E+02  0.00000000000E+00 0.  1.
         23    2    1    2    0    0  0.10196146861E+02 -0.61667763499E+02  0.71781242912E+01  0.11042347711E+03  0.90746594227E+02 0.  0.
         23    2    1    2    0    0 -0.10196146861E+02  0.61667763499E+02  0.16291292181E+03  0.21401623220E+03  0.12391712185E+03 0.  0.
          5    1    4    4  502    0  0.55079049925E+02  0.16377106782E+02  0.84804752781E+02  0.10252428913E+03  0.41800000000E+01 0. -1.
         -5    1    4    4    0  502 -0.65275196786E+02  0.45290656717E+02  0.78108169025E+02  0.11149194307E+03  0.41800000000E+01 0.  1.
        -11    1    3    3    0    0  0.38249841983E+02 -0.40733388570E+02  0.34805356039E+02  0.65830632422E+02  0.00000000000E+00 0. -1.
         11    1    3    3    0    0 -0.28053695122E+02 -0.20934374929E+02 -0.27627231748E+02  0.44592844692E+02  0.00000000000E+00 0.  1.
</event>
<event>
 8    1  0.5900800E-006  0.1289225E+03  0.7561462E-02  0.1229063E+00
          2   -1    0    0  501    0  0.00000000000E+00  0.00000000000E+00  0.22842030693E+03  0.22842030693E+03  0.00000000000E+00 0. -1.
         -2   -1    0    0    0  501 -0.00000000000E+00 -0.00000000000E+00 -0.84052010094E+02  0.84052010094E+02  0.00000000000E+00 0.  1.
         23    2    1    2    0    0  0.85882520500E+02  0.65345360687E+01  0.75679782796E+02  0.14578117765E+03  0.90034519731E+02 0.  0.
         23    2    1    2    0    0 -0.85882520500E+02 -0.65345360687E+01  0.68688514038E+02  0.16669113937E+03  0.12509722817E+03 0.  0.
          5    1    4    4  502    0 -0.10907756141E+03 -0.11852995309E+02  0.18988081560E+02  0.11142902468E+03  0.41800000000E+01 0.  1.
         -5    1    4    4    0  502  0.23195040909E+02  0.53184592405E+01  0.49700432478E+02  0.55262114689E+02  0.41800000000E+01 0.  1.
        -11    1    3    3    0    0  0.68007581381E+02 -0.36572817049E+02  0.54618836271E+02  0.94582341627E+02  0.00000000000E+00 0. -1.
         11    1    3    3    0    0  0.17874939119E+02  0.43107353117E+02  0.21060946525E+02  0.51198836020E+02  0.00000000000E+00 0.  1.
</event>
<event>
 8    1  0.5900800E-006  0.1063302E+03  0.7561462E-02  0.1267521E+00
         -1   -1    0    0    0  501 -0.00000000000E+00  0.00000000000E+00  0.61200854075E+02  0.61200854075E+02  0.00000000000E+00 0.  1.
          1   -1    0    0  501    0  0.00000000000E+00 -0.00000000000E+00 -0.27442426735E+03  0.27442426735E+03  0.00000000000E+00 0. -1.
         23    2    1    2    0    0  0.56360711606E+02  0.31144182380E+02 -0.57130702343E+02  0.12548677535E+03  0.91304565763E+02 0.  0.
         23    2    1    2    0    0 -0.56360711606E+02 -0.31144182380E+02 -0.15609271093E+03  0.21013834607E+03  0.12508677058E+03 0.  0.
          5    1    4    4  502    0  0.16895028567E+02  0.67141783507E+01 -0.11754708334E+03  0.11901811367E+03  0.41800000000E+01 0.  1.
         -5    1    4    4    0  502 -0.73255740173E+02 -0.37858360730E+02 -0.38545627592E+02  0.91120232397E+02  0.41800000000E+01 0.  1.
        -11    1    3    3    0    0 -0.18046286670E+02 -0.15357983711E+02 -0.15918869520E+02  0.28547268399E+02  0.00000000000E+00 0. -1.
         11    1    3    3    0    0  0.74406998277E+02  0.46502166091E+02 -0.41211832823E+02  0.96939506953E+02  0.00000000000E+00 0.  1.
</event>
<event>
 8    1  0.5900800E-006  0.1094047E+03  0.7561462E-02  0.1261676E+00
         -1   -1    0    0    0  501 -0.00000000000E+00  0.00000000000E+00  0.25733556971E+02  0.25733556971E+02  0.00000000000E+00 0.  1.
          1   -1    0    0  501    0  0.00000000000E+00 -0.00000000000E+00 -0.56280604407E+03  0.56280604407E+03  0.00000000000E+00 0. -1.
         23    2    1    2    0    0 -0.42608601144E+02  0.38683572794E+02 -0.18147793238E+03  0.21133906547E+03  0.91749926192E+02 0.  0.
         23    2    1    2    0    0  0.42608601144E+02 -0.38683572794E+02 -0.35559455472E+03  0.37720053557E+03  0.11189658170E+03 0.  0.
          5    1    4    4  502    0 -0.24143875168E+02 -0.44947458131E+02 -0.22000666821E+03  0.22588405689E+03  0.41800000000E+01 0. -1.
         -5    1    4    4    0  502  0.66752476312E+02  0.62638853368E+01 -0.13558788651E+03  0.15131647868E+03  0.41800000000E+01 0.  1.
        -11    1    3    3    0    0 -0.22154374913E+02 -0.25087820408E+02 -0.10230046842E+03  0.10763642924E+03  0.00000000000E+00 0.  1.
         11    1    3    3    0    0 -0.20454226231E+02  0.63771393202E+02 -0.79177463967E+02  0.10370263623E+03  0.00000000000E+00 0. -1.
</event>
<event>
 7    1  0.5900800E-006  0.1085462E+03  0.7561462E-02  0.1263286E+00
         -1   -1    0    0    0  501 -0.00000000000E+00  0.00000000000E+00  0.19022682815E+02  0.19022682815E+02  0.00000000000E+00 0.  1.
          1   -1    0    0  501    0  0.00000000000E+00 -0.00000000000E+00 -0.67918608634E+03  0.67918608634E+03  0.00000000000E+00 0. -1.
         23    2    1    2    0    0  0.80130286477E+01 -0.15539110120E+00 -0.22880166040E+03  0.24745022579E+03  0.93899849141E+02 0.  0.
          5    1    1    2  502    0  0.12428013622E+02  0.59958914885E+02 -0.28056713877E+03  0.28720187805E+03  0.41800000000E+01 0. -1.
         -5    1    1    2    0  502 -0.20441042269E+02 -0.59803523784E+02 -0.15079460435E+03  0.16355666531E+03  0.41800000000E+01 0.  1.
        -11    1    3    3    0    0  0.62352463197E+01  0.45883313674E+02 -0.90196239515E+02  0.10138795980E+03  0.00000000000E+00 0. -1.
         11    1    3    3    0    0  0.17777823280E+01 -0.46038704775E+02 -0.13860542089E+03  0.14606226599E+03  0.00000000000E+00 0.  1.
</event>
<event>
 8    1  0.5900800E-006  0.1680696E+03  0.7561462E-02  0.1179876E+00
          4   -1    0    0  501    0  0.00000000000E+00  0.00000000000E+00  0.41699934291E+03  0.41699934291E+03  0.00000000000E+00 0. -1.
         -4   -1    0    0    0  501 -0.00000000000E+00 -0.00000000000E+00 -0.71369260759E+02  0.71369260759E+02  0.00000000000E+00 0.  1.
         23    2    1    2    0    0  0.55524913752E+01  0.12933286396E+03  0.11304631340E+03  0.19425832426E+03  0.90548372208E+02 0.  0.
         23    2    1    2    0    0 -0.55524913752E+01 -0.12933286396E+03  0.23258376875E+03  0.29411027941E+03  0.12509127510E+03 0.  0.
          5    1    4    4  502    0  0.56467517281E+02 -0.85009873935E+02  0.15175218129E+03  0.18292472796E+03  0.41800000000E+01 0.  1.
         -5    1    4    4    0  502 -0.62020008656E+02 -0.44322990027E+02  0.80831587466E+02  0.11118555145E+03  0.41800000000E+01 0.  1.
        -11    1    3    3    0    0 -0.37517656479E+02  0.96376298422E+02  0.68183349846E+02  0.12387467312E+03  0.00000000000E+00 0.  1.
         11    1    3    3    0    0  0.43070147854E+02  0.32956565540E+02  0.44862963550E+02  0.70383651133E+02  0.00000000000E+00 0. -1.
</event>
<event>
 8    1  0.5900800E-006  0.6601936E+02  0.7561462E-02  0.1374178E+00
         -2   -1    0    0    0  501 -0.00000000000E+00  0.00000000000E+00  0.83647655124E+02  0.83647655124E+02  0.00000000000E+00 0.  1.
          2   -1    0    0  501    0  0.00000000000E+00 -0.00000000000E+00 -0.15672159468E+03  0.15672159468E+03  0.00000000000E+00 0. -1.
         23    2    1    2    0    0 -0.18123920467E+02 -0.19163059480E+02 -0.13488684883E+01  0.93782812966E+02  0.89987205868E+02 0.  0.
         23    2    1    2    0    0  0.18123920467E+02  0.19163059480E+02 -0.71725071063E+02  0.14658643683E+03  0.12508956113E+03 0.  0.
          5    1    4    4  502    0  0.34453307077E+02  0.18929715930E+02 -0.10340298859E+03  0.11070237108E+03  0.41800000000E+01 0. -1.
         -5    1    4    4    0  502 -0.16329386610E+02  0.23334355080E+00  0.31677917526E+02  0.35884065754E+02  0.41800000000E+01 0. -1.
        -11    1    3    3    0    0  0.13124137499E+02 -0.37283920614E+02  0.26997384075E+02  0.47866402291E+02  0.00000000000E+00 0.  1.
         11    1    3    3    0    0 -0.31248057966E+02  0.18120861133E+02 -0.28346252564E+02  0.45916410675E+02  0.00000000000E+00 0. -1.
</event>
<event>
 8    1  0.5900800E-006  0.1077134E+03  0.7561462E-02  0.1264864E+00
         -2   -1    0    0    0  501 -0.00000000000E+00  0.00000000000E+00  0.26970551860E+02  0.26970551860E+02  0.00000000000E+00 0.  1.
          2   -1    0    0  501    0  0.00000000000E+00 -0.00000000000E+00 -0.51018113864E+03  0.51018113864E+03  0.00000000000E+00 0. -1.
         23    2    1    2    0    0 -0.18141152441E+02 -0.10050573003E+02 -0.11950529964E+03  0.15197850518E+03  0.91574199246E+02 0.  0.
         23    2    1    2    0    0  0.18141152441E+02  0.10050573003E+02 -0.36370528714E+03  0.38517318531E+03  0.12508689524E+03 0.  0.
          5    1    4    4  502    0 -0.44862694174E+02  0.31369916597E+02 -0.11110839695E+03  0.12393256742E+03  0.41800000000E+01 0. -1.
         -5    1    4    4    0  502  0.63003846615E+02 -0.21319343593E+02 -0.25259689020E+03  0.26124061789E+03  0.41800000000E+01 0. -1.
        -11    1    3    3    0    0  0.34403890672E+02  0.12630878493E+02 -0.47874448886E+02  0.60292036298E+02  0.00000000000E+00 0. -1.
         11    1    3    3    0    0 -0.52545043113E+02 -0.22681451496E+02 -0.71630850751E+02  0.91686468887E+02  0.00000000000E+00 0.  1.
</event>
<event>
 8    1  0.5900800E-006  0.8732130E+02  0.7561462E-02  0.1309471E+00
         -1   -1    0    0    0  501 -0.00000000000E+00  0.00000000000E+00  0.21369132427E+02  0.21369132427E+02  0.00000000000E+00 0.  1.
          1   -1    0    0  501    0  0.00000000000E+00 -0.00000000000E+00 -0.50029233212E+03  0.50029233212E+03  0.00000000000E+00 0. -1.
         23    2    1    2    0    0  0.81322194917E+01 -0.77589444894E+01 -0.18390541689E+03  0.20597063143E+03  0.92067173490E+02 0.  0.
         23    2    1    2    0    0 -0.81322194917E+01  0.77589444894E+01 -0.29501778280E+03  0.31569083312E+03  0.11179837089E+03 0.  0.
          5    1    4    4  502    0  0.26528328064E+02  0.50434816784E+02 -0.14396252295E+03  0.15488738925E+03  0.41800000000E+01 0. -1.
         -5    1    4    4    0  502 -0.34660547555E+02 -0.42675872294E+02 -0.15105525986E+03  0.16080344388E+03  0.41800000000E+01 0.  1.
        -11    1    3    3    0    0 -0.21691276053E+02 -0.20583146105E+02 -0.14047078821E+02  0.33037823533E+02  0.00000000000E+00 0.  1.
         11    1    3    3    0    0  0.29823495545E+02  0.12824201615E+02 -0.16985833807E+03  0.17293280789E+03  0.00000000000E+00 0. -1.
</event>
<event>
 8    1  0.5900800E-006  0.1057891E+03  0.7561462E-02  0.1268573E+00
          1   -1    0    0  501    0  0.00000000000E+00  0.00000000000E+00  0.10941618593E+04  0.10941618593E+04  0.00000000000E+00 0. -1.
         -1   -1    0    0    0  501 -0.00000000000E+00 -0.00000000000E+00 -0.12625087953E+02  0.12625087953E+02  0.00000000000E+00 0.  1.
         23    2    1    2    0    0 -0.63259795453E+01  0.21212858693E+01  0.27832063713E+03  0.29386130954E+03  0.94061545398E+02 0.  0.
         23    2    1    2    0    0  0.63259795453E+01 -0.21212858693E+01  0.80321613427E+03  0.81292563776E+03  0.12508963311E+03 0.  0.
          5    1    4    4  502    0  0.36263116909E+02 -0.53109379617E+02  0.48163107219E+03  0.48592343219E+03  0.41800000000E+01 0.  1.
         -5    1    4    4    0  502 -0.29937137364E+02  0.50988093748E+02  0.32158506208E+03  0.32700220557E+03  0.41800000000E+01 0.  1.
        -11    1    3    3    0    0 -0.21067850961E+02 -0.38916749222E+02  0.86689576899E+02  0.97331651877E+02  0.00000000000E+00 0.  1.
         11    1    3    3    0    0  0.14741871415E+02  0.41038035092E+02  0.19163106023E+03  0.19652965766E+03  0.00000000000E+00 0. -1.
</event>
<event>
 8    1  0.5900800E-006  0.1078372E+03  0.7561462E-02  0.1264628E+00
          2   -1    0    0  501    0  0.00000000000E+00  0.00000000000E+00  0.11643427138E+04  0.11643427138E+04  0.00000000000E+00 0. -1.
         -2   -1    0    0    0  501 -0.00000000000E+00 -0.00000000000E+00 -0.29015934564E+02  0.29015934564E+02  0.00000000000E+00 0.  1.
         23    2    1    2    0    0 -0.37204659447E+02 -0.71815762246E+02  0.12563587027E+03  0.17273892512E+03  0.86675682630E+02 0.  0.
         23    2    1    2    0    0  0.37204659447E+02  0.71815762246E+02  0.10096909089E+04  0.10206197232E+04  0.12508875829E+03 0.  0.
          5    1    4    4  502    0  0.66226838203E+02  0.34466862186E+02  0.29417037336E+03  0.30352535256E+03  0.41800000000E+01 0. -1.
         -5    1    4    4    0  502 -0.29022178756E+02  0.37348900059E+02  0.71552053557E+03  0.71709437065E+03  0.41800000000E+01 0. -1.
        -11    1    3    3    0    0 -0.40945562624E+02 -0.28382606797E+02  0.12312413844E+02  0.51319655122E+02  0.00000000000E+00 0.  1.
         11    1    3    3    0    0  0.37409031766E+01 -0.43433155449E+02  0.11332345643E+03  0.12141926999E+03  0.00000000000E+00 0. -1.
</event>
<event>
 8    1  0.5900800E-006  0.1257867E+03  0.7561462E-02  0.1233845E+00
         -2   -1    0    0    0  501 -0.00000000000E+00  0.00000000000E+00  0.28524665734E+03  0.28524665734E+03  0.00000000000E+00 0.  1.
          2   -1    0    0  501    0  0.00000000000E+00 -0.00000000000E+00 -0.58411561616E+02  0.58411561616E+02  0.00000000000E+00 0. -1.
         23    2    1    2    0    0  0.58068892823E+02  0.39503141871E+02  0.86804488918E+02  0.14318789755E+03  0.89639612764E+02 0.  0.
         23    2    1    2    0    0 -0.58068892823E+02 -0.39503141871E+02  0.14003060681E+03  0.20047032141E+03  0.12508910581E+03 0.  0.
          5    1    4    4  502    0  0.52741393889E+01  0.40596368273E+02  0.43653849529E+02  0.59991771452E+02  0.41800000000E+01 0.  1.
         -5    1    4    4    0  502 -0.63343032212E+02 -0.80099510144E+02  0.96376757280E+02  0.14047854996E+03  0.41800000000E+01 0.  1.
        -11    1    3    3    0    0  0.66696659599E+02  0.57628356422E+02  0.50191604337E+02  0.10143307652E+03  0.00000000000E+00 0. -1.
         11    1    3    3    0    0 -0.86277667754E+01 -0.18125214551E+02  0.36612884582E+02  0.41754821032E+02  0.00000000000E+00 0.  1.
</event>
<event>
 8    1  0.5900800E-006  0.1407513E+03  0.7561462E-02  0.1212322E+00
         -1   -1    0    0    0  501 -0.00000000000E+00  0.00000000000E+00  0.39574388749E+02  0.39574388749E+02  0.00000000000E+00 0.  1.
          1   -1    0    0  501    0  0.00000000000E+00 -0.00000000000E+00 -0.84136672032E+03  0.84136672032E+03  0.00000000000E+00 0. -1.
         23    2    1    2    0    0  0.11721663080E+03  0.17430728516E+02 -0.18122784002E+03  0.23689764595E+03  0.96090560559E+02 0.  0.
         23    2    1    2    0    0 -0.11721663080E+03 -0.17430728516E+02 -0.62056449155E+03  0.64404346311E+03  0.12509246730E+03 0.  0.
          5    1    4    4  502    0 -0.52901197341E+02  0.23887095684E+02 -0.48398061311E+03  0.48746675403E+03  0.41800000000E+01 0. -1.
         -5    1    4    4    0  502 -0.64315433456E+02 -0.41317824200E+02 -0.13658387844E+03  0.15657670908E+03  0.41800000000E+01 0. -1.
        -11    1    3    3    0    0  0.90117714163E+02 -0.27551944385E+02 -0.14561082746E+03  0.17344401148E+03  0.00000000000E+00 0. -1.
         11    1    3    3    0    0  0.27098916634E+02  0.44982672901E+02 -0.35617012560E+02  0.63453634472E+02  0.00000000000E+00 0.  1.
</event>
<event>
 8    1  0.5900800E-006  0.9881763E+02  0.7561462E-02  0.1282802E+00
         -2   -1    0    0    0  501 -0.00000000000E+00  0.00000000000E+00  0.25745074790E+02  0.25745074790E+02  0.00000000000E+00 0.  1.
          2   -1    0    0  501    0  0.00000000000E+00 -0.00000000000E+00 -0.71195083838E+03  0.71195083838E+03  0.00000000000E+00 0. -1.
         23    2    1    2    0    0  0.47880347077E+02 -0.90250245811E+00 -0.13923402694E+03  0.17456305557E+03  0.93769952345E+02 0.  0.
         23    2    1    2    0    0 -0.47880347077E+02  0.90250245811E+00 -0.54697173665E+03  0.56313285761E+03  0.12508873841E+03 0.  0.
          5    1    4    4  502    0 -0.64719248367E+02 -0.29543500950E+02 -0.16728870179E+03  0.18183613971E+03  0.41800000000E+01 0. -1.
         -5    1    4    4    0  502  0.16838901290E+02  0.30446003408E+02 -0.37968303486E+03  0.38129671790E+03  0.41800000000E+01 0. -1.
        -11    1    3    3    0    0  0.69601173135E+02 -0.65050305598E+00 -0.13576210673E+03  0.15256505524E+03  0.00000000000E+00 0. -1.
         11    1    3    3    0    0 -0.21720826058E+02 -0.25199940214E+00 -0.34719202099E+01  0.21998000325E+02  0.00000000000E+00 0.  1.
</event>
<event>
 8    1  0.5900800E-006  0.9691031E+02  0.7561462E-02  0.1286931E+00
          1   -1    0    0  501    0  0.00000000000E+00  0.00000000000E+00  0.15054185101E+03  0.15054185101E+03  0.00000000000E+00 0. -1.
         -1   -1    0    0    0  501 -0.00000000000E+00 -0.00000000000E+00 -0.96634170687E+02  0.96634170687E+02  0.00000000000E+00 0.  1.
         23    2    1    2    0    0  0.13085103468E+02  0.20552394043E+02 -0.23925910020E+02  0.97848910593E+02  0.91696997226E+02 0.  0.
         23    2    1    2    0    0 -0.13085103468E+02 -0.20552394043E+02  0.77833590348E+02  0.14932711111E+03  0.12508755930E+03 0.  0.
          5    1    4    4  502    0  0.16719122067E+02 -0.66053512308E+02  0.62757501548E+02  0.92728485006E+02  0.41800000000E+01 0.  1.
         -5    1    4    4    0  502 -0.29804225536E+02  0.45501118265E+02  0.15076088799E+02  0.56598626102E+02  0.41800000000E+01 0.  1.
        -11    1    3    3    0    0  0.75801303671E+01 -0.24484004067E+02 -0.41841999636E+02  0.49068093147E+02  0.00000000000E+00 0.  1.
         11    1    3    3    0    0  0.55049731014E+01  0.45036398110E+02  0.17916089616E+02  0.48780817446E+02  0.00000000000E+00 0. -1.
</event>
<event>
 8    1  0.5900800E-006  0.8046216E+02  0.7561462E-02  0.1327745E+00
          2   -1    0    0  501    0  0.00000000000E+00  0.00000000000E+00  0.35236022554E+03  0.35236022554E+03  0.00000000000E+00 0. -1.
         -2   -1    0    0    0  501 -0.00000000000E+00 -0.00000000000E+00 -0.35797334241E+02  0.35797334241E+02  0.00000000000E+00 0.  1.
         23    2    1    2    0    0 -0.28549407826E+02  0.21935166292E+02  0.13960141782E+03  0.17140105955E+03  0.92701386989E+02 0.  0.
         23    2    1    2    0    0  0.28549407826E+02 -0.21935166292E+02  0.17696147348E+03  0.21675650023E+03  0.11988243028E+03 0.  0.
          5    1    4    4  502    0  0.32423900361E+02 -0.34948739096E+02  0.19092796279E+03  0.19683415114E+03  0.41800000000E+01 0. -1.
         -5    1    4    4    0  502 -0.38744925345E+01  0.13013572804E+02 -0.13966489314E+02  0.19922349090E+02  0.41800000000E+01 0.  1.
        -11    1    3    3    0    0 -0.20319722089E+02  0.58215250255E+02  0.77862161960E+02  0.99319800308E+02  0.00000000000E+00 0. -1.
         11    1    3    3    0    0 -0.82296857365E+01 -0.36280083963E+02  0.61739255860E+02  0.72081259241E+02  0.00000000000E+00 0.  1.
</event>
<event>
 8    1  0.5900800E-006  0.8260021E+02  0.7561462E-02  0.1321830E+00
          1   -1    0    0  501    0  0.00000000000E+00  0.00000000000E+00  0.21730598926E+03  0.21730598926E+03  0.00000000000E+00 0. -1.
         -1   -1    0    0    0  501 -0.00000000000E+00 -0.00000000000E+00 -0.51908816664E+02  0.51908816664E+02  0.00000000000E+00 0.  1.
         23    2    1    2    0    0  0.38538440950E+01  0.18694458277E+02  0.24286540699E+02  0.79680042044E+02  0.73448881247E+02 0.  0.
         23    2    1    2    0    0 -0.38538440950E+01 -0.18694458277E+02  0.14111063190E+03  0.18953476388E+03  0.12508749498E+03 0.  0.
          5    1    4    4  502    0  0.47616834796E+02 -0.29136542027E+02  0.23595079677E+02  0.60749495654E+02  0.41800000000E+01 0. -1.
         -5    1    4    4    0  502 -0.51470678891E+02  0.10442083750E+02  0.11751555222E+03  0.12878526823E+03  0.41800000000E+01 0. -1.
        -11    1    3    3    0    0 -0.92057045634E+01  0.34686926216E+02 -0.12075529136E+02  0.37864841882E+02  0.00000000000E+00 0.  1.
         11    1    3    3    0    0  0.13059548658E+02 -0.15992467938E+02  0.36362069835E+02  0.41815200162E+02  0.00000000000E+00 0. -1.
</event>
<event>
 8    1  0.5900800E-006  0.1393200E+03  0.7561462E-02  0.1214247E+00
         -2   -1    0    0    0  501 -0.00000000000E+00  0.00000000000E+00  0.26262466069E+02  0.26262466069E+02  0.00000000000E+00 0.  1.
          2   -1    0    0  501    0  0.00000000000E+00 -0.00000000000E+00 -0.19528095387E+04  0.19528095387E+04  0.00000000000E+00 0. -1.
         23    2    1    2    0    0  0.88663737270E+02  0.58353705934E+02 -0.19697401229E+03  0.24173584923E+03  0.91493420449E+02 0.  0.
         23    2    1    2    0    0 -0.88663737270E+02 -0.58353705934E+02 -0.17295730604E+04  0.17373361555E+04  0.12509009937E+03 0.  0.
          5    1    4    4  502    0 -0.10226676197E+03 -0.37751248593E+01 -0.89078657293E+03  0.89665541491E+03  0.41800000000E+01 0.  1.
         -5    1    4    4    0  502  0.13603024703E+02 -0.54578581075E+02 -0.83878648742E+03  0.84068074063E+03  0.41800000000E+01 0.  1.
        -11    1    3    3    0    0  0.48295322082E+02  0.62777147780E+02 -0.61418348191E+02  0.10022784999E+03  0.00000000000E+00 0.  1.
         11    1    3    3    0    0  0.40368415189E+02 -0.44234418459E+01 -0.13555566409E+03  0.14150799925E+03  0.00000000000E+00 0. -1.
</event>
<event>
 8    1  0.5900800E-006  0.9103570E+02  0.7561462E-02  0.1300363E+00
         -2   -1    0    0    0  501 -0.00000000000E+00  0.00000000000E+00  0.10035368050E+03  0.10035368050E+03  0.00000000000E+00 0.  1.
          2   -1    0    0  501    0  0.00000000000E+00 -0.00000000000E+00 -0.16811574314E+03  0.16811574314E+03  0.00000000000E+00 0. -1.
         23    2    1    2    0    0 -0.39494425606E+02  0.56914313796E+02 -0.29410654096E+02  0.12043646590E+03  0.94026097313E+02 0.  0.
         23    2    1    2    0    0  0.39494425606E+02 -0.56914313796E+02 -0.38351408545E+02  0.14803295774E+03  0.12507548629E+03 0.  0.
          5    1    4    4  502    0 -0.71252916236E+01 -0.64332822326E+02  0.24485222584E+02  0.69328784311E+02  0.41800000000E+01 0.  1.
         -5    1    4    4    0  502  0.46619717230E+02  0.74185085296E+01 -0.62836631129E+02  0.78704173428E+02  0.41800000000E+01 0.  1.
        -11    1    3    3    0    0 -0.29168548243E+02  0.34760215588E+02  0.31209825276E+02  0.55073859390E+02  0.00000000000E+00 0.  1.
         11    1    3    3    0    0 -0.10325877363E+02  0.22154098208E+02 -0.60620479373E+02  0.65362606513E+02  0.00000000000E+00 0. -1.
</event>
<event>
 8    1  0.5900800E-006  0.7781819E+02  0.7561462E-02  0.1335360E+00
          2   -1    0    0  501    0  0.00000000000E+00  0.00000000000E+00  0.19853619183E+03  0.19853619183E+03  0.00000000000E+00 0.  1.
         -2   -1    0    0    0  501 -0.00000000000E+00 -0.00000000000E+00 -0.59207991237E+02  0.59207991237E+02  0.00000000000E+00 0. -1.
         23    2    1    2    0    0  0.78051674857E+00  0.75547978139E+01  0.50003026921E+02  0.10384982400E+03  0.90701703772E+02 0.  0.
         23    2    1    2    0    0 -0.78051674857E+00 -0.75547978139E+01  0.89325173677E+02  0.15389435907E+03  0.12508718130E+03 0.  0.
          5    1    4    4  502    0 -0.32514573263E+02 -0.29090461499E+02  0.10381252418E+03  0.11268524749E+03  0.41800000000E+01 0. -1.
         -5    1    4    4    0  502  0.31734056514E+02  0.21535663686E+02 -0.14487350501E+02  0.41209111586E+02  0.41800000000E+01 0. -1.
        -11    1    3    3    0    0  0.31872994334E+01  0.40284980963E+02 -0.40505741019E+01  0.40613368728E+02  0.00000000000E+00 0. -1.
         11    1    3    3    0    0 -0.24067826848E+01 -0.32730183149E+02  0.54053601023E+02  0.63236455272E+02  0.00000000000E+00 0.  1.
</event>
<event>
 8    1  0.5900800E-006  0.9801198E+02  0.7561462E-02  0.1284533E+00
          4   -1    0    0  501    0  0.00000000000E+00  0.00000000000E+00  0.18916615583E+03  0.18916615583E+03  0.00000000000E+00 0.  1.
         -4   -1    0    0    0  501 -0.00000000000E+00 -0.00000000000E+00 -0.57635161527E+02  0.57635161527E+02  0.00000000000E+00 0. -1.
         23    2    1    2    0    0 -0.28257750358E+02 -0.17951617450E+02  0.40759729131E+02  0.88663913668E+02  0.71268317250E+02 0.  0.
         23    2    1    2    0    0  0.28257750358E+02  0.17951617450E+02  0.90771265167E+02  0.15813740368E+03  0.12508898768E+03 0.  0.
          5    1    4    4  502    0  0.66437418647E+02 -0.15370934768E+02  0.81674322333E+02  0.10648175224E+03  0.41800000000E+01 0.  1.
         -5    1    4    4    0  502 -0.38179668289E+02  0.33322552218E+02  0.90969428344E+01  0.51655651442E+02  0.41800000000E+01 0.  1.
        -11    1    3    3    0    0 -0.16424629548E+02 -0.44691555719E+02  0.15646989600E+02  0.50119176888E+02  0.00000000000E+00 0. -1.
         11    1    3    3    0    0 -0.11833120811E+02  0.26739938268E+02  0.25112739531E+02  0.38544736780E+02  0.00000000000E+00 0.  1.
</event>
<event>
 8    1  0.5900800E-006  0.1066801E+03  0.7561462E-02  0.1266844E+00
         -2   -1    0    0    0  501 -0.00000000000E+00  0.00000000000E+00  0.57647974917E+02  0.57647974917E+02  0.00000000000E+00 0.  1.
          2   -1    0    0  501    0  0.00000000000E+00 -0.00000000000E+00 -0.21008694749E+03  0.21008694749E+03  0.00000000000E+00 0. -1.
         23    2    1    2    0    0 -0.10458985092E+02 -0.89000219777E+00 -0.42138513800E+02  0.10062842009E+03  0.90775779324E+02 0.  0.
         23    2    1    2    0    0  0.10458985092E+02  0.89000219777E+00 -0.11030045877E+03  0.16710650231E+03  0.12509280330E+03 0.  0.
          5    1    4    4  502    0 -0.51628467514E+02 -0.22853849447E+02 -0.66758480153E+02  0.87532646279E+02  0.41800000000E+01 0.  1.
         -5    1    4    4    0  502  0.62087452606E+02  0.23743851644E+02 -0.43541978617E+02  0.79573856032E+02  0.41800000000E+01 0.  1.
        -11    1    3    3    0    0  0.60174823654E+01 -0.43781841242E+02 -0.12412538104E+02  0.45903494624E+02  0.00000000000E+00 0. -1.
         11    1    3    3    0    0 -0.16476467457E+02  0.42891839044E+02 -0.29725975696E+02  0.54724925468E+02  0.00000000000E+00 0.  1.
</event>
<event>
 8    1  0.5900800E-006  0.8183325E+02  0.7561462E-02  0.1323928E+00
         -2   -1    0    0    0  501 -0.00000000000E+00  0.00000000000E+00  0.12041608326E+03  0.12041608326E+03  0.00000000000E+00 0.  1.
          2   -1    0    0  501    0  0.00000000000E+00 -0.00000000000E+00 -0.15902317659E+03  0.15902317659E+03  0.00000000000E+00 0. -1.
         23    2    1    2    0    0  0.37055743975E+02  0.58256326542E+01  0.56614553242E+02  0.11781991333E+03  0.96276986761E+02 0.  0.
         23    2    1    2    0    0 -0.37055743975E+02 -0.58256326542E+01 -0.95221646575E+02  0.16161934652E+03  0.12508631035E+03 0.  0.
          5    1    4    4  502    0 -0.30612833621E+02  0.55884358459E+02 -0.69335076584E+02  0.94260449540E+02  0.41800000000E+01 0.  1.
         -5    1    4    4    0  502 -0.64429103540E+01 -0.61709991113E+02 -0.25886569991E+02  0.67358896984E+02  0.41800000000E+01 0.  1.
        -11    1    3    3    0    0  0.22234277568E+02  0.49360615081E+01 -0.25605978381E+02  0.34269431437E+02  0.00000000000E+00 0. -1.
         11    1    3    3    0    0  0.14821466407E+02  0.88957114612E+00  0.82220531623E+02  0.83550481888E+02  0.00000000000E+00 0.  1.
</event>
<event>
 8    1  0.5900800E-006  0.9875587E+02  0.7561462E-02  0.1282934E+00
         -4   -1    0    0    0  501 -0.00000000000E+00  0.00000000000E+00  0.23220761819E+02  0.23220761819E+02  0.00000000000E+00 0.  1.
          4   -1    0    0  501    0  0.00000000000E+00 -0.00000000000E+00 -0.99774069976E+03  0.99774069976E+03  0.00000000000E+00 0. -1.
         23    2    1    2    0    0  0.61921120601E+02  0.37058455141E+02 -0.19198136642E+03  0.22520881330E+03  0.93030157814E+02 0.  0.
         23    2    1    2    0    0 -0.61921120601E+02 -0.37058455141E+02 -0.78253857153E+03  0.79575264828E+03  0.12509239404E+03 0.  0.
          5    1    4    4  502    0 -0.85557270800E+02 -0.23835378900E+02 -0.31214417987E+03  0.32456067738E+03  0.41800000000E+01 0. -1.
         -5    1    4    4    0  502  0.23636150199E+02 -0.13223076240E+02 -0.47039439165E+03  0.47119197090E+03  0.41800000000E+01 0. -1.
        -11    1    3    3    0    0  0.30768771192E+02 -0.24671261265E+01 -0.46263245921E+01  0.31212287184E+02  0.00000000000E+00 0.  1.
         11    1    3    3    0    0  0.31152349409E+02  0.39525581267E+02 -0.18735504182E+03  0.19399652612E+03  0.00000000000E+00 0. -1.
</event>
<event>
 7    1  0.5900800E-006  0.1741000E+03  0.7561462E-02  0.1173638E+00
          1   -1    0    0  501    0  0.00000000000E+00  0.00000000000E+00  0.48259258804E+03  0.48259258804E+03  0.00000000000E+00 0. -1.
         -1   -1    0    0    0  501 -0.00000000000E+00 -0.00000000000E+00 -0.85633589063E+02  0.85633589063E+02  0.00000000000E+00 0.  1.
         23    2    1    2    0    0 -0.86658519838E+02 -0.11740843596E+03  0.81102708211E+02  0.19029907080E+03  0.91332618349E+02 0.  0.
          5    1    1    2  502    0  0.50924813913E+02  0.14551244193E+03  0.19421078951E+03  0.24799699714E+03  0.41800000000E+01 0. -1.
         -5    1    1    2    0  502  0.35733705925E+02 -0.28104005969E+02  0.12164550126E+03  0.12993010916E+03  0.41800000000E+01 0.  1.
        -11    1    3    3    0    0 -0.66390911332E+02 -0.10597536172E+03  0.10016077638E+03  0.16022082113E+03  0.00000000000E+00 0. -1.
         11    1    3    3    0    0 -0.20267608506E+02 -0.11433074243E+02 -0.19058068168E+02  0.30078249674E+02  0.00000000000E+00 0.  1.
</event>
<event>
 7    1  0.5900800E-006  0.1379255E+03  0.7561462E-02  0.1216148E+00
          1   -1    0    0  501    0  0.00000000000E+00  0.00000000000E+00  0.86237972204E+03  0.86237972204E+03  0.00000000000E+00 0. -1.
         -1   -1    0    0    0  501 -0.00000000000E+00 -0.00000000000E+00 -0.28122405309E+02  0.28122405309E+02  0.00000000000E+00 0.  1.
         23    2    1    2    0    0  0.72684899855E+01  0.24156911866E+02  0.22073075885E+03  0.23925830097E+03  0.88803599850E+02 0.  0.
          5    1    1    2  502    0 -0.17729986154E+02 -0.10882271117E+03  0.48163205592E+03  0.49410893998E+03  0.41800000000E+01 0. -1.
         -5    1    1    2    0  502  0.10461496168E+02  0.84665799308E+02  0.13189450196E+03  0.15713488640E+03  0.41800000000E+01 0.  1.
        -11    1    3    3    0    0  0.39517151786E+02 -0.47913866275E+00  0.49798103922E+02  0.63574255901E+02  0.00000000000E+00 0.  1.
         11    1    3    3    0    0 -0.32248661800E+02  0.24636050529E+02  0.17093265493E+03  0.17568404507E+03  0.00000000000E+00 0. -1.
</event>
<event>
 8    1  0.5900800E-006  0.1028753E+03  0.7561462E-02  0.1274363E+00
         -1   -1    0    0    0  501 -0.00000000000E+00  0.00000000000E+00  0.10266314036E+03  0.10266314036E+03  0.00000000000E+00 0.  1.
          1   -1    0    0  501    0  0.00000000000E+00 -0.00000000000E+00 -0.14862026920E+03  0.14862026920E+03  0.00000000000E+00 0. -1.
         23    2    1    2    0    0  0.13902931770E+02 -0.57590675344E+02 -0.87433435240E+01  0.10797831134E+03  0.89849275268E+02 0.  0.
         23    2    1    2    0    0 -0.13902931770E+02  0.57590675344E+02 -0.37213785319E+02  0.14330509822E+03  0.12506601440E+03 0.  0.
          5    1    4    4  502    0  0.62594701962E+01 -0.38383330916E+02 -0.25172523475E+01  0.39195280567E+02  0.41800000000E+01 0.  1.
         -5    1    4    4    0  502 -0.20162401966E+02  0.95974006260E+02 -0.34696532972E+02  0.10410981765E+03  0.41800000000E+01 0.  1.
        -11    1    3    3    0    0  0.25133746166E+02 -0.45471185846E+02  0.34041298323E+02  0.62113959221E+02  0.00000000000E+00 0.  1.
         11    1    3    3    0    0 -0.11230814396E+02 -0.12119489498E+02 -0.42784641847E+02  0.45864352123E+02  0.00000000000E+00 0. -1.
</event>
<event>
 8    1  0.5900800E-006  0.1187656E+03  0.7561462E-02  0.1245147E+00
          4   -1    0    0  501    0  0.00000000000E+00  0.00000000000E+00  0.44349184102E+02  0.44349184102E+02  0.00000000000E+00 0. -1.
         -4   -1    0    0    0  501 -0.00000000000E+00 -0.00000000000E+00 -0.46344250485E+03  0.46344250485E+03  0.00000000000E+00 0.  1.
         23    2    1    2    0    0  0.43093741681E+02  0.60325423513E+02 -0.25695072083E+03  0.28999737812E+03  0.11215426467E+03 0.  0.
         23    2    1    2    0    0 -0.43093741681E+02 -0.60325423513E+02 -0.16214259991E+03  0.21779431083E+03  0.12509161375E+03 0.  0.
          5    1    4    4  502    0 -0.51941628835E+02  0.99939238108E+01 -0.12891374261E+03  0.13940601405E+03  0.41800000000E+01 0. -1.
         -5    1    4    4    0  502  0.88478871533E+01 -0.70319347324E+02 -0.33228857302E+02  0.78388296784E+02  0.41800000000E+01 0. -1.
        -11    1    3    3    0    0  0.33419671001E+02 -0.15638372179E+02 -0.22174634323E+02  0.43048199749E+02  0.00000000000E+00 0. -1.
         11    1    3    3    0    0  0.96740706801E+01  0.75963795692E+02 -0.23477608651E+03  0.24694917837E+03  0.00000000000E+00 0.  1.
</event>
<event>
 7    1  0.5900800E-006  0.7119412E+02  0.7561462E-02  0.1356079E+00
         -2   -1    0    0    0  501 -0.00000000000E+00  0.00000000000E+00  0.88112409488E+02  0.88112409488E+02  0.00000000000E+00 0.  1.
          2   -1    0    0  501    0  0.00000000000E+00 -0.00000000000E+00 -0.18030609070E+03  0.18030609070E+03  0.00000000000E+00 0. -1.
         23    2    1    2    0    0 -0.61314451897E+01  0.25022138831E+02  0.15301098551E+02  0.96312536634E+02  0.91532939668E+02 0.  0.
          5    1    1    2  502    0 -0.15706859959E+02 -0.17583990919E+02 -0.13434361077E+03  0.13646091141E+03  0.41800000000E+01 0. -1.
         -5    1    1    2    0  502  0.21838305149E+02 -0.74381479120E+01  0.26848831009E+02  0.35645052148E+02  0.41800000000E+01 0.  1.
        -11    1    3    3    0    0  0.17449118172E+02  0.54513219024E+02  0.71406755425E+01  0.57681470339E+02  0.00000000000E+00 0.  1.
         11    1    3    3    0    0 -0.23580563362E+02 -0.29491080193E+02  0.81604230084E+01  0.38631066295E+02  0.00000000000E+00 0. -1.
</event>
<event>
 6    1  0.5900800E-006  0.7774998E+02  0.7561462E-02  0.1335561E+00
         -1   -1    0    0    0  501 -0.00000000000E+00  0.00000000000E+00  0.98969894916E+02  0.98969894916E+02  0.00000000000E+00 0.  1.
          1   -1    0    0  501    0  0.00000000000E+00 -0.00000000000E+00 -0.75018771441E+02  0.75018771441E+02  0.00000000000E+00 0. -1.
          5    1    1    2  502    0  0.62633292339E+02  0.12892553385E+01  0.38844652470E+02  0.73830690868E+02  0.41800000000E+01 0. -1.
         -5    1    1    2    0  502 -0.53116167737E+02  0.72589050568E+01 -0.25554932301E+02  0.59536089413E+02  0.41800000000E+01 0.  1.
        -11    1    1    2    0    0 -0.18486364948E+02 -0.18076716105E+02  0.92484962858E+01  0.27459935136E+02  0.00000000000E+00 0. -1.
         11    1    1    2    0    0  0.89692403455E+01  0.95285557100E+01  0.14129070201E+01  0.13161950940E+02  0.00000000000E+00 0.  1.
</event>
<event>
 8    1  0.5900800E-006  0.7496825E+02  0.7561462E-02  0.1343969E+00
         -2   -1    0    0    0  501 -0.00000000000E+00  0.00000000000E+00  0.87083307436E+02  0.87083307436E+02  0.00000000000E+00 0.  1.
          2   -1    0    0  501    0  0.00000000000E+00 -0.00000000000E+00 -0.27160575129E+03  0.27160575129E+03  0.00000000000E+00 0. -1.
         23    2    1    2    0    0 -0.13102549532E+02 -0.63718009434E+01  0.41276365477E+02  0.10014499827E+03  0.90072224798E+02 0.  0.
         23    2    1    2    0    0  0.13102549532E+02  0.63718009434E+01 -0.22579880933E+03  0.25854406046E+03  0.12509057618E+03 0.  0.
          5    1    4    4  502    0 -0.33910961457E+02  0.32588504709E+01 -0.74388205567E+01  0.35119536794E+02  0.41800000000E+01 0.  1.
         -5    1    4    4    0  502  0.47013510989E+02  0.31129504726E+01 -0.21835998878E+03  0.22342452366E+03  0.41800000000E+01 0.  1.
        -11    1    3    3    0    0  0.26168020237E+02  0.65412012613E+01 -0.14574917814E+02  0.30659106744E+02  0.00000000000E+00 0. -1.
         11    1    3    3    0    0 -0.39270569769E+02 -0.12913002205E+02  0.55851283291E+02  0.69485891526E+02  0.00000000000E+00 0.  1.
</event>
<event>
 8    1  0.5900800E-006  0.1193287E+03  0.7561462E-02  0.1244209E+00
          2   -1    0    0  501    0  0.00000000000E+00  0.00000000000E+00  0.27197291482E+03  0.27197291482E+03  0.00000000000E+00 0. -1.
         -2   -1    0    0    0  501 -0.00000000000E+00 -0.00000000000E+00 -0.88179815007E+02  0.88179815007E+02  0.00000000000E+00 0.  1.
         23    2    1    2    0    0  0.36720566640E+02  0.50980596419E+02 -0.19470799269E+02  0.11335127457E+03  0.92314561134E+02 0.  0.
         23    2    1    2    0    0 -0.36720566640E+02 -0.50980596419E+02  0.20326389908E+03  0.24680145526E+03  0.12508926581E+03 0.  0.
          5    1    4    4  502    0 -0.15556770731E+02 -0.86160027334E+02  0.87287142027E+02  0.12370158038E+03  0.41800000000E+01 0. -1.
         -5    1    4    4    0  502 -0.21163795910E+02  0.35179430916E+02  0.11597675706E+03  0.12309987488E+03  0.41800000000E+01 0. -1.
        -11    1    3    3    0    0  0.17283864420E+02 -0.25511191448E+02  0.38520571878E+01  0.31054648653E+02  0.00000000000E+00 0. -1.
         11    1    3    3    0    0  0.19436702221E+02  0.76491787867E+02 -0.23322856457E+02  0.82296625919E+02  0.00000000000E+00 0.  1.
</event>
<event>
 8    1  0.5900800E-006  0.4954819E+02  0.7561462E-02  0.1447794E+00
          1   -1    0    0  501    0  0.00000000000E+00  0.00000000000E+00  0.15245564656E+03  0.15245564656E+03  0.00000000000E+00 0. -1.
         -1   -1    0    0    0  501 -0.00000000000E+00 -0.00000000000E+00 -0.94425483314E+02  0.94425483314E+02  0.00000000000E+00 0.  1.
         23    2    1    2    0    0 -0.45068032006E+02 -0.80610931378E+01 -0.36506570871E+01  0.10009671777E+03  0.88937713480E+02 0.  0.
         23    2    1    2    0    0  0.45068032006E+02  0.80610931378E+01  0.61680820337E+02  0.14678441211E+03  0.12508009957E+03 0.  0.
          5    1    4    4  502    0  0.31729880217E+02  0.46674221746E+01 -0.35801173365E+02  0.48246932987E+02  0.41800000000E+01 0. -1.
         -5    1    4    4    0  502  0.13338151789E+02  0.33936709633E+01  0.97481993703E+02  0.98537479123E+02  0.41800000000E+01 0. -1.
        -11    1    3    3    0    0 -0.33527789365E+02 -0.17169389940E+02 -0.43546814665E+02  0.57577996475E+02  0.00000000000E+00 0.  1.
         11    1    3    3    0    0 -0.11540242641E+02  0.91082968020E+01  0.39896157578E+02  0.42518721292E+02  0.00000000000E+00 0. -1.
</event>
<event>
 8    1  0.5900800E-006  0.1530718E+03  0.7561462E-02  0.1196748E+00
         -2   -1    0    0    0  501 -0.00000000000E+00  0.00000000000E+00  0.28106979999E+03  0.28106979999E+03  0.00000000000E+00 0.  1.
          2   -1    0    0  501    0  0.00000000000E+00 -0.00000000000E+00 -0.92508629753E+02  0.92508629753E+02  0.00000000000E+00 0. -1.
         23    2    1    2    0    0 -0.10902214963E+03 -0.14489825548E+02  0.13682324319E+03  0.19916571408E+03  0.94077614936E+02 0.  0.
         23    2    1    2    0    0  0.10902214963E+03  0.14489825548E+02  0.51737927047E+02  0.17441271567E+03  0.12508876103E+03 0.  0.
          5    1    4    4  502    0  0.10487672828E+03 -0.38313116924E+02  0.23251464524E+02  0.11412767441E+03  0.41800000000E+01 0. -1.
         -5    1    4    4    0  502  0.41454213478E+01  0.52802942472E+02  0.28486462523E+02  0.60285041253E+02  0.41800000000E+01 0. -1.
        -11    1    3    3    0    0 -0.12092540624E+03 -0.27114561104E+02  0.10296731775E+03  0.16112238151E+03  0.00000000000E+00 0.  1.
         11    1    3    3    0    0  0.11903256605E+02  0.12624735556E+02  0.33855925444E+02  0.38043332574E+02  0.00000000000E+00 0. -1.
</event>
<event>
 8    1  0.5900800E-006  0.1031014E+03  0.7561462E-02  0.1273906E+00
          2   -1    0    0  501    0  0.00000000000E+00  0.00000000000E+00  0.23816991398E+03  0.23816991398E+03  0.00000000000E+00 0. -1.
         -2   -1    0    0    0  501 -0.00000000000E+00 -0.00000000000E+00 -0.68773456346E+02  0.68773456346E+02  0.00000000000E+00 0.  1.
         23    2    1    2    0    0 -0.28839351122E+02 -0.58501113360E+02  0.49803850789E+02  0.12199143824E+03  0.90262943737E+02 0.  0.
         23    2    1    2    0    0  0.28839351122E+02  0.58501113360E+02  0.11959260685E+03  0.18495193209E+03  0.12510290618E+03 0.  0.
          5    1    4    4  502    0 -0.13486171453E+01  0.64172332764E+02  0.13558627811E+03  0.15007004455E+03  0.41800000000E+01 0. -1.
         -5    1    4    4    0  502  0.30187968267E+02 -0.56712194043E+01 -0.15993671265E+02  0.34881887537E+02  0.41800000000E+01 0. -1.
        -11    1    3    3    0    0 -0.76296895507E+01  0.24267274029E+02  0.67722428881E+01  0.26324437794E+02  0.00000000000E+00 0.  1.
         11    1    3    3    0    0 -0.21209661571E+02 -0.82768387389E+02  0.43031607901E+02  0.95667000442E+02  0.00000000000E+00 0. -1.
</event>
<event>
 8    1  0.5900800E-006  0.1126197E+03  0.7561462E-02  0.1255794E+00
         -1   -1    0    0    0  501 -0.00000000000E+00  0.00000000000E+00  0.25504839298E+03  0.25504839298E+03  0.00000000000E+00 0.  1.
          1   -1    0    0  501    0  0.00000000000E+00 -0.00000000000E+00 -0.59652018180E+02  0.59652018180E+02  0.00000000000E+00 0. -1.
         23    2    1    2    0    0 -0.42407860401E+02 -0.38919075857E+02  0.88090337410E+02  0.14012505898E+03  0.92531094883E+02 0.  0.
         23    2    1    2    0    0  0.42407860401E+02  0.38919075857E+02  0.10730603739E+03  0.17457535218E+03  0.12509535099E+03 0.  0.
          5    1    4    4  502    0 -0.20175414127E+01  0.74865060963E+02  0.84274112679E+02  0.11282041612E+03  0.41800000000E+01 0. -1.
         -5    1    4    4    0  502  0.44425401814E+02 -0.35945985106E+02  0.23031924714E+02  0.61754936059E+02  0.41800000000E+01 0. -1.
        -11    1    3    3    0    0 -0.54385194336E+02 -0.23336704634E+01  0.13342452691E+02  0.56046555868E+02  0.00000000000E+00 0. -1.
         11    1    3    3    0    0  0.11977333935E+02 -0.36585405393E+02  0.74747884718E+02  0.84078503114E+02  0.00000000000E+00 0.  1.
</event>
<event>
 8    1  0.5900800E-006  0.1642633E+03  0.7561462E-02  0.1183966E+00
          1   -1    0    0  501    0  0.00000000000E+00  0.00000000000E+00  0.18512255058E+03  0.18512255058E+03  0.00000000000E+00 0. -1.
         -1   -1    0    0    0  501 -0.00000000000E+00 -0.00000000000E+00 -0.17708492222E+03  0.17708492222E+03  0.00000000000E+00 0.  1.
         23    2    1    2    0    0  0.52004747367E+02  0.13439400042E+03  0.27193969364E+01  0.17130806242E+03  0.92589502825E+02 0.  0.
         23    2    1    2    0    0 -0.52004747367E+02 -0.13439400042E+03  0.53182314262E+01  0.19089941038E+03  0.12509220680E+03 0.  0.
          5    1    4    4  502    0  0.16648541732E+01  0.16902000343E+02  0.23490426098E+02  0.29286889102E+02  0.41800000000E+01 0.  1.
         -5    1    4    4    0  502 -0.53669601540E+02 -0.15129600076E+03 -0.18172194672E+02  0.16161252128E+03  0.41800000000E+01 0.  1.
        -11    1    3    3    0    0  0.36514441319E+01  0.69116419939E+02 -0.39568403511E+02  0.79724971657E+02  0.00000000000E+00 0.  1.
         11    1    3    3    0    0  0.48353303235E+02  0.65277580477E+02  0.42287800447E+02  0.91583090761E+02  0.00000000000E+00 0. -1.
</event>
<event>
 8    1  0.5900800E-006  0.1014117E+03  0.7561462E-02  0.1277355E+00
         -1   -1    0    0    0  501 -0.00000000000E+00  0.00000000000E+00  0.22111224272E+03  0.22111224272E+03  0.00000000000E+00 0.  1.
          1   -1    0    0  501    0  0.00000000000E+00 -0.00000000000E+00 -0.57417261489E+02  0.57417261489E+02  0.00000000000E+00 0. -1.
         23    2    1    2    0    0  0.23205687681E+02 -0.79127185819E+01  0.51282582411E+02  0.10857379050E+03  0.92505403461E+02 0.  0.
         23    2    1    2    0    0 -0.23205687681E+02  0.79127185819E+01  0.11241239882E+03  0.16995571370E+03  0.12508909687E+03 0.  0.
          5    1    4    4  502    0  0.19441128581E+02  0.57950573750E+02  0.48136245728E+02  0.77915319618E+02  0.41800000000E+01 0.  1.
         -5    1    4    4    0  502 -0.42646816262E+02 -0.50037855168E+02  0.64276153089E+02  0.92040394083E+02  0.41800000000E+01 0.  1.
        -11    1    3    3    0    0 -0.10663593770E+02 -0.32252232711E+02  0.57121873806E+02  0.66459214666E+02  0.00000000000E+00 0.  1.
         11    1    3    3    0    0  0.33869281451E+02  0.24339514129E+02 -0.58392913946E+01  0.42114575838E+02  0.00000000000E+00 0. -1.
</event>
<event>
 8    1  0.5900800E-006  0.7520275E+02  0.7561462E-02  0.1343244E+00
          3   -1    0    0  501    0  0.00000000000E+00  0.00000000000E+00  0.25332747468E+03  0.25332747468E+03  0.00000000000E+00 0. -1.
         -3   -1    0    0    0  501 -0.00000000000E+00 -0.00000000000E+00 -0.57482979750E+02  0.57482979750E+02  0.00000000000E+00 0.  1.
         23    2    1    2    0    0  0.26496355950E+02 -0.10304887410E+02  0.32009128309E+02  0.10272725953E+03  0.93381250645E+02 0.  0.
         23    2    1    2    0    0 -0.26496355950E+02  0.10304887410E+02  0.16383536662E+03  0.20808319490E+03  0.12509332940E+03 0.  0.
          5    1    4    4  502    0  0.14410564221E+02  0.83093519650E+01 -0.16084362961E+02  0.23513588053E+02  0.41800000000E+01 0. -1.
         -5    1    4    4    0  502 -0.40906920172E+02  0.19955354451E+01  0.17991972958E+03  0.18456960685E+03  0.41800000000E+01 0. -1.
        -11    1    3    3    0    0  0.23965223733E+02 -0.48346183610E+02  0.16403156334E+01  0.53984961366E+02  0.00000000000E+00 0.  1.
         11    1    3    3    0    0  0.25311322169E+01  0.38041296200E+02  0.30368812675E+02  0.48742298163E+02  0.00000000000E+00 0. -1.
</event>
<event>
 8    1  0.5900800E-006  0.2357042E+03  0.7561462E-02  0.1122688E+00
         -1   -1    0    0    0  501 -0.00000000000E+00  0.00000000000E+00  0.41820803809E+02  0.41820803809E+02  0.00000000000E+00 0.  1.
          1   -1    0    0  501    0  0.00000000000E+00 -0.00000000000E+00 -0.17857111486E+04  0.17857111486E+04  0.00000000000E+00 0. -1.
         23    2    1    2    0    0 -0.21869147571E+03  0.48408069872E+02 -0.47403009455E+03  0.53201581291E+03  0.90371410668E+02 0.  0.
         23    2    1    2    0    0  0.21869147571E+03 -0.48408069872E+02 -0.12698602502E+04  0.12955161395E+04  0.12509080620E+03 0.  0.
          5    1    4    4  502    0  0.19522365887E+03 -0.68941222864E+02 -0.12128451959E+04  0.12303967290E+04  0.41800000000E+01 0. -1.
         -5    1    4    4    0  502  0.23467816834E+02  0.20533152992E+02 -0.57015054341E+02  0.65119410472E+02  0.41800000000E+01 0. -1.
        -11    1    3    3    0    0 -0.56197141237E+02 -0.15437046658E+02 -0.18885419127E+03  0.19764191522E+03  0.00000000000E+00 0.  1.
         11    1    3    3    0    0 -0.16249433447E+03  0.63845116530E+02 -0.28517590328E+03  0.33437389769E+03  0.00000000000E+00 0. -1.
</event>
<event>
 8    1  0.5900800E-006  0.2330812E+03  0.7561462E-02  0.1124490E+00
          2   -1    0    0  501    0  0.00000000000E+00  0.00000000000E+00  0.13985324150E+04  0.13985324150E+04  0.00000000000E+00 0. -1.
         -2   -1    0    0    0  501 -0.00000000000E+00 -0.00000000000E+00 -0.41911783994E+02  0.41911783994E+02  0.00000000000E+00 0.  1.
         23    2    1    2    0    0 -0.73829422802E+01  0.21413763515E+03  0.74149307992E+03  0.77716510229E+03  0.90907502586E+02 0.  0.
         23    2    1    2    0    0  0.73829422802E+01 -0.21413763515E+03  0.61512755109E+03  0.66327909671E+03  0.12509125227E+03 0.  0.
          5    1    4    4  502    0  0.58462207496E+02 -0.16568620295E+03  0.47347037304E+03  0.50503605228E+03  0.41800000000E+01 0. -1.
         -5    1    4    4    0  502 -0.51079265216E+02 -0.48451432198E+02  0.14165717805E+03  0.15824304443E+03  0.41800000000E+01 0. -1.
        -11    1    3    3    0    0  0.20852026012E+02  0.11171074624E+03  0.50920667447E+03  0.52173320303E+03  0.00000000000E+00 0. -1.
         11    1    3    3    0    0 -0.28234968292E+02  0.10242688891E+03  0.23228640545E+03  0.25543189927E+03  0.00000000000E+00 0.  1.
</event>
<event>
 8    1  0.5900800E-006  0.2608690E+03  0.7561462E-02  0.1106622E+00
          2   -1    0    0  501    0  0.00000000000E+00  0.00000000000E+00  0.83608413584E+03  0.83608413584E+03  0.00000000000E+00 0. -1.
         -2   -1    0    0    0  501 -0.00000000000E+00 -0.00000000000E+00 -0.83247992068E+02  0.83247992068E+02  0.00000000000E+00 0.  1.
         23    2    1    2    0    0 -0.15719980907E+03  0.18121384790E+03  0.36002680845E+03  0.44236604031E+03  0.92293944401E+02 0.  0.
         23    2    1    2    0    0  0.15719980907E+03 -0.18121384790E+03  0.39280933532E+03  0.47696608760E+03  0.12508891304E+03 0.  0.
          5    1    4    4  502    0  0.17527809894E+03 -0.16657975024E+03  0.32466716879E+03  0.40484252253E+03  0.41800000000E+01 0.  1.
         -5    1    4    4    0  502 -0.18078289877E+02 -0.14634097661E+02  0.68142166523E+02  0.72123565065E+02  0.41800000000E+01 0.  1.
        -11    1    3    3    0    0 -0.53567970282E+02  0.13012830933E+03  0.21468685662E+03  0.25669700180E+03  0.00000000000E+00 0. -1.
         11    1    3    3    0    0 -0.10363183878E+03  0.51085538565E+02  0.14533995183E+03  0.18566903851E+03  0.00000000000E+00 0.  1.
</event>
<event>
 8    1  0.5900800E-006  0.1077289E+03  0.7561462E-02  0.1264834E+00
          2   -1    0    0  501    0  0.00000000000E+00  0.00000000000E+00  0.10710812458E+04  0.10710812458E+04  0.00000000000E+00 0. -1.
         -2   -1    0    0    0  501 -0.00000000000E+00 -0.00000000000E+00 -0.14647583333E+02  0.14647583333E+02  0.00000000000E+00 0.  1.
         23    2    1    2    0    0  0.36319704356E+02  0.37862316582E+02  0.36752659186E+03  0.38359202421E+03  0.96510980594E+02 0.  0.
         23    2    1    2    0    0 -0.36319704356E+02 -0.37862316582E+02  0.68890707064E+03  0.70213680495E+03  0.12510181832E+03 0.  0.
          5    1    4    4  502    0 -0.66703188713E+02 -0.39895843738E+02  0.63755439350E+03  0.64228815247E+03  0.41800000000E+01 0. -1.
         -5    1    4    4    0  502  0.30383484357E+02  0.20335271560E+01  0.51352677140E+02  0.59848652482E+02  0.41800000000E+01 0. -1.
        -11    1    3    3    0    0 -0.29426641423E+02  0.27595330542E+02  0.98128095053E+02  0.10609690161E+03  0.00000000000E+00 0.  1.
         11    1    3    3    0    0  0.65746345779E+02  0.10266986041E+02  0.26939849680E+03  0.27749512260E+03  0.00000000000E+00 0. -1.
</event>
<event>
 7    1  0.5900800E-006  0.1880544E+03  0.7561462E-02  0.1160228E+00
         -2   -1    0    0    0  501 -0.00000000000E+00  0.00000000000E+00  0.14643816920E+03  0.14643816920E+03  0.00000000000E+00 0.  1.
          2   -1    0    0  501    0  0.00000000000E+00 -0.00000000000E+00 -0.41727506919E+03  0.41727506919E+03  0.00000000000E+00 0. -1.
         23    2    1    2    0    0  0.63434010192E+02  0.25162740004E+02 -0.56274859591E+02  0.12644726255E+03  0.90360462875E+02 0.  0.
          5    1    1    2  502    0 -0.40413964311E+02  0.12101206941E+03 -0.25382191412E+03  0.28411308654E+03  0.41800000000E+01 0. -1.
         -5    1    1    2    0  502 -0.23020045881E+02 -0.14617480941E+03  0.39259873725E+02  0.15315288931E+03  0.41800000000E+01 0.  1.
        -11    1    3    3    0    0  0.80120161227E+02  0.17252746067E+02 -0.17940850687E+02  0.83897387356E+02  0.00000000000E+00 0.  1.
         11    1    3    3    0    0 -0.16686151035E+02  0.79099939369E+01 -0.38334008904E+02  0.42549875194E+02  0.00000000000E+00 0. -1.
</event>
<event>
 8    1  0.5900800E-006  0.1017945E+03  0.7561462E-02  0.1276567E+00
          2   -1    0    0  501    0  0.00000000000E+00  0.00000000000E+00  0.66939344935E+03  0.66939344935E+03  0.00000000000E+00 0. -1.
         -2   -1    0    0    0  501 -0.00000000000E+00 -0.00000000000E+00 -0.38337685639E+02  0.38337685639E+02  0.00000000000E+00 0.  1.
         23    2    1    2    0    0 -0.50246381440E+02  0.36341028621E+02  0.73885634123E+02  0.13333549493E+03  0.92053778133E+02 0.  0.
         23    2    1    2    0    0  0.50246381440E+02 -0.36341028621E+02  0.55717012959E+03  0.57439564006E+03  0.12508568586E+03 0.  0.
          5    1    4    4  502    0  0.79746611417E+02 -0.30366693753E+02  0.22234073447E+03  0.23819011887E+03  0.41800000000E+01 0. -1.
         -5    1    4    4    0  502 -0.29500229976E+02 -0.59743348676E+01  0.33482939511E+03  0.33620552119E+03  0.41800000000E+01 0. -1.
        -11    1    3    3    0    0 -0.20959476518E+02  0.50909876369E+02  0.28486835117E+01  0.55129213359E+02  0.00000000000E+00 0.  1.
         11    1    3    3    0    0 -0.29286904922E+02 -0.14568847748E+02  0.71036950611E+02  0.78206281568E+02  0.00000000000E+00 0. -1.
</event>
<event>
 8    1  0.5900800E-006  0.9588143E+02  0.7561462E-02  0.1289203E+00
          2   -1    0    0  501    0  0.00000000000E+00  0.00000000000E+00  0.12736727668E+04  0.12736727668E+04  0.00000000000E+00 0. -1.
         -2   -1    0    0    0  501 -0.00000000000E+00 -0.00000000000E+00 -0.14733460231E+02  0.14733460231E+02  0.00000000000E+00 0.  1.
         23    2    1    2    0    0  0.10645701388E+02  0.31428427889E+02  0.19905149164E+03  0.22064625237E+03  0.89231134282E+02 0.  0.
         23    2    1    2    0    0 -0.10645701388E+02 -0.31428427889E+02  0.10598878149E+04  0.10677599746E+04  0.12509239068E+03 0.  0.
          5    1    4    4  502    0 -0.46272658023E+02  0.14151483106E+02  0.19602848992E+03  0.20195560060E+03  0.41800000000E+01 0.  1.
         -5    1    4    4    0  502  0.35626956635E+02 -0.45579910995E+02  0.86385932500E+03  0.86580437405E+03  0.41800000000E+01 0.  1.
        -11    1    3    3    0    0 -0.21519276303E+02  0.45309127955E+02  0.65061371052E+02  0.82152165716E+02  0.00000000000E+00 0.  1.
         11    1    3    3    0    0  0.32164977691E+02 -0.13880700067E+02  0.13399012059E+03  0.13849408666E+03  0.00000000000E+00 0. -1.
</event>
<event>
 8    1  0.5900800E-006  0.1096454E+03  0.7561462E-02  0.1261228E+00
         -3   -1    0    0    0  501 -0.00000000000E+00  0.00000000000E+00  0.65215744022E+03  0.65215744022E+03  0.00000000000E+00 0.  1.
          3   -1    0    0  501    0  0.00000000000E+00 -0.00000000000E+00 -0.19766037088E+02  0.19766037088E+02  0.00000000000E+00 0. -1.
         23    2    1    2    0    0 -0.17083245988E+02 -0.60524456317E+01  0.31964983740E+03  0.33461429410E+03  0.97274034949E+02 0.  0.
         23    2    1    2    0    0  0.17083245988E+02  0.60524456317E+01  0.31274156573E+03  0.33730918321E+03  0.12506689709E+03 0.  0.
          5    1    4    4  502    0 -0.32714390616E+02  0.48102923575E+02  0.11304116461E+03  0.12720023548E+03  0.41800000000E+01 0.  1.
         -5    1    4    4    0  502  0.49797636604E+02 -0.42050477944E+02  0.19970040112E+03  0.21010894773E+03  0.41800000000E+01 0.  1.
        -11    1    3    3    0    0  0.10849592274E+02  0.40192080140E+02  0.98013818131E+02  0.10648861678E+03  0.00000000000E+00 0. -1.
         11    1    3    3    0    0 -0.27932838261E+02 -0.46244525771E+02  0.22163601927E+03  0.22812567732E+03  0.00000000000E+00 0.  1.
</event>
<event>
 8    1  0.5900800E-006  0.1093814E+03  0.7561462E-02  0.1261720E+00
         -1   -1    0    0    0  501 -0.00000000000E+00  0.00000000000E+00  0.52641103489E+03  0.52641103489E+03  0.00000000000E+00 0.  1.
          1   -1    0    0  501    0  0.00000000000E+00 -0.00000000000E+00 -0.28108985969E+02  0.28108985969E+02  0.00000000000E+00 0. -1.
         23    2    1    2    0    0 -0.42349371939E+02  0.80543688426E+01  0.30256437496E+03  0.31825749880E+03  0.88793537995E+02 0.  0.
         23    2    1    2    0    0  0.42349371939E+02 -0.80543688426E+01  0.19573767397E+03  0.23626252206E+03  0.12509356562E+03 0.  0.
          5    1    4    4  502    0 -0.37944529807E+02 -0.16359367322E+02  0.28069480554E+02  0.50127680777E+02  0.41800000000E+01 0.  1.
         -5    1    4    4    0  502  0.80293901746E+02  0.83049984795E+01  0.16766819341E+03  0.18613484128E+03  0.41800000000E+01 0.  1.
        -11    1    3    3    0    0  0.24090584813E+02  0.16824990959E+02  0.12655126940E+03  0.12991789863E+03  0.00000000000E+00 0.  1.
         11    1    3    3    0    0 -0.66439956752E+02 -0.87706221166E+01  0.17601310555E+03  0.18833960017E+03  0.00000000000E+00 0. -1.
</event>
<event>
 8    1  0.5900800E-006  0.8406079E+02  0.7561462E-02  0.1317907E+00
         -2   -1    0    0    0  501 -0.00000000000E+00  0.00000000000E+00  0.24010539575E+02  0.24010539575E+02  0.00000000000E+00 0.  1.
          2   -1    0    0  501    0  0.00000000000E+00 -0.00000000000E+00 -0.68686544297E+03  0.68686544297E+03  0.00000000000E+00 0. -1.
         23    2    1    2    0    0 -0.21779123770E+02 -0.39168656403E+02 -0.15781494220E+03  0.18865954183E+03  0.93157677427E+02 0.  0.
         23    2    1    2    0    0  0.21779123770E+02  0.39168656403E+02 -0.50503996120E+03  0.52221644072E+03  0.12504453078E+03 0.  0.
          5    1    4    4  502    0  0.68187424360E+02  0.33567213623E+02 -0.39986935656E+03  0.40704945325E+03  0.41800000000E+01 0.  1.
         -5    1    4    4    0  502 -0.46408300590E+02  0.56014427801E+01 -0.10517060463E+03  0.11516698747E+03  0.41800000000E+01 0.  1.
        -11    1    3    3    0    0 -0.31675617201E+01 -0.98435371673E+01  0.11704764282E+02  0.15618264247E+02  0.00000000000E+00 0.  1.
         11    1    3    3    0    0 -0.18611562050E+02 -0.29325119236E+02 -0.16951970648E+03  0.17304127758E+03  0.00000000000E+00 0. -1.
</event>
<event>
 8    1  0.5900800E-006  0.1525367E+03  0.7561462E-02  0.1197390E+00
          1   -1    0    0  501    0  0.00000000000E+00  0.00000000000E+00  0.31472695775E+03  0.31472695775E+03  0.00000000000E+00 0.  1.
         -1   -1    0    0    0  501 -0.00000000000E+00 -0.00000000000E+00 -0.79854645123E+02  0.79854645123E+02  0.00000000000E+00 0. -1.
         23    2    1    2    0    0 -0.13269932928E+02  0.11078523198E+03  0.80501438435E+02  0.16671026473E+03  0.94140172257E+02 0.  0.
         23    2    1    2    0    0  0.13269932928E+02 -0.11078523198E+03  0.15437087420E+03  0.22787133815E+03  0.12508205788E+03 0.  0.
          5    1    4    4  502    0  0.33183289111E+02 -0.12876615723E+03  0.14977835413E+03  0.20033192878E+03  0.41800000000E+01 0.  1.
         -5    1    4    4    0  502 -0.19913356183E+02  0.17980925256E+02  0.45925200697E+01  0.27539409364E+02  0.41800000000E+01 0.  1.
        -11    1    3    3    0    0  0.37178121128E+02  0.72756006377E+02  0.35167409648E+02  0.88951648978E+02  0.00000000000E+00 0. -1.
         11    1    3    3    0    0 -0.50448054056E+02  0.38029225600E+02  0.45334028786E+02  0.77758615753E+02  0.00000000000E+00 0.  1.
</event>
<event>
 8    1  0.5900800E-006  0.1728172E+03  0.7561462E-02  0.1174941E+00
          2   -1    0    0  501    0  0.00000000000E+00  0.00000000000E+00  0.33539091903E+03  0.33539091903E+03  0.00000000000E+00 0. -1.
         -2   -1    0    0    0  501 -0.00000000000E+00 -0.00000000000E+00 -0.10712056043E+03  0.10712056043E+03  0.00000000000E+00 0.  1.
         23    2    1    2    0    0 -0.12422223642E+03 -0.92917040798E+02  0.88746770264E+02  0.19924382715E+03  0.88075949799E+02 0.  0.
         23    2    1    2    0    0  0.12422223642E+03  0.92917040798E+02  0.13952358833E+03  0.24326765231E+03  0.12509028128E+03 0.  0.
          5    1    4    4  502    0  0.10830217908E+03  0.18270172767E+02  0.12320283221E+03  0.16510472880E+03  0.41800000000E+01 0. -1.
         -5    1    4    4    0  502  0.15920057335E+02  0.74646868031E+02  0.16320756125E+02  0.78162923518E+02  0.41800000000E+01 0. -1.
        -11    1    3    3    0    0 -0.25352579643E+01 -0.14041027460E+02 -0.15181140234E+02  0.20833746755E+02  0.00000000000E+00 0.  1.
         11    1    3    3    0    0 -0.12168697846E+03 -0.78876013339E+02  0.10392791050E+03  0.17841008039E+03  0.00000000000E+00 0. -1.
</event>
<event>
 8    1  0.5900800E-006  0.1236994E+03  0.7561462E-02  0.1237116E+00
         -3   -1    0    0    0  501 -0.00000000000E+00  0.00000000000E+00  0.27887264856E+02  0.27887264856E+02  0.00000000000E+00 0.  1.
          3   -1    0    0  501    0  0.00000000000E+00 -0.00000000000E+00 -0.55425620853E+03  0.55425620853E+03  0.00000000000E+00 0. -1.
         23    2    1    2    0    0  0.86018931331E+01  0.60129937378E+02 -0.25512247343E+03  0.27732207158E+03  0.90169024612E+02 0.  0.
         23    2    1    2    0    0 -0.86018931331E+01 -0.60129937378E+02 -0.27124647024E+03  0.30482140181E+03  0.12510730373E+03 0.  0.
          5    1    4    4  502    0  0.58082579752E+02 -0.30597325904E+02 -0.11959930240E+03  0.13649632946E+03  0.41800000000E+01 0. -1.
         -5    1    4    4    0  502 -0.66684472886E+02 -0.29532611474E+02 -0.15164716784E+03  0.16832507234E+03  0.41800000000E+01 0. -1.
        -11    1    3    3    0    0  0.49480303217E+02  0.31430913595E+02 -0.13036343315E+03  0.14293644545E+03  0.00000000000E+00 0.  1.
         11    1    3    3    0    0 -0.40878410084E+02  0.28699023783E+02 -0.12475904028E+03  0.13438562612E+03  0.00000000000E+00 0. -1.
</event>
<event>
 8    1  0.5900800E-006  0.9525624E+02  0.7561462E-02  0.1290600E+00
          1   -1    0    0  501    0  0.00000000000E+00  0.00000000000E+00  0.57266452493E+03  0.57266452493E+03  0.00000000000E+00 0. -1.
         -1   -1    0    0    0  501 -0.00000000000E+00 -0.00000000000E+00 -0.22495645455E+02  0.22495645455E+02  0.00000000000E+00 0.  1.
         23    2    1    2    0    0 -0.99087186943E+01  0.21367916324E+02  0.19924859600E+03  0.22186753426E+03  0.94712349754E+02 0.  0.
         23    2    1    2    0    0  0.99087186943E+01 -0.21367916324E+02  0.35092028348E+03  0.37329263613E+03  0.12509027251E+03 0.  0.
          5    1    4    4  502    0  0.61229864230E+02 -0.10309600759E+02  0.26746327799E+03  0.27460783239E+03  0.41800000000E+01 0.  1.
         -5    1    4    4    0  502 -0.51321145536E+02 -0.11058315566E+02  0.83457005490E+02  0.98684803732E+02  0.41800000000E+01 0.  1.
        -11    1    3    3    0    0 -0.36829843428E+02 -0.58970116161E+01  0.28686188941E+02  0.47054325507E+02  0.00000000000E+00 0.  1.
         11    1    3    3    0    0  0.26921124734E+02  0.27264927940E+02  0.17056240706E+03  0.17481320875E+03  0.00000000000E+00 0. -1.
</event>
<event>
 8    1  0.5900800E-006  0.1189941E+03  0.7561462E-02  0.1244766E+00
         -2   -1    0    0    0  501 -0.00000000000E+00  0.00000000000E+00  0.13069708720E+03  0.13069708720E+03  0.00000000000E+00 0.  1.
          2   -1    0    0  501    0  0.00000000000E+00 -0.00000000000E+00 -0.15065870910E+03  0.15065870910E+03  0.00000000000E+00 0. -1.
         23    2    1    2    0    0  0.80884839583E+02  0.23636707019E+02  0.20299142451E+02  0.12525846772E+03  0.90424428986E+02 0.  0.
         23    2    1    2    0    0 -0.80884839583E+02 -0.23636707019E+02 -0.40260764354E+02  0.15609732859E+03  0.12507755855E+03 0.  0.
          5    1    4    4  502    0  0.20983098018E+02 -0.32893064630E+02 -0.36600024053E+02  0.53658906660E+02  0.41800000000E+01 0.  1.
         -5    1    4    4    0  502 -0.10186793760E+03  0.92563576114E+01 -0.36607403010E+01  0.10243842193E+03  0.41800000000E+01 0.  1.
        -11    1    3    3    0    0  0.52243945496E+01  0.19953327598E+02 -0.28477755083E+02  0.35162652278E+02  0.00000000000E+00 0. -1.
         11    1    3    3    0    0  0.75660445033E+02  0.36833794205E+01  0.48776897534E+02  0.90095815439E+02  0.00000000000E+00 0.  1.
</event>
<event>
 8    1  0.5900800E-006  0.9737614E+02  0.7561462E-02  0.1285912E+00
          4   -1    0    0  501    0  0.00000000000E+00  0.00000000000E+00  0.67275396429E+03  0.67275396429E+03  0.00000000000E+00 0. -1.
         -4   -1    0    0    0  501 -0.00000000000E+00 -0.00000000000E+00 -0.27842284018E+02  0.27842284018E+02  0.00000000000E+00 0.  1.
         23    2    1    2    0    0 -0.29980924320E+02  0.42995637537E+01  0.97872551803E+02  0.13861949156E+03  0.93375505201E+02 0.  0.
         23    2    1    2    0    0  0.29980924320E+02 -0.42995637537E+01  0.54703912847E+03  0.56197675675E+03  0.12509486392E+03 0.  0.
          5    1    4    4  502    0 -0.31230259072E+02 -0.14147090594E+02  0.48284326452E+02  0.59365965291E+02  0.41800000000E+01 0. -1.
         -5    1    4    4    0  502  0.61211183391E+02  0.98475268401E+01  0.49875480202E+03  0.50261079146E+03  0.41800000000E+01 0. -1.
        -11    1    3    3    0    0 -0.52613029097E+02 -0.27246490809E+02  0.56198523999E+02  0.81662575222E+02  0.00000000000E+00 0.  1.
         11    1    3    3    0    0  0.22632104777E+02  0.31546054562E+02  0.41674027803E+02  0.56956916335E+02  0.00000000000E+00 0. -1.
</event>
<event>
 8    1  0.5900800E-006  0.8410838E+02  0.7561462E-02  0.1317781E+00
          2   -1    0    0  501    0  0.00000000000E+00  0.00000000000E+00  0.46170615247E+03  0.46170615247E+03  0.00000000000E+00 0. -1.
         -2   -1    0    0    0  501 -0.00000000000E+00 -0.00000000000E+00 -0.28371463166E+02  0.28371463166E+02  0.00000000000E+00 0.  1.
         23    2    1    2    0    0  0.91011324537E+01 -0.21791151129E+02  0.13125504857E+03  0.16227074576E+03  0.92445780193E+02 0.  0.
         23    2    1    2    0    0 -0.91011324537E+01  0.21791151129E+02  0.30207964073E+03  0.32780686987E+03  0.12509016633E+03 0.  0.
          5    1    4    4  502    0 -0.28921267207E+02  0.48997792936E+02  0.28339810286E+03  0.28908334528E+03  0.41800000000E+01 0.  1.
         -5    1    4    4    0  502  0.19820134753E+02 -0.27206641807E+02  0.18681537869E+02  0.38723524597E+02  0.41800000000E+01 0.  1.
        -11    1    3    3    0    0 -0.31372743991E+02 -0.19685425025E+00  0.10462422893E+03  0.10922690647E+03  0.00000000000E+00 0. -1.
         11    1    3    3    0    0  0.40473876445E+02 -0.21594296879E+02  0.26630819634E+02  0.53043839289E+02  0.00000000000E+00 0.  1.
</event>
<event>
 8    1  0.5900800E-006  0.1227630E+03  0.7561462E-02  0.1238607E+00
          2   -1    0    0  501    0  0.00000000000E+00  0.00000000000E+00  0.18378635263E+04  0.18378635263E+04  0.00000000000E+00 0. -1.
         -2   -1    0    0    0  501 -0.00000000000E+00 -0.00000000000E+00 -0.10722795112E+02  0.10722795112E+02  0.00000000000E+00 0.  1.
         23    2    1    2    0    0  0.44847390899E+02 -0.52535515986E+02  0.45802849707E+03  0.47203566289E+03  0.90864151342E+02 0.  0.
         23    2    1    2    0    0 -0.44847390899E+02  0.52535515986E+02  0.13691122341E+04  0.13765506585E+04  0.12510850076E+03 0.  0.
          5    1    4    4  502    0 -0.57421892694E+02 -0.25592735818E+02  0.54145768725E+03  0.54511114589E+03  0.41800000000E+01 0.  1.
         -5    1    4    4    0  502  0.12574501795E+02  0.78128251803E+02  0.82765454683E+03  0.83143951260E+03  0.41800000000E+01 0.  1.
        -11    1    3    3    0    0  0.17241336789E+02  0.19561207142E+02  0.46350569197E+02  0.53181573726E+02  0.00000000000E+00 0.  1.
         11    1    3    3    0    0  0.27606054110E+02 -0.72096723127E+02  0.41167792787E+03  0.41885408916E+03  0.00000000000E+00 0. -1.
</event>
<event>
 7    1  0.5900800E-006  0.1638553E+03  0.7561462E-02  0.1184412E+00
         -3   -1    0    0    0  501 -0.00000000000E+00  0.00000000000E+00  0.39258517654E+03  0.39258517654E+03  0.00000000000E+00 0.  1.
          3   -1    0    0  501    0  0.00000000000E+00 -0.00000000000E+00 -0.97936544786E+02  0.97936544786E+02  0.00000000000E+00 0. -1.
         23    2    1    2    0    0 -0.14554757496E+03 -0.10774156899E+02  0.21580507834E+03  0.27610436178E+03  0.91441826988E+02 0.  0.
          5    1    1    2  502    0  0.15863147189E+03  0.20463271266E+02  0.30034525667E+02  0.16279506896E+03  0.41800000000E+01 0. -1.
         -5    1    1    2    0  502 -0.13083896933E+02 -0.96891143676E+01  0.48809027746E+02  0.51622290589E+02  0.41800000000E+01 0.  1.
        -11    1    3    3    0    0 -0.59902077658E+02 -0.23438643443E+02  0.29706382581E+02  0.70852650481E+02  0.00000000000E+00 0. -1.
         11    1    3    3    0    0 -0.85645497300E+02  0.12664486544E+02  0.18609869576E+03  0.20525171130E+03  0.00000000000E+00 0.  1.
</event>
<event>
 8    1  0.5900800E-006  0.9782283E+02  0.7561462E-02  0.1284942E+00
          2   -1    0    0  501    0  0.00000000000E+00  0.00000000000E+00  0.42719120120E+03  0.42719120120E+03  0.00000000000E+00 0. -1.
         -2   -1    0    0    0  501 -0.00000000000E+00 -0.00000000000E+00 -0.30539761839E+02  0.30539761839E+02  0.00000000000E+00 0.  1.
         23    2    1    2    0    0 -0.62574953018E+01 -0.24290521428E+02  0.14497062958E+03  0.17556095038E+03  0.95791326223E+02 0.  0.
         23    2    1    2    0    0  0.62574953018E+01  0.24290521428E+02  0.25168080979E+03  0.28217001266E+03  0.12508996903E+03 0.  0.
          5    1    4    4  502    0  0.48195227363E+02 -0.24419809970E+02  0.64645893606E+02  0.84354436871E+02  0.41800000000E+01 0. -1.
         -5    1    4    4    0  502 -0.41937732062E+02  0.48710331399E+02  0.18703491618E+03  0.19781557579E+03  0.41800000000E+01 0. -1.
        -11    1    3    3    0    0  0.22286968007E+02  0.16164351514E+02  0.11373524708E+03  0.11702009072E+03  0.00000000000E+00 0. -1.
         11    1    3    3    0    0 -0.28544463309E+02 -0.40454872942E+02  0.31235382497E+02  0.58540859663E+02  0.00000000000E+00 0.  1.
</event>
<event>
 8    1  0.5900800E-006  0.9877254E+02  0.7561462E-02  0.1282898E+00
          1   -1    0    0  501    0  0.00000000000E+00  0.00000000000E+00  0.63534790632E+03  0.63534790632E+03  0.00000000000E+00 0. -1.
         -1   -1    0    0    0  501 -0.00000000000E+00 -0.00000000000E+00 -0.24324022411E+02  0.24324022411E+02  0.00000000000E+00 0.  1.
         23    2    1    2    0    0  0.13856082880E+02 -0.49053246141E+02  0.22354091442E+03  0.24932010402E+03  0.97937540602E+02 0.  0.
         23    2    1    2    0    0 -0.13856082880E+02  0.49053246141E+02  0.38748296949E+03  0.41035182471E+03  0.12508939367E+03 0.  0.
          5    1    4    4  502    0  0.26373873402E+02  0.36391671785E+02  0.40052150148E+02  0.60345522659E+02  0.41800000000E+01 0. -1.
         -5    1    4    4    0  502 -0.40229956282E+02  0.12661574355E+02  0.34743081934E+03  0.35000630205E+03  0.41800000000E+01 0. -1.
        -11    1    3    3    0    0  0.52470913579E+02 -0.70051741376E+01  0.11794604503E+03  0.12928085231E+03  0.00000000000E+00 0.  1.
         11    1    3    3    0    0 -0.38614830699E+02 -0.42048072003E+02  0.10559486939E+03  0.12003925171E+03  0.00000000000E+00 0. -1.
</event>
<event>
 8    1  0.6472919E-006  0.1143003E+03  0.7561462E-02  0.1252807E+00
          1   -1    0    0  501    0  0.00000000000E+00  0.00000000000E+00  0.15240184706E+03  0.15240184706E+03  0.00000000000E+00 0. -1.
         -1   -1    0    0    0  501 -0.00000000000E+00 -0.00000000000E+00 -0.12685787464E+03  0.12685787464E+03  0.00000000000E+00 0.  1.
         23    2    1    2    0    0  0.16326601258E+02 -0.92372068694E+02 -0.24538016870E+02  0.11508030483E+03  0.61985524960E+02 0.  0.
         23    2    1    2    0    0 -0.16326601258E+02  0.92372068694E+02  0.50081989296E+02  0.16417941687E+03  0.12509004072E+03 0.  0.
          5    1    4    4  502    0  0.20378194555E+02 -0.58160146665E+01  0.55068562439E+02  0.59153324582E+02  0.41800000000E+01 0. -1.
         -5    1    4    4    0  502 -0.36704795813E+02  0.98188083361E+02 -0.49865731430E+01  0.10502609229E+03  0.41800000000E+01 0. -1.
        -11    1    3    3    0    0 -0.10000739011E+02 -0.57687802901E+02 -0.37644479870E+02  0.69606064743E+02  0.00000000000E+00 0.  1.
         11    1    3    3    0    0  0.26327340268E+02 -0.34684265793E+02  0.13106463000E+02  0.45474240088E+02  0.00000000000E+00 0. -1.
</event>
<event>
 8    1  0.5900800E-006  0.1045309E+03  0.7561462E-02  0.1271047E+00
         -1   -1    0    0    0  501 -0.00000000000E+00  0.00000000000E+00  0.43626224917E+02  0.43626224917E+02  0.00000000000E+00 0.  1.
          1   -1    0    0  501    0  0.00000000000E+00 -0.00000000000E+00 -0.30357693908E+03  0.30357693908E+03  0.00000000000E+00 0. -1.
         23    2    1    2    0    0  0.75941374661E+01  0.11160194208E+02 -0.57863326265E+02  0.10915032956E+03  0.91560958158E+02 0.  0.
         23    2    1    2    0    0 -0.75941374661E+01 -0.11160194208E+02 -0.20208738790E+03  0.23805283443E+03  0.12509044238E+03 0.  0.
          5    1    4    4  502    0  0.40704834410E+02  0.36952663117E+02 -0.67753407265E+02  0.87352043204E+02  0.41800000000E+01 0. -1.
         -5    1    4    4    0  502 -0.48298971876E+02 -0.48112857326E+02 -0.13433398063E+03  0.15070079123E+03  0.41800000000E+01 0. -1.
        -11    1    3    3    0    0 -0.18022742945E+02  0.41899484977E+02 -0.98745088379E+01  0.46667890775E+02  0.00000000000E+00 0.  1.
         11    1    3    3    0    0  0.25616880411E+02 -0.30739290769E+02 -0.47988817427E+02  0.62482438789E+02  0.00000000000E+00 0. -1.
</event>
<event>
 8    1  0.5900800E-006  0.1105869E+03  0.7561462E-02  0.1259487E+00
          3   -1    0    0  501    0  0.00000000000E+00  0.00000000000E+00  0.43640191832E+02  0.43640191832E+02  0.00000000000E+00 0. -1.
         -3   -1    0    0    0  501 -0.00000000000E+00 -0.00000000000E+00 -0.31053792513E+03  0.31053792513E+03  0.00000000000E+00 0.  1.
         23    2    1    2    0    0  0.31692671011E+02 -0.11020633478E+02 -0.15624886720E+03  0.18383724785E+03  0.90865534914E+02 0.  0.
         23    2    1    2    0    0 -0.31692671011E+02  0.11020633478E+02 -0.11064886610E+03  0.17034086912E+03  0.12508781062E+03 0.  0.
          5    1    4    4  502    0 -0.45436260635E+02 -0.49102326339E+02 -0.48926592520E+02  0.82986601858E+02  0.41800000000E+01 0. -1.
         -5    1    4    4    0  502  0.13743589625E+02  0.60122959816E+02 -0.61722273575E+02  0.87354267258E+02  0.41800000000E+01 0. -1.
        -11    1    3    3    0    0  0.16544744467E+02  0.37773266798E+02 -0.98198399639E+02  0.10650574607E+03  0.00000000000E+00 0. -1.
         11    1    3    3    0    0  0.15147926543E+02 -0.48793900275E+02 -0.58050467566E+02  0.77331501778E+02  0.00000000000E+00 0.  1.
</event>
<event>
 8    1  0.5900800E-006  0.1184853E+03  0.7561462E-02  0.1245617E+00
          2   -1    0    0  501    0  0.00000000000E+00  0.00000000000E+00  0.10338960717E+04  0.10338960717E+04  0.00000000000E+00 0. -1.
         -2   -1    0    0    0  501 -0.00000000000E+00 -0.00000000000E+00 -0.96019643074E+02  0.96019643074E+02  0.00000000000E+00 0.  1.
         23    2    1    2    0    0 -0.97874280269E+02 -0.17277069718E+02 -0.36494615653E+02  0.14258278594E+03  0.95499329828E+02 0.  0.
         23    2    1    2    0    0  0.97874280269E+02  0.17277069718E+02  0.97437104429E+03  0.98733292885E+03  0.12469766862E+03 0.  0.
          5    1    4    4  502    0 -0.48243974308E+01  0.89951923802E+01  0.56720949289E+03  0.56731672769E+03  0.41800000000E+01 0.  1.
         -5    1    4    4    0  502  0.10269867770E+03  0.82818773381E+01  0.40716155141E+03  0.42001620116E+03  0.41800000000E+01 0.  1.
        -11    1    3    3    0    0 -0.96892869049E+01 -0.31985237948E+02  0.17920216458E+02  0.37921918269E+02  0.00000000000E+00 0. -1.
         11    1    3    3    0    0 -0.88184993364E+02  0.14708168230E+02 -0.54414832111E+02  0.10466086767E+03  0.00000000000E+00 0.  1.
</event>
<event>
 8    1  0.5900800E-006  0.9047877E+02  0.7561462E-02  0.1301696E+00
         -2   -1    0    0    0  501 -0.00000000000E+00  0.00000000000E+00  0.45829121907E+03  0.45829121907E+03  0.00000000000E+00 0.  1.
          2   -1    0    0  501    0  0.00000000000E+00 -0.00000000000E+00 -0.30549869711E+02  0.30549869711E+02  0.00000000000E+00 0. -1.
         23    2    1    2    0    0 -0.11296184134E+02 -0.55794391039E+01  0.28095899214E+03  0.29557385112E+03  0.90924211780E+02 0.  0.
         23    2    1    2    0    0  0.11296184134E+02  0.55794391039E+01  0.14678235722E+03  0.19326723765E+03  0.12509368826E+03 0.  0.
          5    1    4    4  502    0 -0.27313632405E+02 -0.33673361828E+02  0.85173196393E+01  0.44384084375E+02  0.41800000000E+01 0. -1.
         -5    1    4    4    0  502  0.38609816538E+02  0.39252800932E+02  0.13826503758E+03  0.14888315328E+03  0.41800000000E+01 0. -1.
        -11    1    3    3    0    0 -0.25572109023E+02  0.32592289460E+02  0.20723798216E+03  0.21133804992E+03  0.00000000000E+00 0.  1.
         11    1    3    3    0    0  0.14275924889E+02 -0.38171728563E+02  0.73721009975E+02  0.84235801205E+02  0.00000000000E+00 0. -1.
</event>
<event>
 8    1  0.5900800E-006  0.9323056E+02  0.7561462E-02  0.1295212E+00
         -2   -1    0    0    0  501 -0.00000000000E+00  0.00000000000E+00  0.17504736407E+03  0.17504736407E+03  0.00000000000E+00 0.  1.
          2   -1    0    0  501    0  0.00000000000E+00 -0.00000000000E+00 -0.71897104515E+02  0.71897104515E+02  0.00000000000E+00 0. -1.
         23    2    1    2    0    0  0.18098909880E+02  0.85215121353E+01  0.69131658688E+02  0.11574853928E+03  0.90655123435E+02 0.  0.
         23    2    1    2    0    0 -0.18098909880E+02 -0.85215121353E+01  0.34018600866E+02  0.13119592930E+03  0.12511962257E+03 0.  0.
          5    1    4    4  502    0  0.37288051089E+02 -0.26368597533E+02  0.52771993047E+02  0.69914643245E+02  0.41800000000E+01 0. -1.
         -5    1    4    4    0  502 -0.55386960968E+02  0.17847085398E+02 -0.18753392181E+02  0.61281286057E+02  0.41800000000E+01 0. -1.
        -11    1    3    3    0    0  0.72563057182E+01 -0.35852767243E+02  0.48653196796E+01  0.36901845851E+02  0.00000000000E+00 0.  1.
         11    1    3    3    0    0  0.10842604162E+02  0.44374279378E+02  0.64266339008E+02  0.78846693430E+02  0.00000000000E+00 0. -1.
</event>
<event>
 8    1  0.5900800E-006  0.2309429E+03  0.7561462E-02  0.1125978E+00
         -2   -1    0    0    0  501 -0.00000000000E+00  0.00000000000E+00  0.40594550684E+03  0.40594550684E+03  0.00000000000E+00 0. -1.
          2   -1    0    0  501    0  0.00000000000E+00 -0.00000000000E+00 -0.14169209887E+03  0.14169209887E+03  0.00000000000E+00 0.  1.
         23    2    1    2    0    0 -0.15465988161E+03 -0.14572825115E+03  0.12620707635E+03  0.26504149353E+03  0.95720243473E+02 0.  0.
         23    2    1    2    0    0  0.15465988161E+03  0.14572825115E+03  0.13804633163E+03  0.28259611218E+03  0.12508945111E+03 0.  0.
          5    1    4    4  502    0  0.91469705927E+02  0.13913149911E+03  0.49926466168E+02  0.17388043470E+03  0.41800000000E+01 0.  1.
         -5    1    4    4    0  502  0.63190175686E+02  0.65967520325E+01  0.88119865460E+02  0.10871567748E+03  0.41800000000E+01 0.  1.
        -11    1    3    3    0    0 -0.81502350461E+02 -0.16497676560E+02  0.59476433560E+02  0.10223625879E+03  0.00000000000E+00 0.  1.
         11    1    3    3    0    0 -0.73157531153E+02 -0.12923057459E+03  0.66730642786E+02  0.16280523474E+03  0.00000000000E+00 0. -1.
</event>
<event>
 8    1  0.5900800E-006  0.1142952E+03  0.7561462E-02  0.1252816E+00
         -2   -1    0    0    0  501 -0.00000000000E+00  0.00000000000E+00  0.13141735718E+02  0.13141735718E+02  0.00000000000E+00 0. -1.
          2   -1    0    0  501    0  0.00000000000E+00 -0.00000000000E+00 -0.12096060837E+04  0.12096060837E+04  0.00000000000E+00 0.  1.
         23    2    1    2    0    0 -0.33695022521E+02  0.18913298672E+02 -0.30952635643E+03  0.32620084288E+03  0.95432474362E+02 0.  0.
         23    2    1    2    0    0  0.33695022521E+02 -0.18913298672E+02 -0.88693799154E+03  0.89654697652E+03  0.12507762736E+03 0.  0.
          5    1    4    4  502    0 -0.19680291800E+01 -0.67520407687E+02 -0.55957447522E+03  0.56365232574E+03  0.41800000000E+01 0.  1.
         -5    1    4    4    0  502  0.35663051701E+02  0.48607109015E+02 -0.32736351632E+03  0.33289465078E+03  0.41800000000E+01 0.  1.
        -11    1    3    3    0    0 -0.24681845262E+02  0.56591229524E+02 -0.22317046132E+03  0.23155305127E+03  0.00000000000E+00 0.  1.
         11    1    3    3    0    0 -0.90131772587E+01 -0.37677930852E+02 -0.86355895103E+02  0.94647791610E+02  0.00000000000E+00 0. -1.
</event>
<event>
 8    1  0.5900800E-006  0.7293947E+02  0.7561462E-02  0.1350373E+00
          2   -1    0    0  501    0  0.00000000000E+00  0.00000000000E+00  0.14346910982E+03  0.14346910982E+03  0.00000000000E+00 0. -1.
         -2   -1    0    0    0  501 -0.00000000000E+00 -0.00000000000E+00 -0.94769226896E+02  0.94769226896E+02  0.00000000000E+00 0.  1.
         23    2    1    2    0    0  0.55634027739E+01 -0.11166763587E+02 -0.21975295596E+02  0.94026276142E+02  0.90566985868E+02 0.  0.
         23    2    1    2    0    0 -0.55634027739E+01  0.11166763587E+02  0.70675178520E+02  0.14421206057E+03  0.12508592845E+03 0.  0.
          5    1    4    4  502    0  0.26749986086E+02 -0.40211484555E+01  0.96268193345E+02  0.10008380908E+03  0.41800000000E+01 0. -1.
         -5    1    4    4    0  502 -0.32313388860E+02  0.15187912042E+02 -0.25593014825E+02  0.44128251491E+02  0.41800000000E+01 0. -1.
        -11    1    3    3    0    0 -0.28507940226E+02  0.21229420299E+02 -0.29777056970E+02  0.46368783292E+02  0.00000000000E+00 0.  1.
         11    1    3    3    0    0  0.34071343000E+02 -0.32396183886E+02  0.78017613736E+01  0.47657492850E+02  0.00000000000E+00 0. -1.
</event>
<event>
 7    1  0.5900800E-006  0.1312983E+03  0.7561462E-02  0.1225542E+00
         -2   -1    0    0    0  501 -0.00000000000E+00  0.00000000000E+00  0.78792583353E+02  0.78792583353E+02  0.00000000000E+00 0.  1.
          2   -1    0    0  501    0  0.00000000000E+00 -0.00000000000E+00 -0.10272276907E+04  0.10272276907E+04  0.00000000000E+00 0. -1.
         23    2    1    2    0    0 -0.63019322947E+01 -0.26563534656E+02  0.36673565006E+02  0.10309845160E+03  0.92406734753E+02 0.  0.
          5    1    1    2  502    0 -0.81915891007E+02  0.48917352622E+02 -0.56880104369E+03  0.57676270709E+03  0.41800000000E+01 0. -1.
         -5    1    1    2    0  502  0.88217823302E+02 -0.22353817966E+02 -0.41630762867E+03  0.42615911537E+03  0.41800000000E+01 0.  1.
        -11    1    3    3    0    0 -0.13398449620E+02 -0.49865618680E+02  0.52827215050E+02  0.73870244541E+02  0.00000000000E+00 0.  1.
         11    1    3    3    0    0  0.70965173253E+01  0.23302084025E+02 -0.16153650044E+02  0.29228207057E+02  0.00000000000E+00 0. -1.
</event>
<event>
 8    1  0.5900800E-006  0.1491108E+03  0.7561462E-02  0.1201570E+00
          1   -1    0    0  501    0  0.00000000000E+00  0.00000000000E+00  0.12803451674E+03  0.12803451674E+03  0.00000000000E+00 0. -1.
         -1   -1    0    0    0  501 -0.00000000000E+00 -0.00000000000E+00 -0.21480655782E+03  0.21480655782E+03  0.00000000000E+00 0.  1.
         23    2    1    2    0    0 -0.30603976629E+02 -0.10596483874E+03 -0.10068345225E+03  0.17549043859E+03  0.92166078616E+02 0.  0.
         23    2    1    2    0    0  0.30603976629E+02  0.10596483874E+03  0.13911411167E+02  0.16735063597E+03  0.12509019772E+03 0.  0.
          5    1    4    4  502    0  0.66648558110E+02  0.10506294944E+03 -0.83515548001E+01  0.12476968586E+03  0.41800000000E+01 0.  1.
         -5    1    4    4    0  502 -0.36044581481E+02  0.90188930138E+00  0.22262965967E+02  0.42580950108E+02  0.41800000000E+01 0.  1.
        -11    1    3    3    0    0  0.11943775237E+02  0.89308819797E+01 -0.31339876924E+02  0.34707381138E+02  0.00000000000E+00 0.  1.
         11    1    3    3    0    0 -0.42547751866E+02 -0.11489572072E+03 -0.69343575322E+02  0.14078305746E+03  0.00000000000E+00 0. -1.
</event>
<event>
 8    1  0.5900800E-006  0.1053745E+03  0.7561462E-02  0.1269384E+00
          2   -1    0    0  501    0  0.00000000000E+00  0.00000000000E+00  0.30146580253E+03  0.30146580253E+03  0.00000000000E+00 0. -1.
         -2   -1    0    0    0  501 -0.00000000000E+00 -0.00000000000E+00 -0.53905952589E+02  0.53905952589E+02  0.00000000000E+00 0.  1.
         23    2    1    2    0    0 -0.52886194623E+02  0.15869972986E+02  0.59064687975E+02  0.12250432089E+03  0.92031873001E+02 0.  0.
         23    2    1    2    0    0  0.52886194623E+02 -0.15869972986E+02  0.18849516197E+03  0.23286743423E+03  0.12509200699E+03 0.  0.
          5    1    4    4  502    0 -0.18310630594E+02 -0.28074568423E+02  0.14403641596E+03  0.14794398300E+03  0.41800000000E+01 0. -1.
         -5    1    4    4    0  502  0.71196825216E+02  0.12204595437E+02  0.44458746009E+02  0.84923451221E+02  0.41800000000E+01 0. -1.
        -11    1    3    3    0    0 -0.71717375145E+02  0.33194513950E+02  0.55727236086E+02  0.96699444134E+02  0.00000000000E+00 0. -1.
         11    1    3    3    0    0  0.18831180523E+02 -0.17324540964E+02  0.33374518883E+01  0.25804876760E+02  0.00000000000E+00 0.  1.
</event>
<event>
 8    1  0.5900800E-006  0.1248623E+03  0.7561462E-02  0.1235285E+00
          1   -1    0    0  501    0  0.00000000000E+00  0.00000000000E+00  0.84302555078E+03  0.84302555078E+03  0.00000000000E+00 0. -1.
         -1   -1    0    0    0  501 -0.00000000000E+00 -0.00000000000E+00 -0.39653742629E+02  0.39653742629E+02  0.00000000000E+00 0.  1.
         23    2    1    2    0    0  0.90945194182E+02 -0.45389560763E+02  0.13016832789E+03  0.19044936423E+03  0.94846856442E+02 0.  0.
         23    2    1    2    0    0 -0.90945194182E+02  0.45389560763E+02  0.67320348026E+03  0.69222992918E+03  0.12509239966E+03 0.  0.
          5    1    4    4  502    0 -0.10641071486E+03  0.12545248288E+02  0.32766196956E+03  0.34476145693E+03  0.41800000000E+01 0.  1.
         -5    1    4    4    0  502  0.15465520674E+02  0.32844312475E+02  0.34554151070E+03  0.34746847225E+03  0.41800000000E+01 0.  1.
        -11    1    3    3    0    0  0.73581329827E+02 -0.48751083627E+02  0.14338177948E+03  0.16837225110E+03  0.00000000000E+00 0. -1.
         11    1    3    3    0    0  0.17363864354E+02  0.33615228635E+01 -0.13213451585E+02  0.22077113128E+02  0.00000000000E+00 0.  1.
</event>
<event>
 8    1  0.5900800E-006  0.1612716E+03  0.7561462E-02  0.1187269E+00
         -1   -1    0    0    0  501 -0.00000000000E+00  0.00000000000E+00  0.22315339255E+02  0.22315339255E+02  0.00000000000E+00 0.  1.
          1   -1    0    0  501    0  0.00000000000E+00 -0.00000000000E+00 -0.16169740865E+04  0.16169740865E+04  0.00000000000E+00 0. -1.
         23    2    1    2    0    0 -0.10635038348E+03  0.10738486267E+03 -0.54738143346E+03  0.57379376776E+03  0.82285730356E+02 0.  0.
         23    2    1    2    0    0  0.10635038348E+03 -0.10738486267E+03 -0.10472773138E+04  0.10654956580E+04  0.12509721201E+03 0.  0.
          5    1    4    4  502    0 -0.99689196002E+00 -0.52286024444E+01 -0.45152667202E+03  0.45157739096E+03  0.41800000000E+01 0.  1.
         -5    1    4    4    0  502  0.10734727544E+03 -0.10215626023E+03 -0.59575064176E+03  0.61391826704E+03  0.41800000000E+01 0.  1.
        -11    1    3    3    0    0 -0.76357315673E+02  0.25787375351E+02 -0.19834878744E+03  0.21409733736E+03  0.00000000000E+00 0.  1.
         11    1    3    3    0    0 -0.29993067807E+02  0.81597487319E+02 -0.34903264602E+03  0.35969643040E+03  0.00000000000E+00 0. -1.
</event>
<event>
 8    1  0.5900800E-006  0.9618391E+02  0.7561462E-02  0.1288532E+00
          1   -1    0    0  501    0  0.00000000000E+00  0.00000000000E+00  0.64850550812E+03  0.64850550812E+03  0.00000000000E+00 0. -1.
         -1   -1    0    0    0  501 -0.00000000000E+00 -0.00000000000E+00 -0.26931037529E+02  0.26931037529E+02  0.00000000000E+00 0.  1.
         23    2    1    2    0    0 -0.24529925885E+02 -0.50161875882E+02  0.14943413669E+03  0.18382705470E+03  0.91344916520E+02 0.  0.
         23    2    1    2    0    0  0.24529925885E+02  0.50161875882E+02  0.47214033390E+03  0.49160949095E+03  0.12508183579E+03 0.  0.
          5    1    4    4  502    0 -0.32918199982E+02 -0.13746895683E+01  0.37253473081E+02  0.49907828224E+02  0.41800000000E+01 0.  1.
         -5    1    4    4    0  502  0.57448125868E+02  0.51536565451E+02  0.43488686082E+03  0.44170166273E+03  0.41800000000E+01 0.  1.
        -11    1    3    3    0    0 -0.33872582773E+02 -0.32439836163E+01  0.86112626404E+01  0.35100272615E+02  0.00000000000E+00 0.  1.
         11    1    3    3    0    0  0.93426568873E+01 -0.46917892266E+02  0.14082287405E+03  0.14872678208E+03  0.00000000000E+00 0. -1.
</event>
<event>
 7    1  0.5900800E-006  0.2581162E+03  0.7561462E-02  0.1108280E+00
          2   -1    0    0  501    0  0.00000000000E+00  0.00000000000E+00  0.97025944229E+03  0.97025944229E+03  0.00000000000E+00 0. -1.
         -2   -1    0    0    0  501 -0.00000000000E+00 -0.00000000000E+00 -0.88940471125E+02  0.88940471125E+02  0.00000000000E+00 0.  1.
         23    2    1    2    0    0  0.12861923224E+03 -0.50590459251E+02  0.19926794733E+03  0.25926589921E+03  0.91699455761E+02 0.  0.
          5    1    1    2  502    0 -0.23117782506E+03 -0.27341010338E+02  0.60855709659E+03  0.65157496105E+03  0.41800000000E+01 0. -1.
         -5    1    1    2    0  502  0.10255859282E+03  0.77931469589E+02  0.73493927234E+02  0.14835905316E+03  0.41800000000E+01 0.  1.
        -11    1    3    3    0    0  0.51715699188E+02 -0.57477211758E+02  0.52594740559E+02  0.93511230065E+02  0.00000000000E+00 0.  1.
         11    1    3    3    0    0  0.76903533053E+02  0.68867525065E+01  0.14667320678E+03  0.16575466914E+03  0.00000000000E+00 0. -1.
</event>
<event>
 8    1  0.5900800E-006  0.9982698E+02  0.7561462E-02  0.1280660E+00
         -1   -1    0    0    0  501 -0.00000000000E+00  0.00000000000E+00  0.11085475225E+02  0.11085475225E+02  0.00000000000E+00 0.  1.
          1   -1    0    0  501    0  0.00000000000E+00 -0.00000000000E+00 -0.11623272778E+04  0.11623272778E+04  0.00000000000E+00 0. -1.
         23    2    1    2    0    0 -0.96747727466E+01  0.14260041899E+01 -0.33602768448E+03  0.34859977639E+03  0.92258141364E+02 0.  0.
         23    2    1    2    0    0  0.96747727466E+01 -0.14260041899E+01 -0.81521411810E+03  0.82481297664E+03  0.12508698320E+03 0.  0.
          5    1    4    4  502    0  0.45153620157E+02  0.35973369278E+02 -0.22460225436E+03  0.23194089284E+03  0.41800000000E+01 0.  1.
         -5    1    4    4    0  502 -0.35478847410E+02 -0.37399373468E+02 -0.59061186374E+03  0.59287208379E+03  0.41800000000E+01 0.  1.
        -11    1    3    3    0    0 -0.44564777331E+02  0.21839502397E+02 -0.22591100520E+03  0.23129800154E+03  0.00000000000E+00 0. -1.
         11    1    3    3    0    0  0.34890004585E+02 -0.20413498207E+02 -0.11011667928E+03  0.11730177485E+03  0.00000000000E+00 0.  1.
</event>
<event>
 8    1  0.5900800E-006  0.2551037E+03  0.7561462E-02  0.1110121E+00
         -1   -1    0    0    0  501 -0.00000000000E+00  0.00000000000E+00  0.16846806056E+03  0.16846806056E+03  0.00000000000E+00 0.  1.
          1   -1    0    0  501    0  0.00000000000E+00 -0.00000000000E+00 -0.48149209984E+03  0.48149209984E+03  0.00000000000E+00 0. -1.
         23    2    1    2    0    0  0.33814591226E+02  0.25028159423E+03 -0.69488875898E+02  0.27747475816E+03  0.91538159013E+02 0.  0.
         23    2    1    2    0    0 -0.33814591226E+02 -0.25028159423E+03 -0.24353516338E+03  0.37248540224E+03  0.12510673880E+03 0.  0.
          5    1    4    4  502    0 -0.29907643098E+02 -0.18662035493E+03 -0.96705382756E+02  0.21234647971E+03  0.41800000000E+01 0. -1.
         -5    1    4    4    0  502 -0.39069481280E+01 -0.63661239297E+02 -0.14682978063E+03  0.16013892254E+03  0.41800000000E+01 0. -1.
        -11    1    3    3    0    0  0.25277471508E+02  0.43702909296E+02  0.17123047082E+02  0.53311289500E+02  0.00000000000E+00 0.  1.
         11    1    3    3    0    0  0.85371197179E+01  0.20657868493E+03 -0.86611922980E+02  0.22416346866E+03  0.00000000000E+00 0. -1.
</event>
<event>
 8    1  0.5900800E-006  0.7663470E+02  0.7561462E-02  0.1338882E+00
          2   -1    0    0  501    0  0.00000000000E+00  0.00000000000E+00  0.84379687414E+02  0.84379687414E+02  0.00000000000E+00 0. -1.
         -2   -1    0    0    0  501 -0.00000000000E+00 -0.00000000000E+00 -0.17466616529E+03  0.17466616529E+03  0.00000000000E+00 0.  1.
         23    2    1    2    0    0  0.23625004423E+01 -0.19999703880E+02 -0.94790138139E+02  0.13227212984E+03  0.90028753626E+02 0.  0.
         23    2    1    2    0    0 -0.23625004423E+01  0.19999703880E+02  0.45036602650E+01  0.12677372287E+03  0.12508286969E+03 0.  0.
          5    1    4    4  502    0  0.40292385232E+02  0.19093506984E+02  0.48038706322E+02  0.65675170511E+02  0.41800000000E+01 0. -1.
         -5    1    4    4    0  502 -0.42654885674E+02  0.90619689661E+00 -0.43535046057E+02  0.61098552355E+02  0.41800000000E+01 0. -1.
        -11    1    3    3    0    0 -0.25243421116E+00  0.22768354100E+02  0.53154395174E+01  0.23381949634E+02  0.00000000000E+00 0. -1.
         11    1    3    3    0    0  0.26149346535E+01 -0.42768057980E+02 -0.10010557766E+03  0.10889018020E+03  0.00000000000E+00 0.  1.
</event>
<event>
 8    1  0.5900800E-006  0.2414403E+03  0.7561462E-02  0.1118837E+00
         -1   -1    0    0    0  501 -0.00000000000E+00  0.00000000000E+00  0.36692486771E+02  0.36692486771E+02  0.00000000000E+00 0.  1.
          1   -1    0    0  501    0  0.00000000000E+00 -0.00000000000E+00 -0.18582352597E+04  0.18582352597E+04  0.00000000000E+00 0. -1.
         23    2    1    2    0    0 -0.15986123076E+03 -0.16392124593E+03 -0.66177022775E+03  0.70616940145E+03  0.91157014189E+02 0.  0.
         23    2    1    2    0    0  0.15986123076E+03  0.16392124593E+03 -0.11597725451E+04  0.11887583450E+04  0.12509299880E+03 0.  0.
          5    1    4    4  502    0  0.98459206061E+02  0.15251598054E+03 -0.64100304476E+03  0.66622647454E+03  0.41800000000E+01 0.  1.
         -5    1    4    4    0  502  0.61402024699E+02  0.11405265390E+02 -0.51876950038E+03  0.52253187045E+03  0.41800000000E+01 0.  1.
        -11    1    3    3    0    0 -0.28208680716E+02  0.32037413850E+00 -0.34744475282E+02  0.44755009440E+02  0.00000000000E+00 0.  1.
         11    1    3    3    0    0 -0.13165255004E+03 -0.16424162006E+03 -0.62702575247E+03  0.66141439201E+03  0.00000000000E+00 0. -1.
</event>
<event>
 8    1  0.5900800E-006  0.1077228E+03  0.7561462E-02  0.1264846E+00
          2   -1    0    0  501    0  0.00000000000E+00  0.00000000000E+00  0.80515181982E+03  0.80515181982E+03  0.00000000000E+00 0. -1.
         -2   -1    0    0    0  501 -0.00000000000E+00 -0.00000000000E+00 -0.16959270271E+02  0.16959270271E+02  0.00000000000E+00 0.  1.
         23    2    1    2    0    0  0.16779949997E+02  0.17944776217E+02  0.21194756144E+03  0.23193396436E+03  0.90928616553E+02 0.  0.
         23    2    1    2    0    0 -0.16779949997E+02 -0.17944776217E+02  0.57624498811E+03  0.59017712573E+03  0.12508865536E+03 0.  0.
          5    1    4    4  502    0 -0.66084106582E+02  0.14971647121E+02  0.29240704152E+03  0.30018429288E+03  0.41800000000E+01 0. -1.
         -5    1    4    4    0  502  0.49304156585E+02 -0.32916423338E+02  0.28383794659E+03  0.28999283285E+03  0.41800000000E+01 0. -1.
        -11    1    3    3    0    0  0.45497717531E+02  0.32518851242E+02  0.91336457858E+02  0.10709746272E+03  0.00000000000E+00 0.  1.
         11    1    3    3    0    0 -0.28717767534E+02 -0.14574075025E+02  0.12061110358E+03  0.12483650164E+03  0.00000000000E+00 0. -1.
</event>
<event>
 8    1  0.5900800E-006  0.9314197E+02  0.7561462E-02  0.1295417E+00
          1   -1    0    0  501    0  0.00000000000E+00  0.00000000000E+00  0.53609342565E+03  0.53609342565E+03  0.00000000000E+00 0. -1.
         -1   -1    0    0    0  501 -0.00000000000E+00 -0.00000000000E+00 -0.39452645114E+02  0.39452645114E+02  0.00000000000E+00 0.  1.
         23    2    1    2    0    0 -0.36070689037E+02 -0.70331761967E+02  0.11711671691E+03  0.16819533097E+03  0.91245233475E+02 0.  0.
         23    2    1    2    0    0  0.36070689037E+02  0.70331761967E+02  0.37952406363E+03  0.40735073980E+03  0.12509380076E+03 0.  0.
          5    1    4    4  502    0  0.54582746170E+02  0.32441841609E+02  0.68666131104E+02  0.93617622418E+02  0.41800000000E+01 0.  1.
         -5    1    4    4    0  502 -0.18512057134E+02  0.37889920358E+02  0.31085793253E+03  0.31373311738E+03  0.41800000000E+01 0.  1.
        -11    1    3    3    0    0 -0.54956272736E+01 -0.24982273003E+02 -0.11789677577E+02  0.28165801620E+02  0.00000000000E+00 0.  1.
         11    1    3    3    0    0 -0.30575061763E+02 -0.45349488964E+02  0.12890639448E+03  0.14002952935E+03  0.00000000000E+00 0. -1.
</event>
<event>
 8    1  0.5900800E-006  0.9220297E+02  0.7561462E-02  0.1297603E+00
         -2   -1    0    0    0  501 -0.00000000000E+00  0.00000000000E+00  0.22298343896E+03  0.22298343896E+03  0.00000000000E+00 0.  1.
          2   -1    0    0  501    0  0.00000000000E+00 -0.00000000000E+00 -0.59152587778E+02  0.59152587778E+02  0.00000000000E+00 0. -1.
         23    2    1    2    0    0 -0.73993588677E+01 -0.28708824275E+02  0.97170171588E+02  0.13732421040E+03  0.92395613606E+02 0.  0.
         23    2    1    2    0    0  0.73993588677E+01  0.28708824275E+02  0.66660679589E+02  0.14481181633E+03  0.12509144192E+03 0.  0.
          5    1    4    4  502    0  0.29320360445E+02 -0.18914225104E+02  0.82676487683E+02  0.89834878881E+02  0.41800000000E+01 0. -1.
         -5    1    4    4    0  502 -0.21921001578E+02  0.47623049379E+02 -0.16015808094E+02  0.54976937449E+02  0.41800000000E+01 0. -1.
        -11    1    3    3    0    0 -0.37475234992E+02  0.17640889835E+02  0.47559258332E+02  0.63067244152E+02  0.00000000000E+00 0.  1.
         11    1    3    3    0    0  0.30075876124E+02 -0.46349714110E+02  0.49610913256E+02  0.74256966251E+02  0.00000000000E+00 0. -1.
</event>
<event>
 8    1  0.5900800E-006  0.8769487E+02  0.7561462E-02  0.1308532E+00
          1   -1    0    0  501    0  0.00000000000E+00  0.00000000000E+00  0.22763620277E+03  0.22763620277E+03  0.00000000000E+00 0. -1.
         -1   -1    0    0    0  501 -0.00000000000E+00 -0.00000000000E+00 -0.11591120429E+03  0.11591120429E+03  0.00000000000E+00 0.  1.
         23    2    1    2    0    0  0.60595239607E+02  0.56707228973E+02 -0.45586606534E+02  0.12610075184E+03  0.83281258634E+02 0.  0.
         23    2    1    2    0    0 -0.60595239607E+02 -0.56707228973E+02  0.15731160502E+03  0.21744665522E+03  0.12509441998E+03 0.  0.
          5    1    4    4  502    0 -0.18000211443E+02 -0.42480834361E+02  0.16527690087E+03  0.17164659991E+03  0.41800000000E+01 0. -1.
         -5    1    4    4    0  502 -0.42595028164E+02 -0.14226394612E+02 -0.79652958529E+01  0.45800055305E+02  0.41800000000E+01 0. -1.
        -11    1    3    3    0    0  0.38133098432E+02  0.43726538159E+02 -0.69696029325E+02  0.90684507161E+02  0.00000000000E+00 0.  1.
         11    1    3    3    0    0  0.22462141175E+02  0.12980690815E+02  0.24109422791E+02  0.35416244683E+02  0.00000000000E+00 0. -1.
</event>
<event>
 7    1  0.5900800E-006  0.1054577E+03  0.7561462E-02  0.1269220E+00
         -1   -1    0    0    0  501 -0.00000000000E+00  0.00000000000E+00  0.33064850020E+02  0.33064850020E+02  0.00000000000E+00 0.  1.
          1   -1    0    0  501    0  0.00000000000E+00 -0.00000000000E+00 -0.10472805444E+04  0.10472805444E+04  0.00000000000E+00 0. -1.
         23    2    1    2    0    0  0.27143485462E+02 -0.12190756631E+02 -0.59942858897E+02  0.11431586628E+03  0.92680028050E+02 0.  0.
          5    1    1    2  502    0 -0.69005619636E+02 -0.23401822193E+02 -0.27484746134E+03  0.28437303007E+03  0.41800000000E+01 0. -1.
         -5    1    1    2    0  502  0.41862134175E+02  0.35592578825E+02 -0.67942537416E+03  0.68165649809E+03  0.41800000000E+01 0.  1.
        -11    1    3    3    0    0 -0.19024610431E+02  0.19172531072E+02 -0.51109774209E+02  0.57807705104E+02  0.00000000000E+00 0. -1.
         11    1    3    3    0    0  0.46168095893E+02 -0.31363287703E+02 -0.88330846888E+01  0.56508161172E+02  0.00000000000E+00 0.  1.
</event>
<event>
 8    1  0.5900800E-006  0.1279516E+03  0.7561462E-02  0.1230527E+00
         -2   -1    0    0    0  501 -0.00000000000E+00  0.00000000000E+00  0.43328380024E+02  0.43328380024E+02  0.00000000000E+00 0.  1.
          2   -1    0    0  501    0  0.00000000000E+00 -0.00000000000E+00 -0.80892719319E+03  0.80892719319E+03  0.00000000000E+00 0. -1.
         23    2    1    2    0    0  0.18502932823E+02  0.95591515690E+02 -0.83020386724E+02  0.15151189696E+03  0.81137993038E+02 0.  0.
         23    2    1    2    0    0 -0.18502932823E+02 -0.95591515690E+02 -0.68257842645E+03  0.70074367626E+03  0.12509314597E+03 0.  0.
          5    1    4    4  502    0 -0.53817924504E+02 -0.10719460083E+03 -0.55299437389E+03  0.56586862556E+03  0.41800000000E+01 0. -1.
         -5    1    4    4    0  502  0.35314991681E+02  0.11603085140E+02 -0.12958405256E+03  0.13487505070E+03  0.41800000000E+01 0. -1.
        -11    1    3    3    0    0 -0.16224348597E+01  0.25573328619E+02 -0.73745636985E+02  0.78070778181E+02  0.00000000000E+00 0. -1.
         11    1    3    3    0    0  0.20125367682E+02  0.70018187070E+02 -0.92747497389E+01  0.73441118780E+02  0.00000000000E+00 0.  1.
</event>
<event>
 8    1  0.5900800E-006  0.8232423E+02  0.7561462E-02  0.1322582E+00
         -2   -1    0    0    0  501 -0.00000000000E+00  0.00000000000E+00  0.32904148586E+02  0.32904148586E+02  0.00000000000E+00 0.  1.
          2   -1    0    0  501    0  0.00000000000E+00 -0.00000000000E+00 -0.41027847777E+03  0.41027847777E+03  0.00000000000E+00 0. -1.
         23    2    1    2    0    0  0.69829364735E+01 -0.24221166784E+01 -0.84149287525E+02  0.12430361459E+03  0.91190229515E+02 0.  0.
         23    2    1    2    0    0 -0.69829364735E+01  0.24221166784E+01 -0.29322504166E+03  0.31887901176E+03  0.12509304951E+03 0.  0.
          5    1    4    4  502    0  0.32508776331E+02 -0.93722829834E+01 -0.26845688329E+03  0.27061269522E+03  0.41800000000E+01 0. -1.
         -5    1    4    4    0  502 -0.39491712805E+02  0.11794399662E+02 -0.24768158362E+02  0.48266316539E+02  0.41800000000E+01 0. -1.
        -11    1    3    3    0    0 -0.38922626102E+02 -0.14710618902E+02 -0.25436500760E+02  0.48768726681E+02  0.00000000000E+00 0.  1.
         11    1    3    3    0    0  0.45905562575E+02  0.12288502224E+02 -0.58712786764E+02  0.75534887912E+02  0.00000000000E+00 0. -1.
</event>
<event>
 8    1  0.5900800E-006  0.9921950E+02  0.7561462E-02  0.1281946E+00
          2   -1    0    0  501    0  0.00000000000E+00  0.00000000000E+00  0.67027920407E+02  0.67027920407E+02  0.00000000000E+00 0. -1.
         -2   -1    0    0    0  501 -0.00000000000E+00 -0.00000000000E+00 -0.22480259629E+03  0.22480259629E+03  0.00000000000E+00 0.  1.
         23    2    1    2    0    0 -0.15590043961E+02  0.39362480651E+02 -0.11613308925E+03  0.15336034196E+03  0.90774697534E+02 0.  0.
         23    2    1    2    0    0  0.15590043961E+02 -0.39362480651E+02 -0.41641586629E+02  0.13847017474E+03  0.12509002039E+03 0.  0.
          5    1    4    4  502    0  0.64410606027E+02 -0.46258475087E+02 -0.40107457787E+02  0.88964336991E+02  0.41800000000E+01 0.  1.
         -5    1    4    4    0  502 -0.48820562066E+02  0.68959944365E+01 -0.15341288423E+01  0.49505837747E+02  0.41800000000E+01 0.  1.
        -11    1    3    3    0    0 -0.14553073254E+01  0.51132219370E+02 -0.12340103165E+03  0.13358306925E+03  0.00000000000E+00 0.  1.
         11    1    3    3    0    0 -0.14134736636E+02 -0.11769738720E+02  0.72679423957E+01  0.19777272713E+02  0.00000000000E+00 0. -1.
</event>
<event>
 8    1  0.5900800E-006  0.1308797E+03  0.7561462E-02  0.1226156E+00
          1   -1    0    0  501    0  0.00000000000E+00  0.00000000000E+00  0.39873904490E+02  0.39873904490E+02  0.00000000000E+00 0. -1.
         -1   -1    0    0    0  501 -0.00000000000E+00 -0.00000000000E+00 -0.47505610983E+03  0.47505610983E+03  0.00000000000E+00 0.  1.
         23    2    1    2    0    0 -0.54375895720E+02 -0.64772000160E+02 -0.21447750624E+03  0.24753012230E+03  0.90102223755E+02 0.  0.
         23    2    1    2    0    0  0.54375895720E+02  0.64772000160E+02 -0.22070469910E+03  0.26739989201E+03  0.12505993765E+03 0.  0.
          5    1    4    4  502    0  0.57245555669E+02  0.99904198928E+02 -0.16192232414E+03  0.19873151250E+03  0.41800000000E+01 0.  1.
         -5    1    4    4    0  502 -0.28696599491E+01 -0.35132198768E+02 -0.58782374960E+02  0.68668379509E+02  0.41800000000E+01 0.  1.
        -11    1    3    3    0    0  0.14680600328E+02 -0.30722319611E+02 -0.22831235896E+02  0.40995686124E+02  0.00000000000E+00 0.  1.
         11    1    3    3    0    0 -0.69056496049E+02 -0.34049680550E+02 -0.19164627034E+03  0.20653443618E+03  0.00000000000E+00 0. -1.
</event>
<event>
 8    1  0.5900800E-006  0.1059349E+03  0.7561462E-02  0.1268289E+00
          3   -1    0    0  501    0  0.00000000000E+00  0.00000000000E+00  0.14851326285E+03  0.14851326285E+03  0.00000000000E+00 0. -1.
         -3   -1    0    0    0  501 -0.00000000000E+00 -0.00000000000E+00 -0.95724668845E+02  0.95724668845E+02  0.00000000000E+00 0.  1.
         23    2    1    2    0    0  0.57072958579E+02  0.66070505245E+01 -0.27987090367E+02  0.84640325738E+02  0.55495331301E+02 0.  0.
         23    2    1    2    0    0 -0.57072958579E+02 -0.66070505245E+01  0.80775684371E+02  0.15959760596E+03  0.12508280827E+03 0.  0.
          5    1    4    4  502    0 -0.69691753080E+02  0.42489523953E+02  0.69988784703E+02  0.10760205610E+03  0.41800000000E+01 0. -1.
         -5    1    4    4    0  502  0.12618794501E+02 -0.49096574478E+02  0.10786899667E+02  0.51995549853E+02  0.41800000000E+01 0. -1.
        -11    1    3    3    0    0  0.35576138366E+02  0.30696817278E+02 -0.11444992432E+02  0.48362630861E+02  0.00000000000E+00 0.  1.
         11    1    3    3    0    0  0.21496820213E+02 -0.24089766753E+02 -0.16542097935E+02  0.36277694877E+02  0.00000000000E+00 0. -1.
</event>
<event>
 8    1  0.5900800E-006  0.1079095E+03  0.7561462E-02  0.1264491E+00
         -2   -1    0    0    0  501 -0.00000000000E+00  0.00000000000E+00  0.18070664753E+02  0.18070664753E+02  0.00000000000E+00 0. -1.
          2   -1    0    0  501    0  0.00000000000E+00 -0.00000000000E+00 -0.79135842015E+03  0.79135842015E+03  0.00000000000E+00 0.  1.
         23    2    1    2    0    0  0.36594108053E+02 -0.14837827884E+01 -0.21978087607E+03  0.24078261905E+03  0.91275986947E+02 0.  0.
         23    2    1    2    0    0 -0.36594108053E+02  0.14837827884E+01 -0.55350687932E+03  0.56864646585E+03  0.12509039657E+03 0.  0.
          5    1    4    4  502    0 -0.43601116965E+02 -0.56326085020E+02 -0.33142333866E+03  0.33901708964E+03  0.41800000000E+01 0. -1.
         -5    1    4    4    0  502  0.70070089119E+01  0.57809867809E+02 -0.22208354066E+03  0.22962937621E+03  0.41800000000E+01 0. -1.
        -11    1    3    3    0    0  0.48811106910E+02 -0.28437354094E+02 -0.19219875521E+03  0.20032865190E+03  0.00000000000E+00 0.  1.
         11    1    3    3    0    0 -0.12216998857E+02  0.26953571306E+02 -0.27582120863E+02  0.40453967154E+02  0.00000000000E+00 0. -1.
</event>
<event>
 8    1  0.5900800E-006  0.1081104E+03  0.7561462E-02  0.1264110E+00
          2   -1    0    0  501    0  0.00000000000E+00  0.00000000000E+00  0.43029289477E+03  0.43029289477E+03  0.00000000000E+00 0. -1.
         -2   -1    0    0    0  501 -0.00000000000E+00 -0.00000000000E+00 -0.33598480825E+02  0.33598480825E+02  0.00000000000E+00 0.  1.
         23    2    1    2    0    0  0.45500640905E+02 -0.25625054013E+02  0.16151437321E+03  0.19244446314E+03  0.90669878823E+02 0.  0.
         23    2    1    2    0    0 -0.45500640905E+02  0.25625054013E+02  0.23518004074E+03  0.27144691245E+03  0.12508726155E+03 0.  0.
          5    1    4    4  502    0  0.22021582487E+02  0.38451477242E+02  0.26727467087E+02  0.51916241141E+02  0.41800000000E+01 0. -1.
         -5    1    4    4    0  502 -0.67522223392E+02 -0.12826423229E+02  0.20845257365E+03  0.21953067131E+03  0.41800000000E+01 0. -1.
        -11    1    3    3    0    0  0.54303887754E+02  0.18877499381E+02  0.72422477745E+02  0.92467764604E+02  0.00000000000E+00 0.  1.
         11    1    3    3    0    0 -0.88032468486E+01 -0.44502553394E+02  0.89091895463E+02  0.99976698540E+02  0.00000000000E+00 0. -1.
</event>
<event>
 8    1  0.5900800E-006  0.9099338E+02  0.7561462E-02  0.1300464E+00
         -2   -1    0    0    0  501 -0.00000000000E+00  0.00000000000E+00  0.69382511923E+02  0.69382511923E+02  0.00000000000E+00 0.  1.
          2   -1    0    0  501    0  0.00000000000E+00 -0.00000000000E+00 -0.22726123276E+03  0.22726123276E+03  0.00000000000E+00 0. -1.
         23    2    1    2    0    0  0.53900061202E+02 -0.32981408553E+02 -0.50237992408E+02  0.11993248039E+03  0.88695851442E+02 0.  0.
         23    2    1    2    0    0 -0.53900061202E+02  0.32981408553E+02 -0.10764072843E+03  0.17671126430E+03  0.12508938646E+03 0.  0.
          5    1    4    4  502    0 -0.63849942080E+02  0.29745022109E+02 -0.13210948510E+03  0.14977306132E+03  0.41800000000E+01 0. -1.
         -5    1    4    4    0  502  0.99498808778E+01  0.32363864436E+01  0.24468756669E+02  0.26938202977E+02  0.41800000000E+01 0. -1.
        -11    1    3    3    0    0  0.74130375475E+02 -0.28612463745E+02 -0.17761049123E+02  0.81421376282E+02  0.00000000000E+00 0.  1.
         11    1    3    3    0    0 -0.20230314273E+02 -0.43689448075E+01 -0.32476943285E+02  0.38511104106E+02  0.00000000000E+00 0. -1.
</event>
<event>
 8    1  0.5900800E-006  0.1352370E+03  0.7561462E-02  0.1219885E+00
         -3   -1    0    0    0  501 -0.00000000000E+00  0.00000000000E+00  0.19053238904E+03  0.19053238904E+03  0.00000000000E+00 0.  1.
          3   -1    0    0  501    0  0.00000000000E+00 -0.00000000000E+00 -0.15806019916E+03  0.15806019916E+03  0.00000000000E+00 0. -1.
         23    2    1    2    0    0  0.11292253137E+03  0.72468353745E+02  0.25642346301E+02  0.16502351403E+03  0.92585473334E+02 0.  0.
         23    2    1    2    0    0 -0.11292253137E+03 -0.72468353745E+02  0.68298435754E+01  0.18356907417E+03  0.12509115814E+03 0.  0.
          5    1    4    4  502    0 -0.66203525016E+01 -0.97014346766E+01 -0.47148847638E+02  0.48769182233E+02  0.41800000000E+01 0. -1.
         -5    1    4    4    0  502 -0.10630217887E+03 -0.62766919068E+02  0.53978691214E+02  0.13479989194E+03  0.41800000000E+01 0. -1.
        -11    1    3    3    0    0  0.28568740841E+02  0.23172750494E+02  0.52123565660E+02  0.63796672451E+02  0.00000000000E+00 0.  1.
         11    1    3    3    0    0  0.84353790533E+02  0.49295603251E+02 -0.26481219360E+02  0.10122684158E+03  0.00000000000E+00 0. -1.
</event>
<event>
 8    1  0.5900800E-006  0.2494398E+03  0.7561462E-02  0.1113659E+00
          1   -1    0    0  501    0  0.00000000000E+00  0.00000000000E+00  0.42248306814E+03  0.42248306814E+03  0.00000000000E+00 0. -1.
         -1   -1    0    0    0  501 -0.00000000000E+00 -0.00000000000E+00 -0.18391998293E+03  0.18391998293E+03  0.00000000000E+00 0.  1.
         23    2    1    2    0    0  0.13849786199E+03 -0.18767993394E+03  0.37160406239E+00  0.25032986512E+03  0.90881724784E+02 0.  0.
         23    2    1    2    0    0 -0.13849786199E+03  0.18767993394E+03  0.23819148115E+03  0.35607318595E+03  0.12509003429E+03 0.  0.
          5    1    4    4  502    0 -0.15575586143E+03  0.12820572374E+03  0.19372519219E+03  0.27972042910E+03  0.41800000000E+01 0.  1.
         -5    1    4    4    0  502  0.17257999438E+02  0.59474210202E+02  0.44466288960E+02  0.76352756844E+02  0.41800000000E+01 0.  1.
        -11    1    3    3    0    0  0.12307140076E+02 -0.34144170530E+02  0.32851191194E+02  0.48953966549E+02  0.00000000000E+00 0.  1.
         11    1    3    3    0    0  0.12619072191E+03 -0.15353576341E+03 -0.32479587132E+02  0.20137589857E+03  0.00000000000E+00 0. -1.
</event>
<event>
 8    1  0.5900800E-006  0.1283839E+03  0.7561462E-02  0.1229874E+00
         -2   -1    0    0    0  501 -0.00000000000E+00  0.00000000000E+00  0.15221075507E+02  0.15221075507E+02  0.00000000000E+00 0. -1.
          2   -1    0    0  501    0  0.00000000000E+00 -0.00000000000E+00 -0.11543166109E+04  0.11543166109E+04  0.00000000000E+00 0.  1.
         23    2    1    2    0    0  0.74230148356E+02 -0.61520869310E+01 -0.39373320456E+03  0.41009012575E+03  0.87178619915E+02 0.  0.
         23    2    1    2    0    0 -0.74230148356E+02  0.61520869310E+01 -0.74536233087E+03  0.75944756069E+03  0.12509048748E+03 0.  0.
          5    1    4    4  502    0 -0.46597594367E+02 -0.57074252532E+02 -0.45664885737E+03  0.46257373190E+03  0.41800000000E+01 0. -1.
         -5    1    4    4    0  502 -0.27632553989E+02  0.63226339463E+02 -0.28871347349E+03  0.29687382879E+03  0.41800000000E+01 0. -1.
        -11    1    3    3    0    0 -0.19721437860E+02 -0.13313758426E+01 -0.51520645817E+02  0.55182285366E+02  0.00000000000E+00 0. -1.
         11    1    3    3    0    0  0.93951586215E+02 -0.48207110883E+01 -0.34221255874E+03  0.35490784039E+03  0.00000000000E+00 0.  1.
</event>
<event>
 8    1  0.5900800E-006  0.8762480E+02  0.7561462E-02  0.1308708E+00
          3   -1    0    0  501    0  0.00000000000E+00  0.00000000000E+00  0.33334673294E+03  0.33334673294E+03  0.00000000000E+00 0. -1.
         -3   -1    0    0    0  501 -0.00000000000E+00 -0.00000000000E+00 -0.42238359886E+02  0.42238359886E+02  0.00000000000E+00 0.  1.
         23    2    1    2    0    0 -0.45629082323E+02 -0.52445709911E+01  0.11278617408E+03  0.15297249801E+03  0.92576160035E+02 0.  0.
         23    2    1    2    0    0  0.45629082323E+02  0.52445709911E+01  0.17832219898E+03  0.22261259481E+03  0.12509213422E+03 0.  0.
          5    1    4    4  502    0 -0.15609188264E+02 -0.27897023735E+02  0.13868151658E+03  0.14237951444E+03  0.41800000000E+01 0.  1.
         -5    1    4    4    0  502  0.61238270587E+02  0.33141594726E+02  0.39640682400E+02  0.80233080376E+02  0.41800000000E+01 0.  1.
        -11    1    3    3    0    0 -0.46650465449E+02 -0.25369933317E+02  0.18003866366E+02  0.56071727700E+02  0.00000000000E+00 0.  1.
         11    1    3    3    0    0  0.10213831255E+01  0.20125362326E+02  0.94782307711E+02  0.96900770313E+02  0.00000000000E+00 0. -1.
</event>
<event>
 8    1  0.5900800E-006  0.1028223E+03  0.7561462E-02  0.1274471E+00
          2   -1    0    0  501    0  0.00000000000E+00  0.00000000000E+00  0.12376655908E+03  0.12376655908E+03  0.00000000000E+00 0. -1.
         -2   -1    0    0    0  501 -0.00000000000E+00 -0.00000000000E+00 -0.99397152314E+02  0.99397152314E+02  0.00000000000E+00 0.  1.
         23    2    1    2    0    0 -0.15882968205E+02  0.20195265263E+02  0.69979664537E+01  0.94286161547E+02  0.90447726930E+02 0.  0.
         23    2    1    2    0    0  0.15882968205E+02 -0.20195265263E+02  0.17371440314E+02  0.12887754985E+03  0.12509012151E+03 0.  0.
          5    1    4    4  502    0  0.61137611762E+02 -0.24495743732E+02 -0.20986486004E+02  0.69251382858E+02  0.41800000000E+01 0. -1.
         -5    1    4    4    0  502 -0.45254643558E+02  0.43004784687E+01  0.38357926318E+02  0.59626166991E+02  0.41800000000E+01 0. -1.
        -11    1    3    3    0    0  0.31448895597E+02 -0.15168165965E+02  0.36866468623E+01  0.35109794333E+02  0.00000000000E+00 0.  1.
         11    1    3    3    0    0 -0.47331863802E+02  0.35363431229E+02  0.33113195914E+01  0.59176367214E+02  0.00000000000E+00 0. -1.
</event>
<event>
 7    1  0.5900800E-006  0.1675019E+03  0.7561462E-02  0.1180478E+00
         -2   -1    0    0    0  501 -0.00000000000E+00  0.00000000000E+00  0.19844990725E+03  0.19844990725E+03  0.00000000000E+00 0.  1.
          2   -1    0    0  501    0  0.00000000000E+00 -0.00000000000E+00 -0.25847172284E+03  0.25847172284E+03  0.00000000000E+00 0. -1.
         23    2    1    2    0    0  0.14948475454E+02  0.74538820977E+02  0.12179448931E+03  0.17055937875E+03  0.92071229496E+02 0.  0.
          5    1    1    2  502    0 -0.73492050619E+02  0.45161325490E+02 -0.88349135550E+02  0.12354622203E+03  0.41800000000E+01 0. -1.
         -5    1    1    2    0  502  0.58543575164E+02 -0.11970014647E+03 -0.93467169350E+02  0.16281602932E+03  0.41800000000E+01 0.  1.
        -11    1    3    3    0    0 -0.36518061955E+02  0.32109803013E+02  0.73822560315E+02  0.88398974597E+02  0.00000000000E+00 0. -1.
         11    1    3    3    0    0  0.51466537409E+02  0.42429017964E+02  0.47971928996E+02  0.82160404149E+02  0.00000000000E+00 0.  1.
</event>
<event>
 8    1  0.5900800E-006  0.8760419E+02  0.7561462E-02  0.1308759E+00
          1   -1    0    0  501    0  0.00000000000E+00  0.00000000000E+00  0.36201395373E+02  0.36201395373E+02  0.00000000000E+00 0. -1.
         -1   -1    0    0    0  501 -0.00000000000E+00 -0.00000000000E+00 -0.47403040889E+03  0.47403040889E+03  0.00000000000E+00 0.  1.
         23    2    1    2    0    0  0.47353456483E+02  0.29356154423E+02 -0.28666083545E+03  0.30584882569E+03  0.90911693164E+02 0.  0.
         23    2    1    2    0    0 -0.47353456483E+02 -0.29356154423E+02 -0.15116817806E+03  0.20438297857E+03  0.12576346936E+03 0.  0.
          5    1    4    4  502    0 -0.45494287595E+02  0.63221786702E+01  0.28605495830E+01  0.46209904683E+02  0.41800000000E+01 0.  1.
         -5    1    4    4    0  502 -0.18591688880E+01 -0.35678333093E+02 -0.15402872765E+03  0.15817307388E+03  0.41800000000E+01 0.  1.
        -11    1    3    3    0    0 -0.81503163510E+01  0.36278625371E+02 -0.19465847780E+03  0.19817792333E+03  0.00000000000E+00 0.  1.
         11    1    3    3    0    0  0.55503772834E+02 -0.69224709479E+01 -0.92002357646E+02  0.10767090236E+03  0.00000000000E+00 0. -1.
</event>
<event>
 8    1  0.5900800E-006  0.1303104E+03  0.7561462E-02  0.1226996E+00
         -2   -1    0    0    0  501 -0.00000000000E+00  0.00000000000E+00  0.22894333050E+03  0.22894333050E+03  0.00000000000E+00 0. -1.
          2   -1    0    0  501    0  0.00000000000E+00 -0.00000000000E+00 -0.21482155246E+03  0.21482155246E+03  0.00000000000E+00 0.  1.
         23    2    1    2    0    0  0.31989275773E+02  0.70165817340E+02  0.18428551597E+03  0.21893426304E+03  0.89579598388E+02 0.  0.
         23    2    1    2    0    0 -0.31989275773E+02 -0.70165817340E+02 -0.17016373793E+03  0.22483061992E+03  0.12508618732E+03 0.  0.
          5    1    4    4  502    0  0.24893865332E+02  0.22753445135E+02 -0.20580194291E+02  0.39729593425E+02  0.41800000000E+01 0. -1.
         -5    1    4    4    0  502 -0.56883141105E+02 -0.92919262475E+02 -0.14958354364E+03  0.18510102649E+03  0.41800000000E+01 0. -1.
        -11    1    3    3    0    0  0.50272728384E+02  0.56935165522E+01  0.68583589336E+02  0.85226005868E+02  0.00000000000E+00 0.  1.
         11    1    3    3    0    0 -0.18283452611E+02  0.64472300787E+02  0.11570192663E+03  0.13370825717E+03  0.00000000000E+00 0. -1.
</event>
<event>
 8    1  0.5900800E-006  0.3433285E+03  0.7561462E-02  0.1065387E+00
         -1   -1    0    0    0  501 -0.00000000000E+00  0.00000000000E+00  0.17167859589E+03  0.17167859589E+03  0.00000000000E+00 0.  1.
          1   -1    0    0  501    0  0.00000000000E+00 -0.00000000000E+00 -0.12202958097E+04  0.12202958097E+04  0.00000000000E+00 0. -1.
         23    2    1    2    0    0 -0.30872793520E+03  0.11752625600E+03 -0.67618644001E+02  0.34931852771E+03  0.91245788729E+02 0.  0.
         23    2    1    2    0    0  0.30872793520E+03 -0.11752625600E+03 -0.98099856979E+03  0.10426558779E+04  0.12509087458E+03 0.  0.
          5    1    4    4  502    0  0.19613409375E+03 -0.12608518962E+03 -0.75143327316E+03  0.78678808722E+03  0.41800000000E+01 0. -1.
         -5    1    4    4    0  502  0.11259384145E+03  0.85589336157E+01 -0.22956529663E+03  0.25586779065E+03  0.41800000000E+01 0. -1.
        -11    1    3    3    0    0 -0.14236108746E+03  0.98261398503E+02 -0.54341203536E+02  0.18131450041E+03  0.00000000000E+00 0. -1.
         11    1    3    3    0    0 -0.16636684774E+03  0.19264857497E+02 -0.13277440465E+02  0.16800402730E+03  0.00000000000E+00 0.  1.
</event>
<event>
 8    1  0.5900800E-006  0.1298718E+03  0.7561462E-02  0.1227646E+00
         -2   -1    0    0    0  501 -0.00000000000E+00  0.00000000000E+00  0.62518378388E+03  0.62518378388E+03  0.00000000000E+00 0.  1.
          2   -1    0    0  501    0  0.00000000000E+00 -0.00000000000E+00 -0.30073813675E+02  0.30073813675E+02  0.00000000000E+00 0. -1.
         23    2    1    2    0    0  0.52537243990E+02 -0.56084441545E+02  0.34640495155E+03  0.36645128112E+03  0.91567048561E+02 0.  0.
         23    2    1    2    0    0 -0.52537243990E+02  0.56084441545E+02  0.24870501865E+03  0.28880631643E+03  0.12509706440E+03 0.  0.
          5    1    4    4  502    0  0.18689797268E+02  0.66294985818E+02  0.81901103776E+02  0.10709620379E+03  0.41800000000E+01 0.  1.
         -5    1    4    4    0  502 -0.71227041257E+02 -0.10210544272E+02  0.16680391487E+03  0.18171011264E+03  0.41800000000E+01 0.  1.
        -11    1    3    3    0    0  0.34947270361E+02  0.20206730839E+02  0.97612940426E+02  0.10563100783E+03  0.00000000000E+00 0. -1.
         11    1    3    3    0    0  0.17589973629E+02 -0.76291172385E+02  0.24879201113E+03  0.26082027329E+03  0.00000000000E+00 0.  1.
</event>
<event>
 8    1  0.5900800E-006  0.1602408E+03  0.7561462E-02  0.1188425E+00
         -1   -1    0    0    0  501 -0.00000000000E+00  0.00000000000E+00  0.54527333872E+02  0.54527333872E+02  0.00000000000E+00 0.  1.
          1   -1    0    0  501    0  0.00000000000E+00 -0.00000000000E+00 -0.73331148305E+03  0.73331148305E+03  0.00000000000E+00 0. -1.
         23    2    1    2    0    0 -0.11425627166E+03  0.10520388289E+03 -0.20147109845E+03  0.27054025914E+03  0.92081896793E+02 0.  0.
         23    2    1    2    0    0  0.11425627166E+03 -0.10520388289E+03 -0.47731305073E+03  0.51729855778E+03  0.12509075464E+03 0.  0.
          5    1    4    4  502    0  0.31619357372E+02 -0.58649984188E+02 -0.36117335207E+03  0.36729180095E+03  0.41800000000E+01 0. -1.
         -5    1    4    4    0  502  0.82636914291E+02 -0.46553898700E+02 -0.11613969866E+03  0.15000675683E+03  0.41800000000E+01 0. -1.
        -11    1    3    3    0    0 -0.36028156083E+02  0.14075245242E+02 -0.33050438378E+01  0.38820920573E+02  0.00000000000E+00 0.  1.
         11    1    3    3    0    0 -0.78228115581E+02  0.91128637646E+02 -0.19816605461E+03  0.23171933857E+03  0.00000000000E+00 0. -1.
</event>
<event>
 8    1  0.5900800E-006  0.1912426E+03  0.7561462E-02  0.1157345E+00
          1   -1    0    0  501    0  0.00000000000E+00  0.00000000000E+00  0.75422562968E+03  0.75422562968E+03  0.00000000000E+00 0.  1.
         -1   -1    0    0    0  501 -0.00000000000E+00 -0.00000000000E+00 -0.74869979492E+02  0.74869979492E+02  0.00000000000E+00 0. -1.
         23    2    1    2    0    0  0.22967922050E+01 -0.17717313298E+03  0.12695952837E+03  0.23564414718E+03  0.89520098024E+02 0.  0.
         23    2    1    2    0    0 -0.22967922050E+01  0.17717313298E+03  0.55239612182E+03  0.59345146200E+03  0.12509023961E+03 0.  0.
          5    1    4    4  502    0  0.13011455530E+02  0.12413521142E+02  0.18425466305E+01  0.18554267979E+02  0.41800000000E+01 0. -1.
         -5    1    4    4    0  502 -0.15308247735E+02  0.16475961183E+03  0.55055357519E+03  0.57489719402E+03  0.41800000000E+01 0. -1.
        -11    1    3    3    0    0 -0.43578856086E+02 -0.89828310256E+02  0.65424231168E+02  0.11936738267E+03  0.00000000000E+00 0.  1.
         11    1    3    3    0    0  0.45875648291E+02 -0.87344822721E+02  0.61535297206E+02  0.11627676451E+03  0.00000000000E+00 0. -1.
</event>
<event>
 8    1  0.5900800E-006  0.1149146E+03  0.7561462E-02  0.1251730E+00
          2   -1    0    0  501    0  0.00000000000E+00  0.00000000000E+00  0.49434405151E+02  0.49434405151E+02  0.00000000000E+00 0. -1.
         -2   -1    0    0    0  501 -0.00000000000E+00 -0.00000000000E+00 -0.42476226761E+03  0.42476226761E+03  0.00000000000E+00 0.  1.
         23    2    1    2    0    0 -0.52871118242E+02  0.12311398824E+02 -0.30103080979E+03  0.31891226772E+03  0.90213969943E+02 0.  0.
         23    2    1    2    0    0  0.52871118242E+02 -0.12311398824E+02 -0.74297052667E+02  0.15528440504E+03  0.12508504599E+03 0.  0.
          5    1    4    4  502    0  0.18311565796E+02 -0.63072687922E+02 -0.65952529636E+02  0.93170198932E+02  0.41800000000E+01 0. -1.
         -5    1    4    4    0  502  0.34559552446E+02  0.50761289098E+02 -0.83445230315E+01  0.62114206111E+02  0.41800000000E+01 0. -1.
        -11    1    3    3    0    0 -0.58379123819E+01  0.44880840626E+02 -0.97471581937E+02  0.10746664767E+03  0.00000000000E+00 0. -1.
         11    1    3    3    0    0 -0.47033205860E+02 -0.32569441803E+02 -0.20355922786E+03  0.21144562005E+03  0.00000000000E+00 0.  1.
</event>
<event>
 8    1  0.5900800E-006  0.1383138E+03  0.7561462E-02  0.1215616E+00
          2   -1    0    0  501    0  0.00000000000E+00  0.00000000000E+00  0.32846705725E+03  0.32846705725E+03  0.00000000000E+00 0.  1.
         -2   -1    0    0    0  501 -0.00000000000E+00 -0.00000000000E+00 -0.80207120786E+02  0.80207120786E+02  0.00000000000E+00 0. -1.
         23    2    1    2    0    0  0.33313708142E+02  0.11277982457E+03  0.81857758659E+02  0.16957932521E+03  0.90704811920E+02 0.  0.
         23    2    1    2    0    0 -0.33313708142E+02 -0.11277982457E+03  0.16640217781E+03  0.23909485283E+03  0.12509025497E+03 0.  0.
          5    1    4    4  502    0 -0.52539152293E+02 -0.10461686135E+03  0.17931350097E+03  0.21418649405E+03  0.41800000000E+01 0. -1.
         -5    1    4    4    0  502  0.19225444151E+02 -0.81629632200E+01 -0.12911323159E+02  0.24908358779E+02  0.41800000000E+01 0. -1.
        -11    1    3    3    0    0 -0.19559497437E+02  0.86244861938E+01  0.40265655666E+02  0.45588142409E+02  0.00000000000E+00 0.  1.
         11    1    3    3    0    0  0.52873205579E+02  0.10415533838E+03  0.41592102993E+02  0.12399118280E+03  0.00000000000E+00 0. -1.
</event>
<event>
 8    1  0.5900800E-006  0.2091896E+03  0.7561462E-02  0.1142209E+00
          1   -1    0    0  501    0  0.00000000000E+00  0.00000000000E+00  0.30983968607E+03  0.30983968607E+03  0.00000000000E+00 0. -1.
         -1   -1    0    0    0  501 -0.00000000000E+00 -0.00000000000E+00 -0.17755253364E+03  0.17755253364E+03  0.00000000000E+00 0.  1.
         23    2    1    2    0    0 -0.81638847280E+02 -0.19038448093E+03  0.42823621650E+02  0.22939584915E+03  0.88754949578E+02 0.  0.
         23    2    1    2    0    0  0.81638847280E+02  0.19038448093E+03  0.89463530782E+02  0.25799637056E+03  0.12508897602E+03 0.  0.
          5    1    4    4  502    0 -0.15305697928E+01  0.31731987773E+02 -0.28983256539E+02  0.43206055727E+02  0.41800000000E+01 0.  1.
         -5    1    4    4    0  502  0.83169417073E+02  0.15865249315E+03  0.11844678732E+03  0.21479031484E+03  0.41800000000E+01 0.  1.
        -11    1    3    3    0    0 -0.64213710325E+02 -0.14794141569E+03  0.70283175993E+02  0.17592551804E+03  0.00000000000E+00 0. -1.
         11    1    3    3    0    0 -0.17425136955E+02 -0.42443065238E+02 -0.27459554343E+02  0.53470331114E+02  0.00000000000E+00 0.  1.
</event>
<event>
 8    1  0.5900800E-006  0.1345843E+03  0.7561462E-02  0.1220808E+00
         -2   -1    0    0    0  501 -0.00000000000E+00  0.00000000000E+00  0.76132609243E+02  0.76132609243E+02  0.00000000000E+00 0.  1.
          2   -1    0    0  501    0  0.00000000000E+00 -0.00000000000E+00 -0.40443972599E+03  0.40443972599E+03  0.00000000000E+00 0. -1.
         23    2    1    2    0    0  0.49602337430E+02 -0.94706208374E+02 -0.33281620059E+02  0.14425233529E+03  0.90947304638E+02 0.  0.
         23    2    1    2    0    0 -0.49602337430E+02  0.94706208374E+02 -0.29502549668E+03  0.33631999994E+03  0.12100182180E+03 0.  0.
          5    1    4    4  502    0 -0.68046400383E+02  0.11210470925E+03 -0.27122323780E+03  0.30129270745E+03  0.41800000000E+01 0. -1.
         -5    1    4    4    0  502  0.18444062953E+02 -0.17398500873E+02 -0.23802258888E+02  0.35027292488E+02  0.41800000000E+01 0.  1.
        -11    1    3    3    0    0  0.32029533089E+02 -0.25729004648E+02  0.28498462409E+02  0.50000350296E+02  0.00000000000E+00 0. -1.
         11    1    3    3    0    0  0.17572804341E+02 -0.68977203725E+02 -0.61780082468E+02  0.94251984997E+02  0.00000000000E+00 0.  1.
</event>
<event>
 7    1  0.5900800E-006  0.1276553E+03  0.7561462E-02  0.1230977E+00
          1   -1    0    0  501    0  0.00000000000E+00  0.00000000000E+00  0.24398452271E+03  0.24398452271E+03  0.00000000000E+00 0. -1.
         -1   -1    0    0    0  501 -0.00000000000E+00 -0.00000000000E+00 -0.28261982428E+03  0.28261982428E+03  0.00000000000E+00 0.  1.
         23    2    1    2    0    0 -0.19982316807E+02 -0.17133682991E+02 -0.24700509136E+03  0.26660326801E+03  0.96813900231E+02 0.  0.
          5    1    1    2  502    0  0.85143567393E+02  0.26935903098E+02  0.12396411981E+03  0.15283829803E+03  0.41800000000E+01 0. -1.
         -5    1    1    2    0  502 -0.65161250587E+02 -0.98022201062E+01  0.84405669977E+02  0.10716278095E+03  0.41800000000E+01 0.  1.
        -11    1    3    3    0    0 -0.56952749894E+02  0.43593489378E+01 -0.12868308536E+03  0.14079046879E+03  0.00000000000E+00 0.  1.
         11    1    3    3    0    0  0.36970433088E+02 -0.21493031929E+02 -0.11832200600E+03  0.12581279922E+03  0.00000000000E+00 0. -1.
</event>
<event>
 8    1  0.5900800E-006  0.1070892E+03  0.7561462E-02  0.1266057E+00
         -4   -1    0    0    0  501 -0.00000000000E+00  0.00000000000E+00  0.17958428645E+03  0.17958428645E+03  0.00000000000E+00 0.  1.
          4   -1    0    0  501    0  0.00000000000E+00 -0.00000000000E+00 -0.10703641310E+03  0.10703641310E+03  0.00000000000E+00 0. -1.
         23    2    1    2    0    0  0.70113056044E+02 -0.36495749200E+02  0.68354929422E+02  0.13858921163E+03  0.91031823379E+02 0.  0.
         23    2    1    2    0    0 -0.70113056044E+02  0.36495749200E+02  0.41929439234E+01  0.14803148792E+03  0.12509180748E+03 0.  0.
          5    1    4    4  502    0 -0.75077284362E+02 -0.41455110971E+01  0.46902570279E+02  0.88719261653E+02  0.41800000000E+01 0.  1.
         -5    1    4    4    0  502  0.49642283181E+01  0.40641260298E+02 -0.42709626355E+02  0.59312226267E+02  0.41800000000E+01 0.  1.
        -11    1    3    3    0    0  0.43665467363E+02  0.94723957004E+01  0.72748451986E+02  0.85374097868E+02  0.00000000000E+00 0.  1.
         11    1    3    3    0    0  0.26447588682E+02 -0.45968144901E+02 -0.43935225644E+01  0.53215113767E+02  0.00000000000E+00 0. -1.
</event>
<event>
 8    1  0.5900800E-006  0.1318508E+03  0.7561462E-02  0.1224735E+00
         -1   -1    0    0    0  501 -0.00000000000E+00  0.00000000000E+00  0.54486871545E+02  0.54486871545E+02  0.00000000000E+00 0.  1.
          1   -1    0    0  501    0  0.00000000000E+00 -0.00000000000E+00 -0.37566120982E+03  0.37566120982E+03  0.00000000000E+00 0. -1.
         23    2    1    2    0    0  0.64888235618E+02 -0.46898991364E+02 -0.77158311106E+02  0.14448931521E+03  0.92270031556E+02 0.  0.
         23    2    1    2    0    0 -0.64888235618E+02  0.46898991364E+02 -0.24401602717E+03  0.28565876616E+03  0.12508841136E+03 0.  0.
          5    1    4    4  502    0 -0.10173949133E+03  0.38108310883E+02 -0.16051954058E+03  0.19387408997E+03  0.41800000000E+01 0.  1.
         -5    1    4    4    0  502  0.36851255709E+02  0.87906804805E+01 -0.83496486591E+02  0.91784676192E+02  0.41800000000E+01 0.  1.
        -11    1    3    3    0    0 -0.20597545680E+02 -0.31616514033E+01  0.72349209243E+00  0.20851339728E+02  0.00000000000E+00 0. -1.
         11    1    3    3    0    0  0.85485781298E+02 -0.43737339961E+02 -0.77881803199E+02  0.12363797548E+03  0.00000000000E+00 0.  1.
</event>
<event>
 8    1  0.5900800E-006  0.1225440E+03  0.7561462E-02  0.1238958E+00
         -1   -1    0    0    0  501 -0.00000000000E+00  0.00000000000E+00  0.12330622145E+03  0.12330622145E+03  0.00000000000E+00 0.  1.
          1   -1    0    0  501    0  0.00000000000E+00 -0.00000000000E+00 -0.18640316306E+03  0.18640316306E+03  0.00000000000E+00 0. -1.
         23    2    1    2    0    0  0.88766829934E+02  0.47723282198E+02  0.95785509790E+00  0.13677158136E+03  0.92458024103E+02 0.  0.
         23    2    1    2    0    0 -0.88766829934E+02 -0.47723282198E+02 -0.64054796705E+02  0.17293780315E+03  0.12508958797E+03 0.  0.
          5    1    4    4  502    0 -0.61696357341E+02 -0.88090494247E+01  0.28660017007E+02  0.68723422759E+02  0.41800000000E+01 0. -1.
         -5    1    4    4    0  502 -0.27070472594E+02 -0.38914232773E+02 -0.92714813712E+02  0.10421438039E+03  0.41800000000E+01 0. -1.
        -11    1    3    3    0    0  0.10637870803E+03  0.31128550398E+02 -0.76115128214E+01  0.11110063591E+03  0.00000000000E+00 0. -1.
         11    1    3    3    0    0 -0.17611878099E+02  0.16594731799E+02  0.85693679193E+01  0.25670945448E+02  0.00000000000E+00 0.  1.
</event>
<event>
 7    1  0.5900800E-006  0.1930896E+03  0.7561462E-02  0.1155704E+00
         -1   -1    0    0    0  501 -0.00000000000E+00  0.00000000000E+00  0.25392613014E+03  0.25392613014E+03  0.00000000000E+00 0.  1.
          1   -1    0    0  501    0  0.00000000000E+00 -0.00000000000E+00 -0.27581315409E+03  0.27581315409E+03  0.00000000000E+00 0. -1.
         23    2    1    2    0    0 -0.18756801930E+02  0.21536489573E+02  0.15475585905E+03  0.18164070572E+03  0.90710154132E+02 0.  0.
          5    1    1    2  502    0 -0.61549845702E+02 -0.13787826661E+03 -0.12966741989E+03  0.19907263019E+03  0.41800000000E+01 0. -1.
         -5    1    1    2    0  502  0.80306647632E+02  0.11634177704E+03 -0.46975463108E+02  0.14902594832E+03  0.41800000000E+01 0.  1.
        -11    1    3    3    0    0  0.33550933895E+02  0.24131675749E+02  0.53104434824E+02  0.67291039059E+02  0.00000000000E+00 0.  1.
         11    1    3    3    0    0 -0.52307735825E+02 -0.25951861764E+01  0.10165142423E+03  0.11434966666E+03  0.00000000000E+00 0. -1.
</event>
<event>
 8    1  0.1171376E-005  0.4367514E+03  0.7561462E-02  0.1031748E+00
          2   -1    0    0  501    0  0.00000000000E+00  0.00000000000E+00  0.28937797661E+04  0.28937797661E+04  0.00000000000E+00 0.  1.
         -2   -1    0    0    0  501 -0.00000000000E+00 -0.00000000000E+00 -0.67099774758E+02  0.67099774758E+02  0.00000000000E+00 0. -1.
         23    2    1    2    0    0 -0.41210171455E+03  0.11013485062E+03  0.14552151125E+04  0.15191716524E+04  0.90961406828E+02 0.  0.
         23    2    1    2    0    0  0.41210171455E+03 -0.11013485062E+03  0.13714648789E+04  0.14417078884E+04  0.12509281801E+03 0.  0.
          5    1    4    4  502    0  0.33799924149E+03 -0.49045520004E+02  0.95352367219E+03  0.10128542916E+04  0.41800000000E+01 0.  1.
         -5    1    4    4    0  502  0.74102473055E+02 -0.61089330615E+02  0.41794120666E+03  0.42885359676E+03  0.41800000000E+01 0.  1.
        -11    1    3    3    0    0 -0.18651441122E+03  0.41350183839E+01  0.65300330208E+03  0.67913035310E+03  0.00000000000E+00 0. -1.
         11    1    3    3    0    0 -0.22558730333E+03  0.10599983224E+03  0.80221181037E+03  0.84004129932E+03  0.00000000000E+00 0.  1.
</event>
<event>
 8    1  0.5900800E-006  0.1088852E+03  0.7561462E-02  0.1262648E+00
          1   -1    0    0  501    0  0.00000000000E+00  0.00000000000E+00  0.15674364511E+03  0.15674364511E+03  0.00000000000E+00 0. -1.
         -1   -1    0    0    0  501 -0.00000000000E+00 -0.00000000000E+00 -0.15687556945E+03  0.15687556945E+03  0.00000000000E+00 0.  1.
         23    2    1    2    0    0  0.55790086980E+01  0.72447157290E+02 -0.87124761231E+02  0.14481090975E+03  0.89998664576E+02 0.  0.
         23    2    1    2    0    0 -0.55790086980E+01 -0.72447157290E+02  0.86992836889E+02  0.16880830482E+03  0.12509506053E+03 0.  0.
          5    1    4    4  502    0  0.10185154394E+01 -0.10800678741E+03  0.61501664583E+02  0.12436410514E+03  0.41800000000E+01 0.  1.
         -5    1    4    4    0  502 -0.65975241374E+01  0.35559630124E+02  0.25491172306E+02  0.44444199676E+02  0.41800000000E+01 0.  1.
        -11    1    3    3    0    0  0.49186542949E+01  0.14343855670E+02 -0.85339712696E+02  0.86676443851E+02  0.00000000000E+00 0.  1.
         11    1    3    3    0    0  0.66035440311E+00  0.58103301620E+02 -0.17850485347E+01  0.58134465898E+02  0.00000000000E+00 0. -1.
</event>
<event>
 8    1  0.5900800E-006  0.2777005E+03  0.7561462E-02  0.1096952E+00
          1   -1    0    0  501    0  0.00000000000E+00  0.00000000000E+00  0.28314510634E+03  0.28314510634E+03  0.00000000000E+00 0. -1.
         -1   -1    0    0    0  501 -0.00000000000E+00 -0.00000000000E+00 -0.31969295916E+03  0.31969295916E+03  0.00000000000E+00 0.  1.
         23    2    1    2    0    0 -0.27201047774E+03  0.78772465659E+01 -0.86149767651E+02  0.29925566695E+03  0.89891160432E+02 0.  0.
         23    2    1    2    0    0  0.27201047774E+03 -0.78772465659E+01  0.49601914831E+02  0.30358239855E+03  0.12510064643E+03 0.  0.
          5    1    4    4  502    0  0.79281905788E+02 -0.84422673212E+01  0.74508103386E+02  0.10920541348E+03  0.41800000000E+01 0.  1.
         -5    1    4    4    0  502  0.19272857195E+03  0.56502075535E+00 -0.24906188555E+02  0.19437698507E+03  0.41800000000E+01 0.  1.
        -11    1    3    3    0    0 -0.19226205113E+03  0.40742586675E+02 -0.81846840245E+02  0.21289330645E+03  0.00000000000E+00 0.  1.
         11    1    3    3    0    0 -0.79748426608E+02 -0.32865340110E+02 -0.43029274065E+01  0.86362360501E+02  0.00000000000E+00 0. -1.
</event>
<event>
 8    1  0.5900800E-006  0.3808739E+03  0.7561462E-02  0.1050611E+00
         -1   -1    0    0    0  501 -0.00000000000E+00  0.00000000000E+00  0.10054399693E+04  0.10054399693E+04  0.00000000000E+00 0.  1.
          1   -1    0    0  501    0  0.00000000000E+00 -0.00000000000E+00 -0.19732619927E+03  0.19732619927E+03  0.00000000000E+00 0. -1.
         23    2    1    2    0    0 -0.36972111703E+03  0.72548756135E+01  0.70145835782E+03  0.79808346770E+03  0.90261043987E+02 0.  0.
         23    2    1    2    0    0  0.36972111703E+03 -0.72548756135E+01  0.10665541225E+03  0.40468270090E+03  0.12508546619E+03 0.  0.
          5    1    4    4  502    0  0.15298941962E+03 -0.62988245154E+02  0.30707381606E+02  0.16832616323E+03  0.41800000000E+01 0. -1.
         -5    1    4    4    0  502  0.21673169741E+03  0.55733369540E+02  0.75948030643E+02  0.23635653768E+03  0.41800000000E+01 0. -1.
        -11    1    3    3    0    0 -0.83617235551E+02 -0.16880325930E+02  0.98841883215E+02  0.13056226623E+03  0.00000000000E+00 0.  1.
         11    1    3    3    0    0 -0.28610388148E+03  0.24135201543E+02  0.60261647460E+03  0.66752120147E+03  0.00000000000E+00 0. -1.
</event>
<event>
 8    1  0.5900800E-006  0.1265751E+03  0.7561462E-02  0.1232628E+00
         -2   -1    0    0    0  501 -0.00000000000E+00  0.00000000000E+00  0.13859838222E+02  0.13859838222E+02  0.00000000000E+00 0.  1.
          2   -1    0    0  501    0  0.00000000000E+00 -0.00000000000E+00 -0.15462658567E+04  0.15462658567E+04  0.00000000000E+00 0. -1.
         23    2    1    2    0    0 -0.78634350620E+02 -0.82669093353E+00 -0.36327227208E+03  0.38264891978E+03  0.90936283343E+02 0.  0.
         23    2    1    2    0    0  0.78634350620E+02  0.82669093353E+00 -0.11691337464E+04  0.11774767752E+04  0.11573156235E+03 0.  0.
          5    1    4    4  502    0  0.50839138797E+01 -0.48407436173E+02 -0.52681497307E+03  0.52907524447E+03  0.41800000000E+01 0. -1.
         -5    1    4    4    0  502  0.73550436740E+02  0.49234127106E+02 -0.64231877336E+03  0.64840153071E+03  0.41800000000E+01 0.  1.
        -11    1    3    3    0    0  0.18157704441E+02 -0.49189756490E+01 -0.10770906413E+03  0.10933956762E+03  0.00000000000E+00 0.  1.
         11    1    3    3    0    0 -0.96792055061E+02  0.40922847155E+01 -0.25556320795E+03  0.27330935216E+03  0.00000000000E+00 0. -1.
</event>
<event>
 8    1  0.5900800E-006  0.1487744E+03  0.7561462E-02  0.1201987E+00
          1   -1    0    0  501    0  0.00000000000E+00  0.00000000000E+00  0.80800268510E+02  0.80800268510E+02  0.00000000000E+00 0. -1.
         -1   -1    0    0    0  501 -0.00000000000E+00 -0.00000000000E+00 -0.35268936564E+03  0.35268936564E+03  0.00000000000E+00 0.  1.
         23    2    1    2    0    0 -0.74453130548E+02 -0.82972726716E+02 -0.21016603445E+03  0.25492708908E+03  0.91598671846E+02 0.  0.
         23    2    1    2    0    0  0.74453130548E+02  0.82972726716E+02 -0.61723062672E+02  0.17856254506E+03  0.12508838478E+03 0.  0.
          5    1    4    4  502    0  0.55143110981E+01  0.84377288485E+02 -0.68841309192E+02  0.10911705957E+03  0.41800000000E+01 0.  1.
         -5    1    4    4    0  502  0.68938819450E+02 -0.14045617697E+01  0.71182465198E+01  0.69445485486E+02  0.41800000000E+01 0.  1.
        -11    1    3    3    0    0 -0.90037628596E+02 -0.40803871109E+02 -0.13460893035E+03  0.16700686989E+03  0.00000000000E+00 0. -1.
         11    1    3    3    0    0  0.15584498048E+02 -0.42168855606E+02 -0.75557104099E+02  0.87920219190E+02  0.00000000000E+00 0.  1.
</event>
<event>
 8    1  0.5900800E-006  0.2275019E+03  0.7561462E-02  0.1128411E+00
         -1   -1    0    0    0  501 -0.00000000000E+00  0.00000000000E+00  0.85472464651E+02  0.85472464651E+02  0.00000000000E+00 0.  1.
          1   -1    0    0  501    0  0.00000000000E+00 -0.00000000000E+00 -0.76228761065E+03  0.76228761065E+03  0.00000000000E+00 0. -1.
         23    2    1    2    0    0 -0.20702292703E+03  0.71229398832E+02 -0.19677134991E+03  0.30552335416E+03  0.81813423194E+02 0.  0.
         23    2    1    2    0    0  0.20702292703E+03 -0.71229398832E+02 -0.48004379608E+03  0.54223672114E+03  0.12508595452E+03 0.  0.
          5    1    4    4  502    0  0.13509846288E+03 -0.62272599176E+02 -0.18009167611E+03  0.23362353367E+03  0.41800000000E+01 0. -1.
         -5    1    4    4    0  502  0.71924464153E+02 -0.89567996559E+01 -0.29995211997E+03  0.30861318746E+03  0.41800000000E+01 0. -1.
        -11    1    3    3    0    0 -0.12445851069E+03 -0.12634166543E+00 -0.11004209504E+03  0.16613006810E+03  0.00000000000E+00 0. -1.
         11    1    3    3    0    0 -0.82564416341E+02  0.71355740498E+02 -0.86729254874E+02  0.13939328606E+03  0.00000000000E+00 0.  1.
</event>
<event>
 8    1  0.5900800E-006  0.8368258E+02  0.7561462E-02  0.1318914E+00
          2   -1    0    0  501    0  0.00000000000E+00  0.00000000000E+00  0.15025421153E+04  0.15025421153E+04  0.00000000000E+00 0.  1.
         -2   -1    0    0    0  501 -0.00000000000E+00 -0.00000000000E+00 -0.10756753445E+02  0.10756753445E+02  0.00000000000E+00 0. -1.
         23    2    1    2    0    0  0.24404393399E+02  0.75401820815E+01  0.26182044760E+03  0.27672533143E+03  0.85875104133E+02 0.  0.
         23    2    1    2    0    0 -0.24404393399E+02 -0.75401820815E+01  0.12299649143E+04  0.12365735373E+04  0.12509194271E+03 0.  0.
          5    1    4    4  502    0 -0.39974149645E+02 -0.30752476585E+02  0.20277052302E+03  0.20899044203E+03  0.41800000000E+01 0.  1.
         -5    1    4    4    0  502  0.15569756246E+02  0.23212294504E+02  0.10271943912E+04  0.10275830953E+04  0.41800000000E+01 0.  1.
        -11    1    3    3    0    0  0.17751647075E+01  0.44836622103E+02  0.11112699227E+03  0.11984440872E+03  0.00000000000E+00 0. -1.
         11    1    3    3    0    0  0.22629228692E+02 -0.37296440022E+02  0.15069345533E+03  0.15688092271E+03  0.00000000000E+00 0.  1.
</event>
<event>
 8    1  0.5900800E-006  0.1465862E+03  0.7561462E-02  0.1204732E+00
         -1   -1    0    0    0  501 -0.00000000000E+00  0.00000000000E+00  0.33672768880E+02  0.33672768880E+02  0.00000000000E+00 0.  1.
          1   -1    0    0  501    0  0.00000000000E+00 -0.00000000000E+00 -0.68999652011E+03  0.68999652011E+03  0.00000000000E+00 0. -1.
         23    2    1    2    0    0  0.10150005194E+03 -0.28148040958E+02 -0.29274372187E+03  0.32500505650E+03  0.93993762047E+02 0.  0.
         23    2    1    2    0    0 -0.10150005194E+03  0.28148040958E+02 -0.36358002936E+03  0.39866423249E+03  0.12509260475E+03 0.  0.
          5    1    4    4  502    0 -0.51160797699E+02 -0.42771074456E+02 -0.22753687776E+03  0.23714403887E+03  0.41800000000E+01 0.  1.
         -5    1    4    4    0  502 -0.50339254241E+02  0.70919115415E+02 -0.13604315160E+03  0.16152019362E+03  0.41800000000E+01 0.  1.
        -11    1    3    3    0    0  0.73681343007E+02 -0.61416455071E+02 -0.17558130236E+03  0.20007427370E+03  0.00000000000E+00 0.  1.
         11    1    3    3    0    0  0.27818708933E+02  0.33268414113E+02 -0.11716241951E+03  0.12493078280E+03  0.00000000000E+00 0. -1.
</event>
<event>
 8    1  0.5900800E-006  0.1150599E+03  0.7561462E-02  0.1251477E+00
         -2   -1    0    0    0  501 -0.00000000000E+00  0.00000000000E+00  0.16526554917E+03  0.16526554917E+03  0.00000000000E+00 0.  1.
          2   -1    0    0  501    0  0.00000000000E+00 -0.00000000000E+00 -0.90144105805E+02  0.90144105805E+02  0.00000000000E+00 0. -1.
         23    2    1    2    0    0 -0.53193514014E+02 -0.36982500631E+02  0.57226624693E+02  0.11339897028E+03  0.73397442732E+02 0.  0.
         23    2    1    2    0    0  0.53193514014E+02  0.36982500631E+02  0.17894818673E+02  0.14201068470E+03  0.12509818043E+03 0.  0.
          5    1    4    4  502    0 -0.92188627403E+00 -0.38792821366E+02 -0.16885500556E+02  0.42524409377E+02  0.41800000000E+01 0. -1.
         -5    1    4    4    0  502  0.54115400288E+02  0.75775321997E+02  0.34780319229E+02  0.99486275323E+02  0.41800000000E+01 0. -1.
        -11    1    3    3    0    0 -0.40189843356E+02  0.16052428785E+02  0.26359669282E+02  0.50672834375E+02  0.00000000000E+00 0.  1.
         11    1    3    3    0    0 -0.13003670658E+02 -0.53034929416E+02  0.30866955411E+02  0.62726135901E+02  0.00000000000E+00 0. -1.
</event>
<event>
 8    1  0.5900800E-006  0.1072992E+03  0.7561462E-02  0.1265655E+00
          2   -1    0    0  501    0  0.00000000000E+00  0.00000000000E+00  0.63738700626E+03  0.63738700626E+03  0.00000000000E+00 0. -1.
         -2   -1    0    0    0  501 -0.00000000000E+00 -0.00000000000E+00 -0.20249681227E+02  0.20249681227E+02  0.00000000000E+00 0.  1.
         23    2    1    2    0    0 -0.15666096827E+02 -0.17580360522E+02  0.18130296069E+03  0.20359532184E+03  0.89586806249E+02 0.  0.
         23    2    1    2    0    0  0.15666096827E+02  0.17580360522E+02  0.43583436434E+03  0.45404136565E+03  0.12508985935E+03 0.  0.
          5    1    4    4  502    0 -0.28718234179E+02 -0.42563026469E+02  0.20482768707E+03  0.21120653869E+03  0.41800000000E+01 0.  1.
         -5    1    4    4    0  502  0.44384331006E+02  0.60143386991E+02  0.23100667727E+03  0.24283482696E+03  0.41800000000E+01 0.  1.
        -11    1    3    3    0    0 -0.60403472640E+01  0.34617671300E+02  0.43481180835E+02  0.55906010841E+02  0.00000000000E+00 0.  1.
         11    1    3    3    0    0 -0.96257495635E+01 -0.52198031822E+02  0.13782177986E+03  0.14768931100E+03  0.00000000000E+00 0. -1.
</event>
<event>
 8    1  0.5900800E-006  0.1660324E+03  0.7561462E-02  0.1182050E+00
          1   -1    0    0  501    0  0.00000000000E+00  0.00000000000E+00  0.53324260824E+03  0.53324260824E+03  0.00000000000E+00 0. -1.
         -1   -1    0    0    0  501 -0.00000000000E+00 -0.00000000000E+00 -0.55427669492E+02  0.55427669492E+02  0.00000000000E+00 0.  1.
         23    2    1    2    0    0  0.13055196583E+03 -0.14574587915E+02  0.17096881582E+03  0.23221817512E+03  0.86247959277E+02 0.  0.
         23    2    1    2    0    0 -0.13055196583E+03  0.14574587915E+02  0.30684612293E+03  0.35645210261E+03  0.12508926374E+03 0.  0.
          5    1    4    4  502    0 -0.15150935652E+03  0.20030491132E+02  0.29277761170E+03  0.33029155000E+03  0.41800000000E+01 0. -1.
         -5    1    4    4    0  502  0.20957390694E+02 -0.54559032164E+01  0.14068511229E+02  0.26160552609E+02  0.41800000000E+01 0. -1.
        -11    1    3    3    0    0  0.65129264911E+02  0.36014717366E+02  0.82917416232E+02  0.11141893434E+03  0.00000000000E+00 0.  1.
         11    1    3    3    0    0  0.65422700919E+02 -0.50589305281E+02  0.88051399586E+02  0.12079924078E+03  0.00000000000E+00 0. -1.
</event>
<event>
 8    1  0.5900800E-006  0.5021849E+02  0.7561462E-02  0.1444167E+00
         -2   -1    0    0    0  501 -0.00000000000E+00  0.00000000000E+00  0.44936047956E+02  0.44936047956E+02  0.00000000000E+00 0.  1.
          2   -1    0    0  501    0  0.00000000000E+00 -0.00000000000E+00 -0.28186371131E+03  0.28186371131E+03  0.00000000000E+00 0. -1.
         23    2    1    2    0    0 -0.10819087713E+02  0.32538146459E+02 -0.69936249850E+02  0.12115553996E+03  0.92799796258E+02 0.  0.
         23    2    1    2    0    0  0.10819087713E+02 -0.32538146459E+02 -0.16699141351E+03  0.20564421931E+03  0.11501143038E+03 0.  0.
          5    1    4    4  502    0  0.21637079088E+00 -0.21938765580E+02 -0.18238863786E+03  0.18375103775E+03  0.41800000000E+01 0. -1.
         -5    1    4    4    0  502  0.10602716922E+02 -0.10599380879E+02  0.15397224356E+02  0.21893181565E+02  0.41800000000E+01 0.  1.
        -11    1    3    3    0    0 -0.26452089503E+02  0.37718584020E+02  0.32070722554E+01  0.46181055986E+02  0.00000000000E+00 0.  1.
         11    1    3    3    0    0  0.15633001790E+02 -0.51804375612E+01 -0.73143322105E+02  0.74974483972E+02  0.00000000000E+00 0. -1.
</event>
<event>
 8    1  0.5900800E-006  0.1249403E+03  0.7561462E-02  0.1235163E+00
          3   -1    0    0  501    0  0.00000000000E+00  0.00000000000E+00  0.48899755980E+03  0.48899755980E+03  0.00000000000E+00 0. -1.
         -3   -1    0    0    0  501 -0.00000000000E+00 -0.00000000000E+00 -0.46276100197E+02  0.46276100197E+02  0.00000000000E+00 0.  1.
         23    2    1    2    0    0  0.10244747182E+03 -0.51131532024E+01  0.23865833218E+03  0.27486791148E+03  0.89849543252E+02 0.  0.
         23    2    1    2    0    0 -0.10244747182E+03  0.51131532024E+01  0.20406312742E+03  0.26040574852E+03  0.12509102714E+03 0.  0.
          5    1    4    4  502    0 -0.26427006772E+02 -0.37049674429E+02  0.86821889618E+01  0.46517930601E+02  0.41800000000E+01 0.  1.
         -5    1    4    4    0  502 -0.76020465048E+02  0.42162827632E+02  0.19538093846E+03  0.21388781791E+03  0.41800000000E+01 0.  1.
        -11    1    3    3    0    0  0.60417243962E+02 -0.30878394704E+02  0.20296016829E+03  0.21400128164E+03  0.00000000000E+00 0. -1.
         11    1    3    3    0    0  0.42030227858E+02  0.25765241502E+02  0.35698163886E+02  0.60866629842E+02  0.00000000000E+00 0.  1.
</event>
<event>
 7    1  0.5900800E-006  0.1454441E+03  0.7561462E-02  0.1206186E+00
          1   -1    0    0  501    0  0.00000000000E+00  0.00000000000E+00  0.21862153073E+03  0.21862153073E+03  0.00000000000E+00 0. -1.
         -1   -1    0    0    0  501 -0.00000000000E+00 -0.00000000000E+00 -0.43452659277E+03  0.43452659277E+03  0.00000000000E+00 0.  1.
         23    2    1    2    0    0  0.40439689732E+02  0.38340684293E+02 -0.38265912391E+03  0.39750144118E+03  0.92054408098E+02 0.  0.
          5    1    1    2  502    0 -0.10489918554E+03 -0.52329110179E+02  0.14403837156E+03  0.18575979054E+03  0.41800000000E+01 0. -1.
         -5    1    1    2    0  502  0.64459495809E+02  0.13988425886E+02  0.22715690310E+02  0.69886891797E+02  0.41800000000E+01 0.  1.
        -11    1    3    3    0    0 -0.25815192659E+02  0.31738414062E+02 -0.13688784039E+03  0.14287068260E+03  0.00000000000E+00 0. -1.
         11    1    3    3    0    0  0.66254882391E+02  0.66022702301E+01 -0.24577128352E+03  0.25463075858E+03  0.00000000000E+00 0.  1.
</event>
<event>
 7    1  0.5900800E-006  0.8383597E+02  0.7561462E-02  0.1318505E+00
         -1   -1    0    0    0  501 -0.00000000000E+00  0.00000000000E+00  0.57012705450E+03  0.57012705450E+03  0.00000000000E+00 0.  1.
          1   -1    0    0  501    0  0.00000000000E+00 -0.00000000000E+00 -0.24784725202E+02  0.24784725202E+02  0.00000000000E+00 0. -1.
         23    2    1    2    0    0 -0.13856895580E+02 -0.13180261011E+02  0.17223621161E+03  0.19644683759E+03  0.92521968053E+02 0.  0.
          5    1    1    2  502    0  0.42626656659E+02 -0.37220571377E+02  0.29853648473E+03  0.30388140435E+03  0.41800000000E+01 0.  1.
         -5    1    1    2    0  502 -0.28769761078E+02  0.50400832387E+02  0.74569632956E+02  0.94583537769E+02  0.41800000000E+01 0. -1.
        -11    1    3    3    0    0 -0.26560174119E+02 -0.24196336503E+02  0.17565195052E+03  0.17928891006E+03  0.00000000000E+00 0.  1.
         11    1    3    3    0    0  0.12703278538E+02  0.11016075493E+02 -0.34157389045E+01  0.17157927531E+02  0.00000000000E+00 0. -1.
</event>
<event>
 8    1  0.5900800E-006  0.1290371E+03  0.7561462E-02  0.1228892E+00
          2   -1    0    0  501    0  0.00000000000E+00  0.00000000000E+00  0.72781675751E+03  0.72781675751E+03  0.00000000000E+00 0. -1.
         -2   -1    0    0    0  501 -0.00000000000E+00 -0.00000000000E+00 -0.26454930878E+02  0.26454930878E+02  0.00000000000E+00 0.  1.
         23    2    1    2    0    0  0.44590660727E+02 -0.65982460366E+02  0.23416947478E+03  0.26410976301E+03  0.92609998935E+02 0.  0.
         23    2    1    2    0    0 -0.44590660727E+02  0.65982460366E+02  0.46719235185E+03  0.49016192537E+03  0.12509199556E+03 0.  0.
          5    1    4    4  502    0  0.15572589975E+02 -0.23609139325E+02  0.19896537096E+03  0.20100892582E+03  0.41800000000E+01 0. -1.
         -5    1    4    4    0  502 -0.60163250702E+02  0.89591599691E+02  0.26822698090E+03  0.28915299955E+03  0.41800000000E+01 0. -1.
        -11    1    3    3    0    0  0.44858348331E+02  0.96237571099E+01  0.10199868870E+03  0.11184194478E+03  0.00000000000E+00 0. -1.
         11    1    3    3    0    0 -0.26768760364E+00 -0.75606217476E+02  0.13217078608E+03  0.15226781823E+03  0.00000000000E+00 0.  1.
</event>
<event>
 8    1  0.5900800E-006  0.1065604E+03  0.7561462E-02  0.1267075E+00
         -2   -1    0    0    0  501 -0.00000000000E+00  0.00000000000E+00  0.29871330835E+02  0.29871330835E+02  0.00000000000E+00 0.  1.
          2   -1    0    0  501    0  0.00000000000E+00 -0.00000000000E+00 -0.55566957350E+03  0.55566957350E+03  0.00000000000E+00 0. -1.
         23    2    1    2    0    0  0.18669749603E+02 -0.64609092607E+02 -0.19608033775E+03  0.22653681791E+03  0.91370326797E+02 0.  0.
         23    2    1    2    0    0 -0.18669749603E+02  0.64609092607E+02 -0.32971790491E+03  0.35900408642E+03  0.12508854005E+03 0.  0.
          5    1    4    4  502    0  0.37020133388E+02  0.10819976598E+02 -0.22708146439E+03  0.23037149572E+03  0.41800000000E+01 0.  1.
         -5    1    4    4    0  502 -0.55689882991E+02  0.53789116009E+02 -0.10263644052E+03  0.12863259071E+03  0.41800000000E+01 0.  1.
        -11    1    3    3    0    0 -0.78062321435E+00  0.14907256997E+02 -0.98132636428E+00  0.14959902580E+02  0.00000000000E+00 0.  1.
         11    1    3    3    0    0  0.19450372817E+02 -0.79516349603E+02 -0.19509901139E+03  0.21157691533E+03  0.00000000000E+00 0. -1.
</event>
<event>
 7    1  0.5900800E-006  0.1625600E+03  0.7561462E-02  0.1185837E+00
          2   -1    0    0  501    0  0.00000000000E+00  0.00000000000E+00  0.75513654273E+03  0.75513654273E+03  0.00000000000E+00 0. -1.
         -2   -1    0    0    0  501 -0.00000000000E+00 -0.00000000000E+00 -0.36479362334E+02  0.36479362334E+02  0.00000000000E+00 0.  1.
         23    2    1    2    0    0  0.73306301817E+02  0.37985779473E+02  0.24324902802E+03  0.27329517961E+03  0.93292187437E+02 0.  0.
          5    1    1    2  502    0 -0.94192375080E+02  0.55477154032E+02  0.22480338963E+03  0.25000790894E+03  0.41800000000E+01 0. -1.
         -5    1    1    2    0  502  0.20886073263E+02 -0.93462933505E+02  0.25060476274E+03  0.26831281651E+03  0.41800000000E+01 0.  1.
        -11    1    3    3    0    0  0.17374664894E+02 -0.28254647033E+02  0.10497109163E+03  0.11008693899E+03  0.00000000000E+00 0.  1.
         11    1    3    3    0    0  0.55931636923E+02  0.66240426506E+02  0.13827793639E+03  0.16320824062E+03  0.00000000000E+00 0. -1.
</event>
<event>
 8    1  0.5900800E-006  0.7538222E+02  0.7561462E-02  0.1342691E+00
         -4   -1    0    0    0  501 -0.00000000000E+00  0.00000000000E+00  0.17197187612E+03  0.17197187612E+03  0.00000000000E+00 0.  1.
          4   -1    0    0  501    0  0.00000000000E+00 -0.00000000000E+00 -0.73904272129E+02  0.73904272129E+02  0.00000000000E+00 0. -1.
         23    2    1    2    0    0  0.45853241306E+01  0.28166788413E+02  0.58569978431E+02  0.11163103724E+03  0.90645755197E+02 0.  0.
         23    2    1    2    0    0 -0.45853241306E+01 -0.28166788413E+02  0.39497625560E+02  0.13424511101E+03  0.12508914516E+03 0.  0.
          5    1    4    4  502    0 -0.27402556448E+02 -0.37172134349E+02 -0.33446474262E+02  0.57173479101E+02  0.41800000000E+01 0.  1.
         -5    1    4    4    0  502  0.22817232318E+02  0.90053459350E+01  0.72944099822E+02  0.77071631907E+02  0.41800000000E+01 0.  1.
        -11    1    3    3    0    0  0.39186376450E+02  0.10051925266E+02  0.60212098756E+02  0.72540403483E+02  0.00000000000E+00 0.  1.
         11    1    3    3    0    0 -0.34601052319E+02  0.18114863148E+02 -0.16421203255E+01  0.39090633758E+02  0.00000000000E+00 0. -1.
</event>
<event>
 8    1  0.5900800E-006  0.1853575E+03  0.7561462E-02  0.1162716E+00
          2   -1    0    0  501    0  0.00000000000E+00  0.00000000000E+00  0.57865494070E+03  0.57865494070E+03  0.00000000000E+00 0. -1.
         -2   -1    0    0    0  501 -0.00000000000E+00 -0.00000000000E+00 -0.63618166821E+02  0.63618166821E+02  0.00000000000E+00 0.  1.
         23    2    1    2    0    0 -0.89718115644E+02  0.12318880678E+03  0.17472261525E+03  0.24897372502E+03  0.90747457699E+02 0.  0.
         23    2    1    2    0    0  0.89718115644E+02 -0.12318880678E+03  0.34031415863E+03  0.39329938251E+03  0.12508339348E+03 0.  0.
          5    1    4    4  502    0  0.10556768000E+03 -0.44915175129E+02  0.16984792562E+03  0.20500658100E+03  0.41800000000E+01 0. -1.
         -5    1    4    4    0  502 -0.15849564351E+02 -0.78273631648E+02  0.17046623302E+03  0.18829280151E+03  0.41800000000E+01 0. -1.
        -11    1    3    3    0    0 -0.23633003812E+02  0.10467913861E+03  0.12164381160E+03  0.16221423437E+03  0.00000000000E+00 0.  1.
         11    1    3    3    0    0 -0.66085111832E+02  0.18509668168E+02  0.53078803644E+02  0.86759490650E+02  0.00000000000E+00 0. -1.
</event>
<event>
 7    1  0.5900800E-006  0.9740219E+02  0.7561462E-02  0.1285856E+00
         -2   -1    0    0    0  501 -0.00000000000E+00  0.00000000000E+00  0.91279769807E+02  0.91279769807E+02  0.00000000000E+00 0.  1.
          2   -1    0    0  501    0  0.00000000000E+00 -0.00000000000E+00 -0.22623096304E+03  0.22623096304E+03  0.00000000000E+00 0. -1.
         23    2    1    2    0    0  0.42397101950E+02  0.97131344626E+01  0.23475470231E+02  0.10130257295E+03  0.88426547761E+02 0.  0.
          5    1    1    2  502    0 -0.59445289278E+02  0.30297095721E+02 -0.15903295014E+03  0.17251263158E+03  0.41800000000E+01 0. -1.
         -5    1    1    2    0  502  0.17048187329E+02 -0.40010230184E+02  0.60628667831E+00  0.43695528308E+02  0.41800000000E+01 0.  1.
        -11    1    3    3    0    0  0.49707231673E+02  0.33126032098E+02  0.39854498754E+02  0.71808940627E+02  0.00000000000E+00 0.  1.
         11    1    3    3    0    0 -0.73101297231E+01 -0.23412897636E+02 -0.16379028523E+02  0.29493632323E+02  0.00000000000E+00 0. -1.
</event>
<event>
 8    1  0.5900800E-006  0.1389286E+03  0.7561462E-02  0.1214778E+00
          2   -1    0    0  501    0  0.00000000000E+00  0.00000000000E+00  0.24667932079E+04  0.24667932079E+04  0.00000000000E+00 0.  1.
         -2   -1    0    0    0  501 -0.00000000000E+00 -0.00000000000E+00 -0.12570627758E+02  0.12570627758E+02  0.00000000000E+00 0. -1.
         23    2    1    2    0    0 -0.91709310750E+02  0.40566142841E+02  0.48868483563E+03  0.50729841021E+03  0.92101025002E+02 0.  0.
         23    2    1    2    0    0  0.91709310750E+02 -0.40566142841E+02  0.19655377445E+04  0.19720654254E+04  0.12508879849E+03 0.  0.
          5    1    4    4  502    0  0.81002024649E+02 -0.83170587824E+02  0.14096824140E+04  0.14144612598E+04  0.41800000000E+01 0.  1.
         -5    1    4    4    0  502  0.10707286102E+02  0.42604444983E+02  0.55585533047E+03  0.55760416563E+03  0.41800000000E+01 0.  1.
        -11    1    3    3    0    0 -0.35729037341E+02 -0.14936430845E+02  0.59903885485E+02  0.71331175316E+02  0.00000000000E+00 0. -1.
         11    1    3    3    0    0 -0.55980273409E+02  0.55502573686E+02  0.42878095014E+03  0.43596723490E+03  0.00000000000E+00 0.  1.
</event>
<event>
 8    1  0.5900800E-006  0.1451506E+03  0.7561462E-02  0.1206562E+00
          2   -1    0    0  501    0  0.00000000000E+00  0.00000000000E+00  0.15975040375E+04  0.15975040375E+04  0.00000000000E+00 0. -1.
         -2   -1    0    0    0  501 -0.00000000000E+00 -0.00000000000E+00 -0.17874378345E+02  0.17874378345E+02  0.00000000000E+00 0.  1.
         23    2    1    2    0    0 -0.49186543934E+02 -0.11603469663E+03  0.63443257871E+03  0.65364680239E+03  0.94159855625E+02 0.  0.
         23    2    1    2    0    0  0.49186543934E+02  0.11603469663E+03  0.94519708042E+03  0.96173161343E+03  0.12508720367E+03 0.  0.
          5    1    4    4  502    0  0.26317933955E+02  0.12574684548E+03  0.90641799613E+03  0.91548673333E+03  0.41800000000E+01 0. -1.
         -5    1    4    4    0  502  0.22868609979E+02 -0.97121488447E+01  0.38779084284E+02  0.46244880100E+02  0.41800000000E+01 0. -1.
        -11    1    3    3    0    0 -0.35958457910E+02 -0.11785114727E+03  0.62564441846E+03  0.63766201232E+03  0.00000000000E+00 0. -1.
         11    1    3    3    0    0 -0.13228086024E+02  0.18164506412E+01  0.87881602550E+01  0.15984790066E+02  0.00000000000E+00 0.  1.
</event>
<event>
 8    1  0.5900800E-006  0.2227438E+03  0.7561462E-02  0.1131854E+00
         -2   -1    0    0    0  501 -0.00000000000E+00  0.00000000000E+00  0.10182379042E+03  0.10182379042E+03  0.00000000000E+00 0.  1.
          2   -1    0    0  501    0  0.00000000000E+00 -0.00000000000E+00 -0.49422174703E+03  0.49422174703E+03  0.00000000000E+00 0. -1.
         23    2    1    2    0    0 -0.19285943685E+03  0.36363749131E+02 -0.16996527699E+03  0.27411570934E+03  0.87943971303E+02 0.  0.
         23    2    1    2    0    0  0.19285943685E+03 -0.36363749131E+02 -0.22243267962E+03  0.32192982811E+03  0.12508170381E+03 0.  0.
          5    1    4    4  502    0 -0.93401957269E+01 -0.28465175768E+02 -0.31868518253E+02  0.43938369831E+02  0.41800000000E+01 0.  1.
         -5    1    4    4    0  502  0.20219963258E+03 -0.78985733625E+01 -0.19056416137E+03  0.27799145827E+03  0.41800000000E+01 0.  1.
        -11    1    3    3    0    0 -0.38629383041E+02  0.43839791201E+02 -0.29872905012E+02  0.65624286514E+02  0.00000000000E+00 0.  1.
         11    1    3    3    0    0 -0.15423005381E+03 -0.74760420701E+01 -0.14009237198E+03  0.20849142282E+03  0.00000000000E+00 0. -1.
</event>
<event>
 8    1  0.5900800E-006  0.9572483E+02  0.7561462E-02  0.1289552E+00
         -2   -1    0    0    0  501 -0.00000000000E+00  0.00000000000E+00  0.17782522211E+02  0.17782522211E+02  0.00000000000E+00 0.  1.
          2   -1    0    0  501    0  0.00000000000E+00 -0.00000000000E+00 -0.72016665518E+03  0.72016665518E+03  0.00000000000E+00 0. -1.
         23    2    1    2    0    0  0.76339762842E+01 -0.28496632238E+02 -0.25633167542E+03  0.27375085879E+03  0.91450911553E+02 0.  0.
         23    2    1    2    0    0 -0.76339762842E+01  0.28496632238E+02 -0.44605245755E+03  0.46419831860E+03  0.12508776303E+03 0.  0.
          5    1    4    4  502    0  0.57573445906E+02  0.61985965465E+01 -0.23847536822E+03  0.24544061994E+03  0.41800000000E+01 0. -1.
         -5    1    4    4    0  502 -0.65207422190E+02  0.22298035692E+02 -0.20757708933E+03  0.21875769865E+03  0.41800000000E+01 0. -1.
        -11    1    3    3    0    0 -0.13609459768E+02  0.12307275996E+02 -0.61159474243E+01  0.19341438688E+02  0.00000000000E+00 0.  1.
         11    1    3    3    0    0  0.21243436052E+02 -0.40803908234E+02 -0.25021572799E+03  0.25440942010E+03  0.00000000000E+00 0. -1.
</event>
<event>
 8    1  0.5900800E-006  0.9865957E+02  0.7561462E-02  0.1283140E+00
          2   -1    0    0  501    0  0.00000000000E+00  0.00000000000E+00  0.10792428178E+03  0.10792428178E+03  0.00000000000E+00 0. -1.
         -2   -1    0    0    0  501 -0.00000000000E+00 -0.00000000000E+00 -0.11225966260E+03  0.11225966260E+03  0.00000000000E+00 0.  1.
         23    2    1    2    0    0  0.37334478368E+01  0.44594438876E+01 -0.26436713501E+02  0.93041500028E+02  0.89016827815E+02 0.  0.
         23    2    1    2    0    0 -0.37334478368E+01 -0.44594438876E+01  0.22101332678E+02  0.12714244435E+03  0.12507160740E+03 0.  0.
          5    1    4    4  502    0 -0.63560720377E+02 -0.10192036323E+02  0.60315833526E+01  0.64789622449E+02  0.41800000000E+01 0.  1.
         -5    1    4    4    0  502  0.59827272541E+02  0.57325924354E+01  0.16069749325E+02  0.62352821901E+02  0.41800000000E+01 0.  1.
        -11    1    3    3    0    0 -0.14383980614E+02 -0.30202686523E+02 -0.39540446182E+02  0.51793320572E+02  0.00000000000E+00 0.  1.
         11    1    3    3    0    0  0.18117428451E+02  0.34662130411E+02  0.13103732682E+02  0.41248179457E+02  0.00000000000E+00 0. -1.
</event>
<event>
 7    1  0.5900800E-006  0.9067097E+02  0.7561462E-02  0.1301235E+00
         -2   -1    0    0    0  501 -0.00000000000E+00  0.00000000000E+00  0.73961520387E+02  0.73961520387E+02  0.00000000000E+00 0.  1.
          2   -1    0    0  501    0  0.00000000000E+00 -0.00000000000E+00 -0.22098381650E+04  0.22098381650E+04  0.00000000000E+00 0. -1.
         23    2    1    2    0    0 -0.20134268602E+02  0.27461078710E+02  0.54772233773E+02  0.87576179119E+02  0.59246012022E+02 0.  0.
          5    1    1    2  502    0  0.57528628602E+02  0.14304751165E+02 -0.18510133693E+04  0.18519670987E+04  0.41800000000E+01 0. -1.
         -5    1    1    2    0  502 -0.37394360000E+02 -0.41765829875E+02 -0.33963550909E+03  0.34425640755E+03  0.41800000000E+01 0.  1.
        -11    1    3    3    0    0  0.18043116038E+02 -0.10139906764E+01  0.51389361929E+01  0.18788051486E+02  0.00000000000E+00 0. -1.
         11    1    3    3    0    0 -0.38177384640E+02  0.28475069386E+02  0.49633297581E+02  0.68788127633E+02  0.00000000000E+00 0.  1.
</event>
<event>
 8    1  0.5900800E-006  0.8274734E+02  0.7561462E-02  0.1321431E+00
         -1   -1    0    0    0  501 -0.00000000000E+00  0.00000000000E+00  0.10219124323E+03  0.10219124323E+03  0.00000000000E+00 0.  1.
          1   -1    0    0  501    0  0.00000000000E+00 -0.00000000000E+00 -0.13517153630E+03  0.13517153630E+03  0.00000000000E+00 0. -1.
         23    2    1    2    0    0 -0.17882085702E+02 -0.23700544452E+02  0.21631657529E+02  0.97681555627E+02  0.90511175585E+02 0.  0.
         23    2    1    2    0    0  0.17882085702E+02  0.23700544452E+02 -0.54611950603E+02  0.13968122391E+03  0.12508754681E+03 0.  0.
          5    1    4    4  502    0 -0.43251514018E+02  0.13474342101E+02 -0.62236242277E+02  0.77091332928E+02  0.41800000000E+01 0.  1.
         -5    1    4    4    0  502  0.61133599720E+02  0.10226202350E+02  0.76242916736E+01  0.62589890979E+02  0.41800000000E+01 0.  1.
        -11    1    3    3    0    0 -0.19834559625E+02  0.11296051717E+02 -0.28498632950E+02  0.36512773381E+02  0.00000000000E+00 0. -1.
         11    1    3    3    0    0  0.19524739239E+01 -0.34996596169E+02  0.50130290480E+02  0.61168782246E+02  0.00000000000E+00 0.  1.
</event>
<event>
 8    1  0.5900800E-006  0.1006335E+03  0.7561462E-02  0.1278969E+00
         -2   -1    0    0    0  501 -0.00000000000E+00  0.00000000000E+00  0.14169214519E+02  0.14169214519E+02  0.00000000000E+00 0.  1.
          2   -1    0    0  501    0  0.00000000000E+00 -0.00000000000E+00 -0.10816109499E+04  0.10816109499E+04  0.00000000000E+00 0. -1.
         23    2    1    2    0    0  0.49305195594E+02 -0.32084785161E+02 -0.41830140799E+03  0.43208520898E+03  0.90890726364E+02 0.  0.
         23    2    1    2    0    0 -0.49305195594E+02  0.32084785161E+02 -0.64914032738E+03  0.66369495543E+03  0.12508954186E+03 0.  0.
          5    1    4    4  502    0 -0.61065485920E+02  0.51740069413E+02 -0.62513964672E+03  0.63025635948E+03  0.41800000000E+01 0. -1.
         -5    1    4    4    0  502  0.11760290326E+02 -0.19655284252E+02 -0.24000680660E+02  0.33438595959E+02  0.41800000000E+01 0. -1.
        -11    1    3    3    0    0 -0.18846908934E+02 -0.21957205340E+02 -0.53402881068E+02  0.60738723637E+02  0.00000000000E+00 0.  1.
         11    1    3    3    0    0  0.68152104528E+02 -0.10127579821E+02 -0.36489852692E+03  0.37134648534E+03  0.00000000000E+00 0. -1.
</event>
<event>
 8    1  0.5900800E-006  0.8828287E+02  0.7561462E-02  0.1307064E+00
         -1   -1    0    0    0  501 -0.00000000000E+00  0.00000000000E+00  0.91703293526E+02  0.91703293526E+02  0.00000000000E+00 0.  1.
          1   -1    0    0  501    0  0.00000000000E+00 -0.00000000000E+00 -0.18163716375E+03  0.18163716375E+03  0.00000000000E+00 0. -1.
         23    2    1    2    0    0  0.72991318003E+02 -0.46196981769E+01 -0.29819338000E+02  0.11646642077E+03  0.85592991149E+02 0.  0.
         23    2    1    2    0    0 -0.72991318003E+02  0.46196981769E+01 -0.60114532221E+02  0.15687403650E+03  0.12508649899E+03 0.  0.
          5    1    4    4  502    0 -0.37510812993E+02  0.29709212101E+02  0.30076894895E+02  0.56672659913E+02  0.41800000000E+01 0.  1.
         -5    1    4    4    0  502 -0.35480505010E+02 -0.25089513924E+02 -0.90191427116E+02  0.10020137659E+03  0.41800000000E+01 0.  1.
        -11    1    3    3    0    0  0.53367854781E+02  0.16681844471E+02  0.19545846861E+02  0.59232187098E+02  0.00000000000E+00 0.  1.
         11    1    3    3    0    0  0.19623463222E+02 -0.21301542648E+02 -0.49365184861E+02  0.57234233675E+02  0.00000000000E+00 0. -1.
</event>
<event>
 8    1  0.5900800E-006  0.1801613E+03  0.7561462E-02  0.1167647E+00
         -2   -1    0    0    0  501 -0.00000000000E+00  0.00000000000E+00  0.70410514333E+02  0.70410514333E+02  0.00000000000E+00 0.  1.
          2   -1    0    0  501    0  0.00000000000E+00 -0.00000000000E+00 -0.53244127230E+03  0.53244127230E+03  0.00000000000E+00 0. -1.
         23    2    1    2    0    0 -0.15681475701E+03 -0.27526500153E+02 -0.19325643253E+03  0.26634603014E+03  0.90794178377E+02 0.  0.
         23    2    1    2    0    0  0.15681475701E+03  0.27526500153E+02 -0.26877432544E+03  0.33650575650E+03  0.12509160610E+03 0.  0.
          5    1    4    4  502    0  0.11960337141E+03 -0.15026631817E+02 -0.24864336385E+03  0.27635441177E+03  0.41800000000E+01 0. -1.
         -5    1    4    4    0  502  0.37211385602E+02  0.42553131970E+02 -0.20130961589E+02  0.60151344735E+02  0.41800000000E+01 0. -1.
        -11    1    3    3    0    0 -0.50468878276E+02 -0.53503881100E+02 -0.70792798478E+02  0.10208522559E+03  0.00000000000E+00 0.  1.
         11    1    3    3    0    0 -0.10634587873E+03  0.25977380947E+02 -0.12246363405E+03  0.16426080455E+03  0.00000000000E+00 0. -1.
</event>
<event>
 8    1  0.5900800E-006  0.1938177E+03  0.7561462E-02  0.1155062E+00
         -1   -1    0    0    0  501 -0.00000000000E+00  0.00000000000E+00  0.49569418943E+02  0.49569418943E+02  0.00000000000E+00 0.  1.
          1   -1    0    0  501    0  0.00000000000E+00 -0.00000000000E+00 -0.83550809324E+03  0.83550809324E+03  0.00000000000E+00 0. -1.
         23    2    1    2    0    0 -0.31444874680E+02  0.16818000198E+03 -0.34520472547E+03  0.39602894005E+03  0.91647835002E+02 0.  0.
         23    2    1    2    0    0  0.31444874680E+02 -0.16818000198E+03 -0.44073394882E+03  0.48904857213E+03  0.12509515997E+03 0.  0.
          5    1    4    4  502    0 -0.22284404609E+02 -0.13340815443E+03 -0.21211660244E+03  0.25160535723E+03  0.41800000000E+01 0. -1.
         -5    1    4    4    0  502  0.53729279289E+02 -0.34771847552E+02 -0.22861734638E+03  0.23744321490E+03  0.41800000000E+01 0. -1.
        -11    1    3    3    0    0  0.22956242538E+02  0.90349290682E+02 -0.12259017628E+03  0.15400758007E+03  0.00000000000E+00 0.  1.
         11    1    3    3    0    0 -0.54401117218E+02  0.77830711295E+02 -0.22261454919E+03  0.24202135998E+03  0.00000000000E+00 0. -1.
</event>
<event>
 8    1  0.5900800E-006  0.9662118E+02  0.7561462E-02  0.1287566E+00
         -1   -1    0    0    0  501 -0.00000000000E+00  0.00000000000E+00  0.51008505468E+02  0.51008505468E+02  0.00000000000E+00 0.  1.
          1   -1    0    0  501    0  0.00000000000E+00 -0.00000000000E+00 -0.33429080445E+03  0.33429080445E+03  0.00000000000E+00 0. -1.
         23    2    1    2    0    0  0.23568901560E+02 -0.34488481015E+02 -0.24913983565E+02  0.95217186523E+02  0.81857544483E+02 0.  0.
         23    2    1    2    0    0 -0.23568901560E+02  0.34488481015E+02 -0.25836831542E+03  0.29008212340E+03  0.12509397851E+03 0.  0.
          5    1    4    4  502    0  0.45905843793E+02 -0.53996939131E+01 -0.58213060007E+02  0.74449553015E+02  0.41800000000E+01 0. -1.
         -5    1    4    4    0  502 -0.69474745353E+02  0.39888174929E+02 -0.20015525541E+03  0.21563257038E+03  0.41800000000E+01 0. -1.
        -11    1    3    3    0    0  0.28940790784E+02  0.26725590601E+01  0.21035673714E+02  0.35877730025E+02  0.00000000000E+00 0.  1.
         11    1    3    3    0    0 -0.53718892243E+01 -0.37161040075E+02 -0.45949657280E+02  0.59339456498E+02  0.00000000000E+00 0. -1.
</event>
<event>
 8    1  0.5900800E-006  0.1481449E+03  0.7561462E-02  0.1202771E+00
          2   -1    0    0  501    0  0.00000000000E+00  0.00000000000E+00  0.83190745801E+03  0.83190745801E+03  0.00000000000E+00 0. -1.
         -2   -1    0    0    0  501 -0.00000000000E+00 -0.00000000000E+00 -0.27324349062E+02  0.27324349062E+02  0.00000000000E+00 0.  1.
         23    2    1    2    0    0  0.29701100647E+02  0.99780502325E+02  0.29858419337E+03  0.32913633351E+03  0.91323061085E+02 0.  0.
         23    2    1    2    0    0 -0.29701100647E+02 -0.99780502325E+02  0.50599891558E+03  0.53009547356E+03  0.11886128257E+03 0.  0.
          5    1    4    4  502    0  0.16218791849E+02  0.22059271232E+02  0.84420762559E+02  0.88848175037E+02  0.41800000000E+01 0. -1.
         -5    1    4    4    0  502 -0.45919892497E+02 -0.12183977356E+03  0.42157815302E+03  0.44124729852E+03  0.41800000000E+01 0.  1.
        -11    1    3    3    0    0  0.52649976515E+02  0.10247898933E+03  0.24245599981E+03  0.26843784220E+03  0.00000000000E+00 0.  1.
         11    1    3    3    0    0 -0.22948875868E+02 -0.26984870051E+01  0.56128193559E+02  0.60698491315E+02  0.00000000000E+00 0. -1.
</event>
<event>
 8    1  0.5900800E-006  0.1095573E+03  0.7561462E-02  0.1261392E+00
          1   -1    0    0  501    0  0.00000000000E+00  0.00000000000E+00  0.38256959531E+03  0.38256959531E+03  0.00000000000E+00 0. -1.
         -1   -1    0    0    0  501 -0.00000000000E+00 -0.00000000000E+00 -0.35788212527E+02  0.35788212527E+02  0.00000000000E+00 0.  1.
         23    2    1    2    0    0 -0.41448433792E+02  0.11418198808E+02  0.12894636201E+03  0.16350869814E+03  0.90882243403E+02 0.  0.
         23    2    1    2    0    0  0.41448433792E+02 -0.11418198808E+02  0.21783502077E+03  0.25484910969E+03  0.12509046529E+03 0.  0.
          5    1    4    4  502    0  0.15906260222E+02  0.54530914895E+02  0.13052944849E+03  0.14241502420E+03  0.41800000000E+01 0.  1.
         -5    1    4    4    0  502  0.25542173570E+02 -0.65949113704E+02  0.87305572278E+02  0.11243408549E+03  0.41800000000E+01 0.  1.
        -11    1    3    3    0    0 -0.65753861923E+02  0.12713595033E+02  0.58318996141E+02  0.88804905086E+02  0.00000000000E+00 0.  1.
         11    1    3    3    0    0  0.24305428131E+02 -0.12953962245E+01  0.70627365867E+02  0.74703793059E+02  0.00000000000E+00 0. -1.
</event>
<event>
 7    1  0.5900800E-006  0.2713020E+03  0.7561462E-02  0.1100537E+00
          1   -1    0    0  501    0  0.00000000000E+00  0.00000000000E+00  0.42531608260E+03  0.42531608260E+03  0.00000000000E+00 0. -1.
         -1   -1    0    0    0  501 -0.00000000000E+00 -0.00000000000E+00 -0.55536394179E+03  0.55536394179E+03  0.00000000000E+00 0.  1.
         23    2    1    2    0    0  0.19916795455E+03  0.16474509378E+03 -0.46339586827E+03  0.53875512500E+03  0.93340955353E+02 0.  0.
          5    1    1    2  502    0 -0.12690803406E+03 -0.14868645435E+03  0.30552696768E+03  0.36273614542E+03  0.41800000000E+01 0. -1.
         -5    1    1    2    0  502 -0.72259920486E+02 -0.16058639426E+02  0.27821041404E+02  0.79188753959E+02  0.41800000000E+01 0.  1.
        -11    1    3    3    0    0  0.96236915503E+02  0.13500528319E+03 -0.25012065000E+03  0.30008050578E+03  0.00000000000E+00 0. -1.
         11    1    3    3    0    0  0.10293103904E+03  0.29739810590E+02 -0.21327521827E+03  0.23867461922E+03  0.00000000000E+00 0.  1.
</event>
<event>
 8    1  0.5900800E-006  0.1262718E+03  0.7561462E-02  0.1233095E+00
          2   -1    0    0  501    0  0.00000000000E+00  0.00000000000E+00  0.15096829721E+04  0.15096829721E+04  0.00000000000E+00 0. -1.
         -2   -1    0    0    0  501 -0.00000000000E+00 -0.00000000000E+00 -0.11379588563E+02  0.11379588563E+02  0.00000000000E+00 0.  1.
         23    2    1    2    0    0 -0.44702339646E+02  0.47612349363E+02  0.50534229590E+03  0.51812950180E+03  0.93926085985E+02 0.  0.
         23    2    1    2    0    0  0.44702339646E+02 -0.47612349363E+02  0.99296108763E+03  0.10029330589E+04  0.12505104564E+03 0.  0.
          5    1    4    4  502    0  0.49939360026E+02  0.31507982832E+02  0.51923430426E+03  0.52259776864E+03  0.41800000000E+01 0.  1.
         -5    1    4    4    0  502 -0.52370203793E+01 -0.79120332195E+02  0.47372678337E+03  0.48033529022E+03  0.41800000000E+01 0.  1.
        -11    1    3    3    0    0 -0.66990175989E+02  0.66610559347E+01  0.27547890185E+03  0.28358539932E+03  0.00000000000E+00 0.  1.
         11    1    3    3    0    0  0.22287836342E+02  0.40951293428E+02  0.22986339405E+03  0.23454410248E+03  0.00000000000E+00 0. -1.
</event>
<event>
 8    1  0.5900800E-006  0.1229715E+03  0.7561462E-02  0.1238274E+00
         -2   -1    0    0    0  501 -0.00000000000E+00  0.00000000000E+00  0.30167529919E+02  0.30167529919E+02  0.00000000000E+00 0.  1.
          2   -1    0    0  501    0  0.00000000000E+00 -0.00000000000E+00 -0.65198761587E+03  0.65198761587E+03  0.00000000000E+00 0. -1.
         23    2    1    2    0    0  0.57568799150E+01  0.86556377435E+02 -0.24075974236E+03  0.27180653996E+03  0.91588173287E+02 0.  0.
         23    2    1    2    0    0 -0.57568799150E+01 -0.86556377435E+02 -0.38106034360E+03  0.41034860583E+03  0.12511532561E+03 0.  0.
          5    1    4    4  502    0  0.40841899721E+02 -0.33129934081E+02 -0.29056375508E+03  0.29531410645E+03  0.41800000000E+01 0.  1.
         -5    1    4    4    0  502 -0.46598779636E+02 -0.53426443354E+02 -0.90496588520E+02  0.11503449938E+03  0.41800000000E+01 0.  1.
        -11    1    3    3    0    0  0.41676360457E+02  0.19308871885E+02 -0.59504334014E+02  0.75169922980E+02  0.00000000000E+00 0. -1.
         11    1    3    3    0    0 -0.35919480542E+02  0.67247505550E+02 -0.18125540834E+03  0.19663661698E+03  0.00000000000E+00 0.  1.
</event>
<event>
 8    1  0.5900800E-006  0.1890610E+03  0.7561462E-02  0.1159311E+00
         -2   -1    0    0    0  501 -0.00000000000E+00  0.00000000000E+00  0.62263593633E+03  0.62263593633E+03  0.00000000000E+00 0.  1.
          2   -1    0    0  501    0  0.00000000000E+00 -0.00000000000E+00 -0.67992714089E+02  0.67992714089E+02  0.00000000000E+00 0. -1.
         23    2    1    2    0    0 -0.26909126206E+02  0.17123789481E+03  0.28186925346E+03  0.34408050493E+03  0.94311187763E+02 0.  0.
         23    2    1    2    0    0  0.26909126206E+02 -0.17123789481E+03  0.27277396878E+03  0.34654814548E+03  0.12507382380E+03 0.  0.
          5    1    4    4  502    0  0.67490390802E+02 -0.12682391348E+03  0.13962875132E+03  0.20038193151E+03  0.41800000000E+01 0. -1.
         -5    1    4    4    0  502 -0.40581264596E+02 -0.44413981333E+02  0.13314521746E+03  0.14616621397E+03  0.41800000000E+01 0. -1.
        -11    1    3    3    0    0 -0.11582936253E+02  0.12135192511E+03  0.26064327602E+03  0.28774184866E+03  0.00000000000E+00 0.  1.
         11    1    3    3    0    0 -0.15326189953E+02  0.49885969706E+02  0.21225977441E+02  0.56338656270E+02  0.00000000000E+00 0. -1.
</event>
<event>
 8    1  0.5900800E-006  0.1149950E+03  0.7561462E-02  0.1251590E+00
         -2   -1    0    0    0  501 -0.00000000000E+00  0.00000000000E+00  0.56661252511E+02  0.56661252511E+02  0.00000000000E+00 0. -1.
          2   -1    0    0  501    0  0.00000000000E+00 -0.00000000000E+00 -0.34699534500E+03  0.34699534500E+03  0.00000000000E+00 0.  1.
         23    2    1    2    0    0 -0.41362750572E+02 -0.77721773847E+02 -0.14275159262E+03  0.19110446237E+03  0.91604296180E+02 0.  0.
         23    2    1    2    0    0  0.41362750572E+02  0.77721773847E+02 -0.14758249987E+03  0.21255213514E+03  0.12508502956E+03 0.  0.
          5    1    4    4  502    0  0.13376629558E+02 -0.15947624612E+02  0.12716753020E+02  0.24747710126E+02  0.41800000000E+01 0. -1.
         -5    1    4    4    0  502  0.27986121014E+02  0.93669398459E+02 -0.16029925289E+03  0.18780442501E+03  0.41800000000E+01 0. -1.
        -11    1    3    3    0    0 -0.31110984541E+02  0.13843995772E+01 -0.44640769315E+01  0.31460100193E+02  0.00000000000E+00 0. -1.
         11    1    3    3    0    0 -0.10251766031E+02 -0.79106173424E+02 -0.13828751569E+03  0.15964436218E+03  0.00000000000E+00 0.  1.
</event>
<event>
 8    1  0.5900800E-006  0.9528201E+02  0.7561462E-02  0.1290542E+00
         -1   -1    0    0    0  501 -0.00000000000E+00  0.00000000000E+00  0.58732100740E+02  0.58732100740E+02  0.00000000000E+00 0.  1.
          1   -1    0    0  501    0  0.00000000000E+00 -0.00000000000E+00 -0.26489025124E+03  0.26489025124E+03  0.00000000000E+00 0. -1.
         23    2    1    2    0    0  0.47017298379E+02  0.36729013466E+02 -0.10300330580E+03  0.15085788305E+03  0.92675633770E+02 0.  0.
         23    2    1    2    0    0 -0.47017298379E+02 -0.36729013466E+02 -0.10315484470E+03  0.17276446893E+03  0.12508794092E+03 0.  0.
          5    1    4    4  502    0  0.29689653152E+02 -0.17047306350E+01  0.99383158333E+01  0.31632643462E+02  0.41800000000E+01 0.  1.
         -5    1    4    4    0  502 -0.76706951531E+02 -0.35024282831E+02 -0.11309316053E+03  0.14113182547E+03  0.41800000000E+01 0.  1.
        -11    1    3    3    0    0  0.50770258529E+02  0.13444978052E+02 -0.81897275276E+01  0.53155039487E+02  0.00000000000E+00 0.  1.
         11    1    3    3    0    0 -0.37529601495E+01  0.23284035414E+02 -0.94813578271E+02  0.97702843559E+02  0.00000000000E+00 0. -1.
</event>
<event>
 8    1  0.5900800E-006  0.1078093E+03  0.7561462E-02  0.1264681E+00
         -2   -1    0    0    0  501 -0.00000000000E+00  0.00000000000E+00  0.39645639371E+03  0.39645639371E+03  0.00000000000E+00 0.  1.
          2   -1    0    0  501    0  0.00000000000E+00 -0.00000000000E+00 -0.33914182819E+02  0.33914182819E+02  0.00000000000E+00 0. -1.
         23    2    1    2    0    0  0.42431912861E+01 -0.43459409588E+01  0.23220455690E+03  0.24962262667E+03  0.91409012811E+02 0.  0.
         23    2    1    2    0    0 -0.42431912861E+01  0.43459409588E+01  0.13033765399E+03  0.18074794986E+03  0.12508007618E+03 0.  0.
          5    1    4    4  502    0 -0.63862603880E+02  0.87572798321E+01  0.77143345730E+02  0.10061655090E+03  0.41800000000E+01 0.  1.
         -5    1    4    4    0  502  0.59619412594E+02 -0.44113388733E+01  0.53194308260E+02  0.80131398964E+02  0.41800000000E+01 0.  1.
        -11    1    3    3    0    0  0.14186531344E+02  0.41668950607E+02  0.99027059612E+02  0.10836935753E+03  0.00000000000E+00 0.  1.
         11    1    3    3    0    0 -0.99433400580E+01 -0.46014891565E+02  0.13317749729E+03  0.14125326914E+03  0.00000000000E+00 0. -1.
</event>
<event>
 8    1  0.5900800E-006  0.2036781E+03  0.7561462E-02  0.1146672E+00
          2   -1    0    0  501    0  0.00000000000E+00  0.00000000000E+00  0.12180221182E+04  0.12180221182E+04  0.00000000000E+00 0. -1.
         -2   -1    0    0    0  501 -0.00000000000E+00 -0.00000000000E+00 -0.35407284621E+02  0.35407284621E+02  0.00000000000E+00 0.  1.
         23    2    1    2    0    0 -0.15669048612E+03 -0.48269440372E+02  0.48082786726E+03  0.52196900870E+03  0.11989312240E+03 0.  0.
         23    2    1    2    0    0  0.15669048612E+03  0.48269440372E+02  0.70178696627E+03  0.73146039407E+03  0.12509002659E+03 0.  0.
          5    1    4    4  502    0  0.11282691324E+03 -0.27923832978E+02  0.44769599627E+03  0.46255684005E+03  0.41800000000E+01 0. -1.
         -5    1    4    4    0  502  0.43863572877E+02  0.76193273350E+02  0.25409097000E+03  0.26890355402E+03  0.41800000000E+01 0. -1.
        -11    1    3    3    0    0 -0.13647655219E+03 -0.85232036243E+02  0.38698217087E+03  0.41910088269E+03  0.00000000000E+00 0.  1.
         11    1    3    3    0    0 -0.20213933928E+02  0.36962595871E+02  0.93845696395E+02  0.10286812602E+03  0.00000000000E+00 0. -1.
</event>
<event>
 8    1  0.5900800E-006  0.1014637E+03  0.7561462E-02  0.1277248E+00
          1   -1    0    0  501    0  0.00000000000E+00  0.00000000000E+00  0.44753225004E+03  0.44753225004E+03  0.00000000000E+00 0. -1.
         -1   -1    0    0    0  501 -0.00000000000E+00 -0.00000000000E+00 -0.31722488729E+02  0.31722488729E+02  0.00000000000E+00 0.  1.
         23    2    1    2    0    0 -0.10394921058E+02  0.48185592158E+02  0.11697939609E+03  0.15569391457E+03  0.90147158848E+02 0.  0.
         23    2    1    2    0    0  0.10394921058E+02 -0.48185592158E+02  0.29883036522E+03  0.32356082420E+03  0.11385128065E+03 0.  0.
          5    1    4    4  502    0  0.33920473090E+02 -0.75011140730E+02  0.15786709053E+03  0.17809199982E+03  0.41800000000E+01 0. -1.
         -5    1    4    4    0  502 -0.23525552032E+02  0.26825548573E+02  0.14096327469E+03  0.14546882438E+03  0.41800000000E+01 0.  1.
        -11    1    3    3    0    0  0.28845329999E+02  0.12159749663E+02  0.91378757677E+02  0.96591872998E+02  0.00000000000E+00 0. -1.
         11    1    3    3    0    0 -0.39240251057E+02  0.36025842495E+02  0.25600638411E+02  0.59102041568E+02  0.00000000000E+00 0.  1.
</event>
<event>
 8    1  0.5900800E-006  0.1703447E+03  0.7561462E-02  0.1177489E+00
          1   -1    0    0  501    0  0.00000000000E+00  0.00000000000E+00  0.12806955516E+04  0.12806955516E+04  0.00000000000E+00 0. -1.
         -1   -1    0    0    0  501 -0.00000000000E+00 -0.00000000000E+00 -0.27644198751E+02  0.27644198751E+02  0.00000000000E+00 0.  1.
         23    2    1    2    0    0 -0.44358455323E+02  0.13976971992E+03  0.43113372453E+03  0.46412478312E+03  0.89622980977E+02 0.  0.
         23    2    1    2    0    0  0.44358455323E+02 -0.13976971992E+03  0.82191762828E+03  0.84421496718E+03  0.12508827274E+03 0.  0.
          5    1    4    4  502    0  0.81751366979E+02 -0.67503996378E+02  0.36576102664E+03  0.38083943669E+03  0.41800000000E+01 0.  1.
         -5    1    4    4    0  502 -0.37392911656E+02 -0.72265723544E+02  0.45615660164E+03  0.46337553049E+03  0.41800000000E+01 0.  1.
        -11    1    3    3    0    0 -0.50667541382E+02  0.92878868865E+02  0.18182617485E+03  0.21036739741E+03  0.00000000000E+00 0.  1.
         11    1    3    3    0    0  0.63090860593E+01  0.46890851057E+02  0.24930754967E+03  0.25375738571E+03  0.00000000000E+00 0. -1.
</event>
<event>
 8    1  0.5900800E-006  0.5951210E+02  0.7561462E-02  0.1399891E+00
          4   -1    0    0  501    0  0.00000000000E+00  0.00000000000E+00  0.17344499636E+03  0.17344499636E+03  0.00000000000E+00 0. -1.
         -4   -1    0    0    0  501 -0.00000000000E+00 -0.00000000000E+00 -0.14695477925E+03  0.14695477925E+03  0.00000000000E+00 0.  1.
         23    2    1    2    0    0 -0.32672321552E+02  0.20774255146E+02 -0.97727254015E+02  0.13882866631E+03  0.90684795528E+02 0.  0.
         23    2    1    2    0    0  0.32672321552E+02 -0.20774255146E+02  0.12421747112E+03  0.18157110930E+03  0.12664532099E+03 0.  0.
          5    1    4    4  502    0  0.53409697257E+02 -0.24277224223E+02  0.14200966671E+03  0.15370815599E+03  0.41800000000E+01 0. -1.
         -5    1    4    4    0  502 -0.20737375706E+02  0.35029690772E+01 -0.17792195591E+02  0.27862953316E+02  0.41800000000E+01 0.  1.
        -11    1    3    3    0    0 -0.20774426700E+02  0.14287398397E+02 -0.11451281560E+03  0.11725566721E+03  0.00000000000E+00 0.  1.
         11    1    3    3    0    0 -0.11897894852E+02  0.64868567492E+01  0.16785561583E+02  0.21572999097E+02  0.00000000000E+00 0. -1.
</event>
<event>
 7    1  0.5900800E-006  0.2562406E+03  0.7561462E-02  0.1109423E+00
         -2   -1    0    0    0  501 -0.00000000000E+00  0.00000000000E+00  0.16513933549E+03  0.16513933549E+03  0.00000000000E+00 0.  1.
          2   -1    0    0  501    0  0.00000000000E+00 -0.00000000000E+00 -0.48653995620E+03  0.48653995620E+03  0.00000000000E+00 0. -1.
         23    2    1    2    0    0  0.16037323196E+02 -0.27036458523E+02  0.16744987130E+01  0.95756060637E+02  0.90433696032E+02 0.  0.
          5    1    1    2  502    0  0.19841098564E+03  0.38105713855E+02 -0.26533020926E+03  0.33352144908E+03  0.41800000000E+01 0. -1.
         -5    1    1    2    0  502 -0.21444830883E+03 -0.11069255331E+02 -0.57744910157E+02  0.22240178197E+03  0.41800000000E+01 0.  1.
        -11    1    3    3    0    0  0.51658453146E+02 -0.30245020123E+02 -0.12220156265E+01  0.59873619782E+02  0.00000000000E+00 0.  1.
         11    1    3    3    0    0 -0.35621129949E+02  0.32085615994E+01  0.28965143395E+01  0.35882440855E+02  0.00000000000E+00 0. -1.
</event>
<event>
 8    1  0.5900800E-006  0.2651423E+03  0.7561462E-02  0.1104092E+00
          1   -1    0    0  501    0  0.00000000000E+00  0.00000000000E+00  0.14346376473E+04  0.14346376473E+04  0.00000000000E+00 0. -1.
         -1   -1    0    0    0  501 -0.00000000000E+00 -0.00000000000E+00 -0.96797497527E+02  0.96797497527E+02  0.00000000000E+00 0.  1.
         23    2    1    2    0    0 -0.14800993464E+03  0.20575848809E+03  0.14525692909E+03  0.30581454278E+03  0.90440383409E+02 0.  0.
         23    2    1    2    0    0  0.14800993464E+03 -0.20575848809E+03  0.11925832207E+04  0.12256206020E+04  0.12509047028E+03 0.  0.
          5    1    4    4  502    0  0.80045396118E+02 -0.18706349646E+03  0.10000335981E+04  0.10205315708E+04  0.41800000000E+01 0. -1.
         -5    1    4    4    0  502  0.67964538525E+02 -0.18694991628E+02  0.19254962256E+03  0.20508903130E+03  0.41800000000E+01 0. -1.
        -11    1    3    3    0    0 -0.10328565208E+03  0.11245083624E+03  0.39188299178E+02  0.15763514611E+03  0.00000000000E+00 0.  1.
         11    1    3    3    0    0 -0.44724282561E+02  0.93307651843E+02  0.10606862992E+03  0.14817939666E+03  0.00000000000E+00 0. -1.
</event>
<event>
 8    1  0.5900800E-006  0.7827219E+02  0.7561462E-02  0.1334027E+00
          2   -1    0    0  501    0  0.00000000000E+00  0.00000000000E+00  0.38489841468E+03  0.38489841468E+03  0.00000000000E+00 0. -1.
         -2   -1    0    0    0  501 -0.00000000000E+00 -0.00000000000E+00 -0.36184634347E+02  0.36184634347E+02  0.00000000000E+00 0.  1.
         23    2    1    2    0    0 -0.26886965992E+02  0.30225833019E+02  0.12114618762E+03  0.15826891957E+03  0.93467332293E+02 0.  0.
         23    2    1    2    0    0  0.26886965992E+02 -0.30225833019E+02  0.22756759272E+03  0.26281412946E+03  0.12509095677E+03 0.  0.
          5    1    4    4  502    0 -0.20431075984E+02 -0.22714457811E+01 -0.68003365422E+01  0.22052331144E+02  0.41800000000E+01 0. -1.
         -5    1    4    4    0  502  0.47318041976E+02 -0.27954387238E+02  0.23436792926E+03  0.24076179832E+03  0.41800000000E+01 0. -1.
        -11    1    3    3    0    0 -0.50686722326E+02  0.22171299521E+02  0.28415323427E+02  0.62194380358E+02  0.00000000000E+00 0.  1.
         11    1    3    3    0    0  0.23799756334E+02  0.80545334981E+01  0.92730864193E+02  0.96074539215E+02  0.00000000000E+00 0. -1.
</event>
<event>
 8    1  0.5900800E-006  0.8549629E+02  0.7561462E-02  0.1314140E+00
          2   -1    0    0  501    0  0.00000000000E+00  0.00000000000E+00  0.12643645712E+03  0.12643645712E+03  0.00000000000E+00 0. -1.
         -2   -1    0    0    0  501 -0.00000000000E+00 -0.00000000000E+00 -0.11272274756E+03  0.11272274756E+03  0.00000000000E+00 0.  1.
         23    2    1    2    0    0 -0.21088278470E+02  0.44182475198E+02 -0.36339047698E+02  0.10870908456E+03  0.90001844842E+02 0.  0.
         23    2    1    2    0    0  0.21088278470E+02 -0.44182475198E+02  0.50052757253E+02  0.13045012012E+03  0.11006883631E+03 0.  0.
          5    1    4    4  502    0 -0.62116617267E+01 -0.42069733962E+02  0.79354951034E+02  0.90128396805E+02  0.41800000000E+01 0. -1.
         -5    1    4    4    0  502  0.27299940197E+02 -0.21127412356E+01 -0.29302193781E+02  0.40321723310E+02  0.41800000000E+01 0.  1.
        -11    1    3    3    0    0 -0.29537899212E+02  0.68619218916E+02 -0.35813502781E+02  0.82847399935E+02  0.00000000000E+00 0.  1.
         11    1    3    3    0    0  0.84496207420E+01 -0.24436743718E+02 -0.52554491670E+00  0.25861684626E+02  0.00000000000E+00 0. -1.
</event>
<event>
 8    1  0.5900800E-006  0.1049236E+03  0.7561462E-02  0.1270270E+00
         -1   -1    0    0    0  501 -0.00000000000E+00  0.00000000000E+00  0.40774298785E+02  0.40774298785E+02  0.00000000000E+00 0.  1.
          1   -1    0    0  501    0  0.00000000000E+00 -0.00000000000E+00 -0.36057528016E+03  0.36057528016E+03  0.00000000000E+00 0. -1.
         23    2    1    2    0    0  0.40028772798E+02  0.32223719896E+02 -0.11348043850E+03  0.15466323672E+03  0.91663711984E+02 0.  0.
         23    2    1    2    0    0 -0.40028772798E+02 -0.32223719896E+02 -0.20632054288E+03  0.24668634223E+03  0.12508123062E+03 0.  0.
          5    1    4    4  502    0  0.25351380547E+02 -0.31289459365E+02 -0.12935234984E+02  0.42503123028E+02  0.41800000000E+01 0. -1.
         -5    1    4    4    0  502 -0.65380153345E+02 -0.93426053057E+00 -0.19338530789E+03  0.20418321920E+03  0.41800000000E+01 0. -1.
        -11    1    3    3    0    0  0.66685989513E+02  0.37730488540E+02 -0.72620894068E+02  0.10556706502E+03  0.00000000000E+00 0.  1.
         11    1    3    3    0    0 -0.26657216715E+02 -0.55067686444E+01 -0.40859544430E+02  0.49096171693E+02  0.00000000000E+00 0. -1.
</event>
<event>
 8    1  0.5900800E-006  0.1043647E+03  0.7561462E-02  0.1271376E+00
          1   -1    0    0  501    0  0.00000000000E+00  0.00000000000E+00  0.94985485293E+03  0.94985485293E+03  0.00000000000E+00 0. -1.
         -1   -1    0    0    0  501 -0.00000000000E+00 -0.00000000000E+00 -0.48914818269E+02  0.48914818269E+02  0.00000000000E+00 0.  1.
         23    2    1    2    0    0  0.63949386327E+02 -0.69646013614E+02  0.63175516180E+02  0.14645699211E+03  0.92295251602E+02 0.  0.
         23    2    1    2    0    0 -0.63949386327E+02  0.69646013614E+02  0.83776451849E+03  0.85231267910E+03  0.12508966102E+03 0.  0.
          5    1    4    4  502    0 -0.10424933619E+02  0.53974944635E+02  0.11653565713E+03  0.12891860096E+03  0.41800000000E+01 0.  1.
         -5    1    4    4    0  502 -0.53524452708E+02  0.15671068979E+02  0.72122886135E+03  0.72339407814E+03  0.41800000000E+01 0.  1.
        -11    1    3    3    0    0  0.44700074597E+02 -0.63119938066E+02 -0.28262445741E+01  0.77396452818E+02  0.00000000000E+00 0.  1.
         11    1    3    3    0    0  0.19249311730E+02 -0.65260755483E+01  0.66001760754E+02  0.69060539288E+02  0.00000000000E+00 0. -1.
</event>
<event>
 8    1  0.5900800E-006  0.1043143E+03  0.7561462E-02  0.1271476E+00
         -2   -1    0    0    0  501 -0.00000000000E+00  0.00000000000E+00  0.23272859925E+03  0.23272859925E+03  0.00000000000E+00 0.  1.
          2   -1    0    0  501    0  0.00000000000E+00 -0.00000000000E+00 -0.55266212288E+02  0.55266212288E+02  0.00000000000E+00 0. -1.
         23    2    1    2    0    0  0.27818184069E+02 -0.18604242551E+02  0.10611110015E+03  0.14015821209E+03  0.85233735308E+02 0.  0.
         23    2    1    2    0    0 -0.27818184069E+02  0.18604242551E+02  0.71351286818E+02  0.14783659946E+03  0.12507871443E+03 0.  0.
          5    1    4    4  502    0 -0.43862125920E+02  0.65310818644E+02  0.53161626465E+02  0.95042201419E+02  0.41800000000E+01 0.  1.
         -5    1    4    4    0  502  0.16043941852E+02 -0.46706576093E+02  0.18189660353E+02  0.52794398038E+02  0.41800000000E+01 0.  1.
        -11    1    3    3    0    0  0.38615176219E+02 -0.40445222194E+02  0.10072464488E+03  0.11520591096E+03  0.00000000000E+00 0.  1.
         11    1    3    3    0    0 -0.10796992151E+02  0.21840979643E+02  0.53864552651E+01  0.24952301128E+02  0.00000000000E+00 0. -1.
</event>
<event>
 8    1  0.5900800E-006  0.1850233E+03  0.7561462E-02  0.1163028E+00
         -1   -1    0    0    0  501 -0.00000000000E+00  0.00000000000E+00  0.75579613658E+03  0.75579613658E+03  0.00000000000E+00 0.  1.
          1   -1    0    0  501    0  0.00000000000E+00 -0.00000000000E+00 -0.50680891611E+02  0.50680891611E+02  0.00000000000E+00 0. -1.
         23    2    1    2    0    0 -0.13889431585E+03 -0.69182110631E+02  0.42139344545E+03  0.45974537841E+03  0.98567650343E+02 0.  0.
         23    2    1    2    0    0  0.13889431585E+03  0.69182110631E+02  0.28372179952E+03  0.34673164978E+03  0.12508789722E+03 0.  0.
          5    1    4    4  502    0  0.13802319735E+03  0.13780578546E+02  0.23457594444E+03  0.27255027694E+03  0.41800000000E+01 0. -1.
         -5    1    4    4    0  502  0.87111850022E+00  0.55401532085E+02  0.49145855083E+02  0.74181372842E+02  0.41800000000E+01 0. -1.
        -11    1    3    3    0    0 -0.16967946762E+02  0.18820822869E+02  0.24191352728E+02  0.35033642940E+02  0.00000000000E+00 0.  1.
         11    1    3    3    0    0 -0.12192636909E+03 -0.88002933501E+02  0.39720209272E+03  0.42471173547E+03  0.00000000000E+00 0. -1.
</event>
<event>
 8    1  0.5900800E-006  0.9919077E+02  0.7561462E-02  0.1282007E+00
         -1   -1    0    0    0  501 -0.00000000000E+00  0.00000000000E+00  0.31229314331E+02  0.31229314331E+02  0.00000000000E+00 0.  1.
          1   -1    0    0  501    0  0.00000000000E+00 -0.00000000000E+00 -0.39709015718E+03  0.39709015718E+03  0.00000000000E+00 0. -1.
         23    2    1    2    0    0 -0.59956057896E+01  0.24071445960E+02 -0.14343817770E+03  0.17193218001E+03  0.91491977248E+02 0.  0.
         23    2    1    2    0    0  0.59956057896E+01 -0.24071445960E+02 -0.22242266514E+03  0.25638729150E+03  0.12508884632E+03 0.  0.
          5    1    4    4  502    0  0.18688589448E+02  0.48975340142E+02 -0.10543519716E+03  0.11782147732E+03  0.41800000000E+01 0.  1.
         -5    1    4    4    0  502 -0.12692983658E+02 -0.73046786102E+02 -0.11698746798E+03  0.13856581418E+03  0.41800000000E+01 0.  1.
        -11    1    3    3    0    0  0.10157117968E+02 -0.21179253445E+02 -0.32176462072E+01  0.23708248965E+02  0.00000000000E+00 0.  1.
         11    1    3    3    0    0 -0.16152723757E+02  0.45250699404E+02 -0.14022053150E+03  0.14822393105E+03  0.00000000000E+00 0. -1.
</event>
<event>
 8    1  0.5900800E-006  0.1361288E+03  0.7561462E-02  0.1218635E+00
          2   -1    0    0  501    0  0.00000000000E+00  0.00000000000E+00  0.16433278936E+03  0.16433278936E+03  0.00000000000E+00 0. -1.
         -2   -1    0    0    0  501 -0.00000000000E+00 -0.00000000000E+00 -0.17722040684E+03  0.17722040684E+03  0.00000000000E+00 0.  1.
         23    2    1    2    0    0  0.62533536454E+02  0.10373983854E+03 -0.57680631826E+02  0.16176888801E+03  0.90386506503E+02 0.  0.
         23    2    1    2    0    0 -0.62533536454E+02 -0.10373983854E+03  0.44793014349E+02  0.17978430819E+03  0.12507432212E+03 0.  0.
          5    1    4    4  502    0  0.10671148585E+02 -0.10576196793E+02  0.58402074078E+02  0.60448358186E+02  0.41800000000E+01 0.  1.
         -5    1    4    4    0  502 -0.73204685039E+02 -0.93163641751E+02 -0.13609059729E+02  0.11933595000E+03  0.41800000000E+01 0.  1.
        -11    1    3    3    0    0 -0.83416274747E+01  0.45822225806E+02 -0.52370273707E+02  0.70084981950E+02  0.00000000000E+00 0.  1.
         11    1    3    3    0    0  0.70875163929E+02  0.57917612739E+02 -0.53103581189E+01  0.91683906061E+02  0.00000000000E+00 0. -1.
</event>
<event>
 8    1  0.5900800E-006  0.1216534E+03  0.7561462E-02  0.1240394E+00
          1   -1    0    0  501    0  0.00000000000E+00  0.00000000000E+00  0.28535946783E+03  0.28535946783E+03  0.00000000000E+00 0. -1.
         -1   -1    0    0    0  501 -0.00000000000E+00 -0.00000000000E+00 -0.66807069809E+02  0.66807069809E+02  0.00000000000E+00 0.  1.
         23    2    1    2    0    0 -0.68148346507E+02  0.33282689683E+02  0.48802632902E+02  0.12806840162E+03  0.90927905236E+02 0.  0.
         23    2    1    2    0    0  0.68148346507E+02 -0.33282689683E+02  0.16974976512E+03  0.22409813602E+03  0.12511217865E+03 0.  0.
          5    1    4    4  502    0 -0.14536969534E+02  0.21899845175E+02  0.97683535069E+02  0.10124461529E+03  0.41800000000E+01 0.  1.
         -5    1    4    4    0  502  0.82685316041E+02 -0.55182534858E+02  0.72066230050E+02  0.12285352073E+03  0.41800000000E+01 0.  1.
        -11    1    3    3    0    0 -0.32889538215E+02 -0.30152627153E+02  0.98254768265E+01  0.45688539516E+02  0.00000000000E+00 0.  1.
         11    1    3    3    0    0 -0.35258808292E+02  0.63435316836E+02  0.38977156076E+02  0.82379862102E+02  0.00000000000E+00 0. -1.
</event>
<event>
 8    1  0.5900800E-006  0.1077306E+03  0.7561462E-02  0.1264831E+00
          2   -1    0    0  501    0  0.00000000000E+00  0.00000000000E+00  0.81668007757E+02  0.81668007757E+02  0.00000000000E+00 0. -1.
         -2   -1    0    0    0  501 -0.00000000000E+00 -0.00000000000E+00 -0.18357854166E+03  0.18357854166E+03  0.00000000000E+00 0.  1.
         23    2    1    2    0    0 -0.17941988583E+02  0.34209580805E+02 -0.87954213588E+02  0.13358330639E+03  0.92824273148E+02 0.  0.
         23    2    1    2    0    0  0.17941988583E+02 -0.34209580805E+02 -0.13956320318E+02  0.13166324303E+03  0.12509284678E+03 0.  0.
          5    1    4    4  502    0  0.22893548931E+02 -0.80575332454E+02 -0.51575244560E+01  0.84027205364E+02  0.41800000000E+01 0. -1.
         -5    1    4    4    0  502 -0.49515603476E+01  0.46365751649E+02 -0.87987958624E+01  0.47636037666E+02  0.41800000000E+01 0. -1.
        -11    1    3    3    0    0  0.16619211778E+01 -0.23638307116E+02  0.31435507713E+01  0.23904256039E+02  0.00000000000E+00 0. -1.
         11    1    3    3    0    0 -0.19603909761E+02  0.57847887921E+02 -0.91097764360E+02  0.10967905035E+03  0.00000000000E+00 0.  1.
</event>
<event>
 8    1  0.5900800E-006  0.1332358E+03  0.7561462E-02  0.1222732E+00
         -1   -1    0    0    0  501 -0.00000000000E+00  0.00000000000E+00  0.30018898016E+02  0.30018898016E+02  0.00000000000E+00 0.  1.
          1   -1    0    0  501    0  0.00000000000E+00 -0.00000000000E+00 -0.70392866335E+03  0.70392866335E+03  0.00000000000E+00 0. -1.
         23    2    1    2    0    0  0.29101691754E+02 -0.92970037438E+02 -0.26844699340E+03  0.29858683766E+03  0.87177835699E+02 0.  0.
         23    2    1    2    0    0 -0.29101691754E+02  0.92970037438E+02 -0.40546277194E+03  0.43536072370E+03  0.12509422046E+03 0.  0.
          5    1    4    4  502    0 -0.63653596385E+02  0.79987784608E+02 -0.18159759305E+03  0.20843460418E+03  0.41800000000E+01 0. -1.
         -5    1    4    4    0  502  0.34551904631E+02  0.12982252830E+02 -0.22386517889E+03  0.22692611952E+03  0.41800000000E+01 0. -1.
        -11    1    3    3    0    0 -0.19615352352E+02 -0.70843713255E+02 -0.18909663898E+03  0.20288206582E+03  0.00000000000E+00 0.  1.
         11    1    3    3    0    0  0.48717044106E+02 -0.22126324183E+02 -0.79350354413E+02  0.95704771844E+02  0.00000000000E+00 0. -1.
</event>
<event>
 7    1  0.5900800E-006  0.1183480E+03  0.7561462E-02  0.1245847E+00
          1   -1    0    0  501    0  0.00000000000E+00  0.00000000000E+00  0.90547243755E+03  0.90547243755E+03  0.00000000000E+00 0. -1.
         -1   -1    0    0    0  501 -0.00000000000E+00 -0.00000000000E+00 -0.21312549551E+02  0.21312549551E+02  0.00000000000E+00 0.  1.
         23    2    1    2    0    0  0.46504749493E+01 -0.29915930352E+02  0.17073520366E+03  0.19886902906E+03  0.97374489177E+02 0.  0.
          5    1    1    2  502    0 -0.50171754777E+02 -0.30585379984E+02  0.44851818479E+03  0.45237009730E+03  0.41800000000E+01 0. -1.
         -5    1    1    2    0  502  0.45521279828E+02  0.60501310336E+02  0.26490649956E+03  0.27554586075E+03  0.41800000000E+01 0.  1.
        -11    1    3    3    0    0 -0.30572731382E+01  0.35730748927E+02  0.61604607699E+02  0.71282263065E+02  0.00000000000E+00 0.  1.
         11    1    3    3    0    0  0.77077480875E+01 -0.65646679280E+02  0.10913059596E+03  0.12758676599E+03  0.00000000000E+00 0. -1.
</event>
<event>
 8    1  0.1230347E-005  0.1108471E+03  0.7561462E-02  0.1259009E+00
          1   -1    0    0  501    0  0.00000000000E+00  0.00000000000E+00  0.26232943457E+03  0.26232943457E+03  0.00000000000E+00 0. -1.
         -1   -1    0    0    0  501 -0.00000000000E+00 -0.00000000000E+00 -0.75104116819E+02  0.75104116819E+02  0.00000000000E+00 0.  1.
         23    2    1    2    0    0 -0.58753393825E+02  0.59928839769E+02  0.42669571017E+02  0.12865828152E+03  0.87685996544E+02 0.  0.
         23    2    1    2    0    0  0.58753393825E+02 -0.59928839769E+02  0.14455574674E+03  0.20877526988E+03  0.12508925723E+03 0.  0.
          5    1    4    4  502    0  0.75251382362E+01  0.30040593049E+02  0.40962003452E+00  0.31252281913E+02  0.41800000000E+01 0.  1.
         -5    1    4    4    0  502  0.51228255589E+02 -0.89969432818E+02  0.14414612670E+03  0.17752298796E+03  0.41800000000E+01 0.  1.
        -11    1    3    3    0    0 -0.32657760051E+02  0.17590242381E+02  0.64450943933E+02  0.74363096307E+02  0.00000000000E+00 0. -1.
         11    1    3    3    0    0 -0.26095633774E+02  0.42338597388E+02 -0.21781372915E+02  0.54295185209E+02  0.00000000000E+00 0.  1.
</event>
<event>
 8    1  0.5900800E-006  0.1632878E+03  0.7561462E-02  0.1185034E+00
         -2   -1    0    0    0  501 -0.00000000000E+00  0.00000000000E+00  0.45037329728E+02  0.45037329728E+02  0.00000000000E+00 0.  1.
          2   -1    0    0  501    0  0.00000000000E+00 -0.00000000000E+00 -0.72237610273E+03  0.72237610273E+03  0.00000000000E+00 0. -1.
         23    2    1    2    0    0  0.12979915978E+03  0.24167940364E+02 -0.20456222845E+03  0.26085946724E+03  0.93648519054E+02 0.  0.
         23    2    1    2    0    0 -0.12979915978E+03 -0.24167940364E+02 -0.47277654455E+03  0.50655396522E+03  0.12508935758E+03 0.  0.
          5    1    4    4  502    0  0.42174071097E+01  0.24962390217E+02 -0.22331991041E+02  0.34016138404E+02  0.41800000000E+01 0. -1.
         -5    1    4    4    0  502 -0.13401656688E+03 -0.49130330581E+02 -0.45044455351E+03  0.47253782682E+03  0.41800000000E+01 0. -1.
        -11    1    3    3    0    0  0.54280491284E+02 -0.32889465493E+02 -0.55634307010E+02  0.84399435963E+02  0.00000000000E+00 0.  1.
         11    1    3    3    0    0  0.75518668491E+02  0.57057405858E+02 -0.14892792144E+03  0.17646003128E+03  0.00000000000E+00 0. -1.
</event>
<event>
 8    1  0.5900800E-006  0.9493370E+02  0.7561462E-02  0.1291325E+00
         -1   -1    0    0    0  501 -0.00000000000E+00  0.00000000000E+00  0.15765269682E+03  0.15765269682E+03  0.00000000000E+00 0.  1.
          1   -1    0    0  501    0  0.00000000000E+00 -0.00000000000E+00 -0.93288140795E+02  0.93288140795E+02  0.00000000000E+00 0. -1.
         23    2    1    2    0    0  0.25589069990E+02  0.72354699566E+01  0.78796140048E+02  0.12225400338E+03  0.89610586019E+02 0.  0.
         23    2    1    2    0    0 -0.25589069990E+02 -0.72354699566E+01 -0.14431584023E+02  0.12868683424E+03  0.12507948737E+03 0.  0.
          5    1    4    4  502    0  0.33147311363E+02 -0.16472329637E+02  0.35104463846E+02  0.51184740657E+02  0.41800000000E+01 0.  1.
         -5    1    4    4    0  502 -0.58736381352E+02  0.92368596808E+01 -0.49536047869E+02  0.77502093582E+02  0.41800000000E+01 0.  1.
        -11    1    3    3    0    0 -0.26334059213E+02 -0.21205258989E+02  0.34580874046E+02  0.48363028578E+02  0.00000000000E+00 0. -1.
         11    1    3    3    0    0  0.51923129202E+02  0.28440728945E+02  0.44215266002E+02  0.73890974799E+02  0.00000000000E+00 0.  1.
</event>
<event>
 8    1  0.5900800E-006  0.2134341E+03  0.7561462E-02  0.1138875E+00
          1   -1    0    0  501    0  0.00000000000E+00  0.00000000000E+00  0.50689307930E+03  0.50689307930E+03  0.00000000000E+00 0. -1.
         -1   -1    0    0    0  501 -0.00000000000E+00 -0.00000000000E+00 -0.99774474051E+02  0.99774474051E+02  0.00000000000E+00 0.  1.
         23    2    1    2    0    0  0.12379993611E+02 -0.19096013339E+03  0.12810704715E+03  0.24595508200E+03  0.86391261392E+02 0.  0.
         23    2    1    2    0    0 -0.12379993611E+02  0.19096013339E+03  0.27901155810E+03  0.36071247135E+03  0.12508797164E+03 0.  0.
          5    1    4    4  502    0 -0.56543636510E+02  0.39009861726E+02  0.10426550065E+03  0.12493085755E+03  0.41800000000E+01 0. -1.
         -5    1    4    4    0  502  0.44163642900E+02  0.15195027167E+03  0.17474605745E+03  0.23578161381E+03  0.41800000000E+01 0. -1.
        -11    1    3    3    0    0  0.34233209532E+02 -0.14313241772E+03  0.57693628499E+02  0.15807389540E+03  0.00000000000E+00 0.  1.
         11    1    3    3    0    0 -0.21853215921E+02 -0.47827715677E+02  0.70413418650E+02  0.87881186604E+02  0.00000000000E+00 0. -1.
</event>
<event>
 8    1  0.5900800E-006  0.1412470E+03  0.7561462E-02  0.1211661E+00
          2   -1    0    0  501    0  0.00000000000E+00  0.00000000000E+00  0.26898553387E+03  0.26898553387E+03  0.00000000000E+00 0. -1.
         -2   -1    0    0    0  501 -0.00000000000E+00 -0.00000000000E+00 -0.13027065842E+03  0.13027065842E+03  0.00000000000E+00 0.  1.
         23    2    1    2    0    0  0.83593918249E+02  0.52687186659E+02 -0.58187596556E+02  0.14590806090E+03  0.90219083554E+02 0.  0.
         23    2    1    2    0    0 -0.83593918249E+02 -0.52687186659E+02  0.19690247201E+03  0.25334813139E+03  0.12510319496E+03 0.  0.
          5    1    4    4  502    0 -0.82915436427E+02  0.14653775700E+02  0.69814002943E+02  0.10945853163E+03  0.41800000000E+01 0. -1.
         -5    1    4    4    0  502 -0.67848182227E+00 -0.67340962359E+02  0.12708846906E+03  0.14388959976E+03  0.41800000000E+01 0. -1.
        -11    1    3    3    0    0  0.99359345869E+02  0.31353190316E+02 -0.58279233432E+02  0.11938078239E+03  0.00000000000E+00 0. -1.
         11    1    3    3    0    0 -0.15765427620E+02  0.21333996343E+02  0.91636876452E-01  0.26527278514E+02  0.00000000000E+00 0.  1.
</event>
<event>
 8    1  0.5900800E-006  0.1192062E+03  0.7561462E-02  0.1244412E+00
         -1   -1    0    0    0  501 -0.00000000000E+00  0.00000000000E+00  0.77469397111E+02  0.77469397111E+02  0.00000000000E+00 0.  1.
          1   -1    0    0  501    0  0.00000000000E+00 -0.00000000000E+00 -0.20975251283E+03  0.20975251283E+03  0.00000000000E+00 0. -1.
         23    2    1    2    0    0 -0.37953057598E+02  0.41426539070E+02 -0.16660349058E+02  0.10785241181E+03  0.90542712478E+02 0.  0.
         23    2    1    2    0    0  0.37953057598E+02 -0.41426539070E+02 -0.11562276666E+03  0.17936949813E+03  0.12509276545E+03 0.  0.
          5    1    4    4  502    0  0.61613424752E+02 -0.71277417162E+02 -0.10144699900E+03  0.13851227495E+03  0.41800000000E+01 0.  1.
         -5    1    4    4    0  502 -0.23660367154E+02  0.29850878092E+02 -0.14175767663E+02  0.40857223175E+02  0.41800000000E+01 0.  1.
        -11    1    3    3    0    0 -0.66859679736E+02  0.19949695525E+02 -0.47984490393E+01  0.69937345096E+02  0.00000000000E+00 0.  1.
         11    1    3    3    0    0  0.28906622138E+02  0.21476843545E+02 -0.11861900019E+02  0.37915066717E+02  0.00000000000E+00 0. -1.
</event>
<event>
 8    1  0.5900800E-006  0.2932746E+03  0.7561462E-02  0.1088652E+00
          2   -1    0    0  501    0  0.00000000000E+00  0.00000000000E+00  0.10396619984E+04  0.10396619984E+04  0.00000000000E+00 0.  1.
         -2   -1    0    0    0  501 -0.00000000000E+00 -0.00000000000E+00 -0.19493458243E+03  0.19493458243E+03  0.00000000000E+00 0. -1.
         23    2    1    2    0    0  0.21986729732E+03 -0.16834156139E+03 -0.43166033032E+02  0.29615169640E+03  0.95718395046E+02 0.  0.
         23    2    1    2    0    0 -0.21986729732E+03  0.16834156139E+03  0.88789344896E+03  0.93844488439E+03  0.12507403646E+03 0.  0.
          5    1    4    4  502    0 -0.15836721191E+02 -0.18605330732E+02  0.46365175307E+02  0.52575297916E+02  0.41800000000E+01 0.  1.
         -5    1    4    4    0  502 -0.20403057613E+03  0.18694689212E+03  0.84152827366E+03  0.88586958647E+03  0.41800000000E+01 0.  1.
        -11    1    3    3    0    0  0.44738999038E+02 -0.41292852885E+01 -0.33210943393E+02  0.55871242988E+02  0.00000000000E+00 0. -1.
         11    1    3    3    0    0  0.17512829828E+03 -0.16421227610E+03 -0.99550896386E+01  0.24028045341E+03  0.00000000000E+00 0.  1.
</event>
<event>
 8    1  0.5900800E-006  0.8070085E+02  0.7561462E-02  0.1327074E+00
          1   -1    0    0  501    0  0.00000000000E+00  0.00000000000E+00  0.60968471355E+03  0.60968471355E+03  0.00000000000E+00 0. -1.
         -1   -1    0    0    0  501 -0.00000000000E+00 -0.00000000000E+00 -0.20288424733E+02  0.20288424733E+02  0.00000000000E+00 0.  1.
         23    2    1    2    0    0  0.20532145470E+02 -0.15242362511E+02  0.23193280134E+03  0.25039205951E+03  0.90826540794E+02 0.  0.
         23    2    1    2    0    0 -0.20532145470E+02  0.15242362511E+02  0.35746348748E+03  0.37958107878E+03  0.12509097440E+03 0.  0.
          5    1    4    4  502    0 -0.55390504013E+02  0.14371949875E+02  0.33012934737E+03  0.33507837781E+03  0.41800000000E+01 0.  1.
         -5    1    4    4    0  502  0.34858358543E+02  0.87041263544E+00  0.27334140105E+02  0.44502700972E+02  0.41800000000E+01 0.  1.
        -11    1    3    3    0    0  0.76747648103E+01 -0.40149134238E+02  0.21222960679E+03  0.21613019454E+03  0.00000000000E+00 0. -1.
         11    1    3    3    0    0  0.12857380659E+02  0.24906771727E+02  0.19703194557E+02  0.34261864968E+02  0.00000000000E+00 0.  1.
</event>
<event>
 8    1  0.5900800E-006  0.1938106E+03  0.7561462E-02  0.1155069E+00
         -1   -1    0    0    0  501 -0.00000000000E+00  0.00000000000E+00  0.43335267101E+02  0.43335267101E+02  0.00000000000E+00 0.  1.
          1   -1    0    0  501    0  0.00000000000E+00 -0.00000000000E+00 -0.10475622672E+04  0.10475622672E+04  0.00000000000E+00 0. -1.
         23    2    1    2    0    0  0.38148466205E+02  0.17494439599E+03 -0.38472969903E+03  0.43402124691E+03  0.91085971974E+02 0.  0.
         23    2    1    2    0    0 -0.38148466205E+02 -0.17494439599E+03 -0.61949730102E+03  0.65687628734E+03  0.12509477901E+03 0.  0.
          5    1    4    4  502    0  0.16369554688E+02 -0.78737632536E+02 -0.11504567751E+03  0.14042990213E+03  0.41800000000E+01 0.  1.
         -5    1    4    4    0  502 -0.54518020894E+02 -0.96206763458E+02 -0.50445162351E+03  0.51644638521E+03  0.41800000000E+01 0.  1.
        -11    1    3    3    0    0  0.55522290993E+02  0.66619875422E+02 -0.21601588068E+03  0.23277412508E+03  0.00000000000E+00 0.  1.
         11    1    3    3    0    0 -0.17373824788E+02  0.10832452057E+03 -0.16871381835E+03  0.20124712184E+03  0.00000000000E+00 0. -1.
</event>
<event>
 8    1  0.5900800E-006  0.1012457E+03  0.7561462E-02  0.1277698E+00
          2   -1    0    0  501    0  0.00000000000E+00  0.00000000000E+00  0.45046818271E+03  0.45046818271E+03  0.00000000000E+00 0.  1.
         -2   -1    0    0    0  501 -0.00000000000E+00 -0.00000000000E+00 -0.48531868465E+02  0.48531868465E+02  0.00000000000E+00 0. -1.
         23    2    1    2    0    0 -0.65667635441E+02  0.34607835782E+02  0.67760548220E+02  0.13453023580E+03  0.89425677562E+02 0.  0.
         23    2    1    2    0    0  0.65667635441E+02 -0.34607835782E+02  0.33417576602E+03  0.36446981537E+03  0.12511939529E+03 0.  0.
          5    1    4    4  502    0 -0.59901683733E+01 -0.22663768815E+02  0.25810107751E+03  0.25919715883E+03  0.41800000000E+01 0. -1.
         -5    1    4    4    0  502  0.71657803815E+02 -0.11944066967E+02  0.76074688516E+02  0.10527265655E+03  0.41800000000E+01 0. -1.
        -11    1    3    3    0    0  0.11586724994E+02  0.25644323696E+02  0.45734962205E+02  0.53698885480E+02  0.00000000000E+00 0.  1.
         11    1    3    3    0    0 -0.77254360436E+02  0.89635120862E+01  0.22025586015E+02  0.80831350320E+02  0.00000000000E+00 0. -1.
</event>
<event>
 8    1  0.5900800E-006  0.8621115E+02  0.7561462E-02  0.1312295E+00
          3   -1    0    0  501    0  0.00000000000E+00  0.00000000000E+00  0.54908825901E+03  0.54908825901E+03  0.00000000000E+00 0. -1.
         -3   -1    0    0    0  501 -0.00000000000E+00 -0.00000000000E+00 -0.60690761804E+02  0.60690761804E+02  0.00000000000E+00 0.  1.
         23    2    1    2    0    0 -0.58656536368E+02  0.46552485759E+02  0.32285291107E+02  0.13093252854E+03  0.10243663319E+03 0.  0.
         23    2    1    2    0    0  0.58656536368E+02 -0.46552485759E+02  0.45611220610E+03  0.47884649227E+03  0.12509154817E+03 0.  0.
          5    1    4    4  502    0  0.18879353236E+02 -0.17132199324E+02  0.66854408306E+01  0.26685384603E+02  0.41800000000E+01 0.  1.
         -5    1    4    4    0  502  0.39777183133E+02 -0.29420286435E+02  0.44942676527E+03  0.45216110767E+03  0.41800000000E+01 0.  1.
        -11    1    3    3    0    0 -0.67510202013E+02  0.53128098013E+02  0.57524511183E+02  0.10338903018E+03  0.00000000000E+00 0. -1.
         11    1    3    3    0    0  0.88536656449E+01 -0.65756122539E+01 -0.25239220077E+02  0.27543498361E+02  0.00000000000E+00 0.  1.
</event>
<event>
 8    1  0.5900800E-006  0.9237772E+02  0.7561462E-02  0.1297194E+00
          2   -1    0    0  501    0  0.00000000000E+00  0.00000000000E+00  0.99445175014E+02  0.99445175014E+02  0.00000000000E+00 0. -1.
         -2   -1    0    0    0  501 -0.00000000000E+00 -0.00000000000E+00 -0.24609977328E+03  0.24609977328E+03  0.00000000000E+00 0.  1.
         23    2    1    2    0    0 -0.55369087298E+02  0.57775323168E+02 -0.15468021505E+03  0.19683124365E+03  0.91721566454E+02 0.  0.
         23    2    1    2    0    0  0.55369087298E+02 -0.57775323168E+02  0.80256167817E+01  0.14871370465E+03  0.12509049376E+03 0.  0.
          5    1    4    4  502    0 -0.69884890180E+01  0.77440656385E+00  0.51865012045E+02  0.52506100205E+02  0.41800000000E+01 0.  1.
         -5    1    4    4    0  502  0.62357576316E+02 -0.58549729732E+02 -0.43839395264E+02  0.96207604444E+02  0.41800000000E+01 0.  1.
        -11    1    3    3    0    0 -0.18338027017E+02  0.49782806671E+02 -0.14945111500E+03  0.15858829354E+03  0.00000000000E+00 0.  1.
         11    1    3    3    0    0 -0.37031060281E+02  0.79925164968E+01 -0.52291000547E+01  0.38242950107E+02  0.00000000000E+00 0. -1.
</event>
<event>
 8    1  0.5900800E-006  0.1115718E+03  0.7561462E-02  0.1257687E+00
         -1   -1    0    0    0  501 -0.00000000000E+00  0.00000000000E+00  0.11853753191E+02  0.11853753191E+02  0.00000000000E+00 0.  1.
          1   -1    0    0  501    0  0.00000000000E+00 -0.00000000000E+00 -0.12966353734E+04  0.12966353734E+04  0.00000000000E+00 0. -1.
         23    2    1    2    0    0 -0.28352659866E+01  0.48917815480E+02 -0.37571661151E+03  0.38955073280E+03  0.90475465461E+02 0.  0.
         23    2    1    2    0    0  0.28352659866E+01 -0.48917815480E+02 -0.90906500868E+03  0.91893839378E+03  0.12509032796E+03 0.  0.
          5    1    4    4  502    0 -0.33766394881E+02 -0.71748565752E+02 -0.38613004615E+03  0.39421049080E+03  0.41800000000E+01 0. -1.
         -5    1    4    4    0  502  0.36601660867E+02  0.22830750272E+02 -0.52293496253E+03  0.52472790299E+03  0.41800000000E+01 0. -1.
        -11    1    3    3    0    0 -0.17089769255E+01  0.74634792034E+02 -0.23747907599E+03  0.24893690831E+03  0.00000000000E+00 0.  1.
         11    1    3    3    0    0 -0.11262890611E+01 -0.25716976553E+02 -0.13823753552E+03  0.14061382449E+03  0.00000000000E+00 0. -1.
</event>
<event>
 8    1  0.5900800E-006  0.8327818E+02  0.7561462E-02  0.1319998E+00
          2   -1    0    0  501    0  0.00000000000E+00  0.00000000000E+00  0.17634370438E+03  0.17634370438E+03  0.00000000000E+00 0. -1.
         -2   -1    0    0    0  501 -0.00000000000E+00 -0.00000000000E+00 -0.10894233635E+03  0.10894233635E+03  0.00000000000E+00 0.  1.
         23    2    1    2    0    0 -0.13486876529E+02 -0.61011087235E+02 -0.30403820091E+02  0.11464788948E+03  0.91189350705E+02 0.  0.
         23    2    1    2    0    0  0.13486876529E+02  0.61011087235E+02  0.97805188113E+02  0.17063815125E+03  0.12508906921E+03 0.  0.
          5    1    4    4  502    0  0.99010432194E+01  0.26733579497E+02 -0.27972084027E+02  0.40157500101E+02  0.41800000000E+01 0.  1.
         -5    1    4    4    0  502  0.35858333092E+01  0.34277507738E+02  0.12577727214E+03  0.13048065115E+03  0.41800000000E+01 0.  1.
        -11    1    3    3    0    0 -0.23047131953E+02  0.14291939421E+02 -0.27592776871E+02  0.38688385326E+02  0.00000000000E+00 0.  1.
         11    1    3    3    0    0  0.95602554243E+01 -0.75303026656E+02 -0.28110432196E+01  0.75959504154E+02  0.00000000000E+00 0. -1.
</event>
<event>
 8    1  0.5900800E-006  0.1159443E+03  0.7561462E-02  0.1249942E+00
         -2   -1    0    0    0  501 -0.00000000000E+00  0.00000000000E+00  0.40309959086E+02  0.40309959086E+02  0.00000000000E+00 0.  1.
          2   -1    0    0  501    0  0.00000000000E+00 -0.00000000000E+00 -0.46191821862E+03  0.46191821862E+03  0.00000000000E+00 0. -1.
         23    2    1    2    0    0  0.20638971456E+02  0.76891043768E+02 -0.15673668602E+03  0.19867980401E+03  0.92569303890E+02 0.  0.
         23    2    1    2    0    0 -0.20638971456E+02 -0.76891043768E+02 -0.26487157351E+03  0.30354837369E+03  0.12508583038E+03 0.  0.
          5    1    4    4  502    0  0.56541662790E+01 -0.83039160737E+02 -0.26330631636E+03  0.27617958007E+03  0.41800000000E+01 0. -1.
         -5    1    4    4    0  502 -0.26293137735E+02  0.61481169693E+01 -0.15652571460E+01  0.27368793619E+02  0.41800000000E+01 0. -1.
        -11    1    3    3    0    0  0.55367554874E+02  0.62873764494E+02 -0.96958360790E+02  0.12813898752E+03  0.00000000000E+00 0.  1.
         11    1    3    3    0    0 -0.34728583419E+02  0.14017279274E+02 -0.59778325230E+02  0.70540816495E+02  0.00000000000E+00 0. -1.
</event>
<event>
 8    1  0.5900800E-006  0.1587987E+03  0.7561462E-02  0.1190060E+00
          1   -1    0    0  501    0  0.00000000000E+00  0.00000000000E+00  0.34580554680E+03  0.34580554680E+03  0.00000000000E+00 0. -1.
         -1   -1    0    0    0  501 -0.00000000000E+00 -0.00000000000E+00 -0.96486683544E+02  0.96486683544E+02  0.00000000000E+00 0.  1.
         23    2    1    2    0    0 -0.10573111255E+03  0.95446037164E+02  0.77999659767E+02  0.18677723692E+03  0.92264701465E+02 0.  0.
         23    2    1    2    0    0  0.10573111255E+03 -0.95446037164E+02  0.17131920349E+03  0.25551499343E+03  0.12509447713E+03 0.  0.
          5    1    4    4  502    0 -0.13526225216E+02  0.76581235450E+01 -0.69235990281E+01  0.17521822061E+02  0.41800000000E+01 0.  1.
         -5    1    4    4    0  502  0.11925733777E+03 -0.10310416071E+03  0.17824280252E+03  0.23799317136E+03  0.41800000000E+01 0.  1.
        -11    1    3    3    0    0 -0.66477518077E+02  0.46842612042E+02 -0.66212422742E+01  0.81592472459E+02  0.00000000000E+00 0.  1.
         11    1    3    3    0    0 -0.39253594474E+02  0.48603425121E+02  0.84620902042E+02  0.10518476446E+03  0.00000000000E+00 0. -1.
</event>
<event>
 8    1  0.5900800E-006  0.1377487E+03  0.7561462E-02  0.1216391E+00
         -1   -1    0    0    0  501 -0.00000000000E+00  0.00000000000E+00  0.10106722713E+03  0.10106722713E+03  0.00000000000E+00 0.  1.
          1   -1    0    0  501    0  0.00000000000E+00 -0.00000000000E+00 -0.23499437110E+03  0.23499437110E+03  0.00000000000E+00 0. -1.
         23    2    1    2    0    0 -0.59048209669E+01  0.90050307910E+02  0.48331406514E+01  0.12858702668E+03  0.91473161725E+02 0.  0.
         23    2    1    2    0    0  0.59048209669E+01 -0.90050307910E+02 -0.13876028462E+03  0.20747457156E+03  0.12508939360E+03 0.  0.
          5    1    4    4  502    0  0.42919692756E+02  0.12659771087E+02 -0.38174973278E+02  0.58967540351E+02  0.41800000000E+01 0. -1.
         -5    1    4    4    0  502 -0.37014871789E+02 -0.10271007900E+03 -0.10058531134E+03  0.14850703121E+03  0.41800000000E+01 0. -1.
        -11    1    3    3    0    0 -0.42437197585E+02  0.33924124162E+02  0.23305384550E+02  0.59117703677E+02  0.00000000000E+00 0.  1.
         11    1    3    3    0    0  0.36532376618E+02  0.56126183749E+02 -0.18472243899E+02  0.69469323001E+02  0.00000000000E+00 0. -1.
</event>
<event>
 8    1  0.5900800E-006  0.1144115E+03  0.7561462E-02  0.1252612E+00
         -2   -1    0    0    0  501 -0.00000000000E+00  0.00000000000E+00  0.16106775505E+02  0.16106775505E+02  0.00000000000E+00 0.  1.
          2   -1    0    0  501    0  0.00000000000E+00 -0.00000000000E+00 -0.11784478376E+04  0.11784478376E+04  0.00000000000E+00 0. -1.
         23    2    1    2    0    0  0.73492395783E+02  0.77077247499E+01 -0.34231190234E+03  0.36175209123E+03  0.90700583047E+02 0.  0.
         23    2    1    2    0    0 -0.73492395783E+02 -0.77077247499E+01 -0.82002915973E+03  0.83280252185E+03  0.12510665985E+03 0.  0.
          5    1    4    4  502    0 -0.77254368785E+00  0.43143301333E+02 -0.45744562917E+03  0.45949528542E+03  0.41800000000E+01 0. -1.
         -5    1    4    4    0  502 -0.72719852095E+02 -0.50851026083E+02 -0.36258353056E+03  0.37330723644E+03  0.41800000000E+01 0. -1.
        -11    1    3    3    0    0  0.16249466235E+02  0.30869783103E+02 -0.39463395934E+02  0.52672082553E+02  0.00000000000E+00 0.  1.
         11    1    3    3    0    0  0.57242929548E+02 -0.23162058353E+02 -0.30284850640E+03  0.30908000867E+03  0.00000000000E+00 0. -1.
</event>
<event>
 8    1  0.5900800E-006  0.8779312E+02  0.7561462E-02  0.1308286E+00
          2   -1    0    0  501    0  0.00000000000E+00  0.00000000000E+00  0.43161036855E+03  0.43161036855E+03  0.00000000000E+00 0. -1.
         -2   -1    0    0    0  501 -0.00000000000E+00 -0.00000000000E+00 -0.39958708439E+02  0.39958708439E+02  0.00000000000E+00 0.  1.
         23    2    1    2    0    0  0.31176914763E+02 -0.50698566608E+01  0.51506607362E+02  0.10778298754E+03  0.89255466723E+02 0.  0.
         23    2    1    2    0    0 -0.31176914763E+02  0.50698566608E+01  0.34014505275E+03  0.36378608945E+03  0.12507581104E+03 0.  0.
          5    1    4    4  502    0 -0.39168629803E+02 -0.52193253957E+02  0.23255319675E+03  0.24157147811E+03  0.41800000000E+01 0. -1.
         -5    1    4    4    0  502  0.79917150392E+01  0.57263110618E+02  0.10759185600E+03  0.12221461134E+03  0.41800000000E+01 0. -1.
        -11    1    3    3    0    0  0.40370225982E+01  0.16859098862E+02 -0.21051844106E+02  0.27270990194E+02  0.00000000000E+00 0.  1.
         11    1    3    3    0    0  0.27139892165E+02 -0.21928955522E+02  0.72558451468E+02  0.80511997345E+02  0.00000000000E+00 0. -1.
</event>
<event>
 8    1  0.5900800E-006  0.8607105E+02  0.7561462E-02  0.1312655E+00
         -1   -1    0    0    0  501 -0.00000000000E+00  0.00000000000E+00  0.11017806600E+03  0.11017806600E+03  0.00000000000E+00 0.  1.
          1   -1    0    0  501    0  0.00000000000E+00 -0.00000000000E+00 -0.25068605115E+03  0.25068605115E+03  0.00000000000E+00 0. -1.
         23    2    1    2    0    0 -0.20328386942E+02  0.60291490970E+02  0.51850042206E+02  0.12275456472E+03  0.91279510753E+02 0.  0.
         23    2    1    2    0    0  0.20328386942E+02 -0.60291490970E+02 -0.19235802736E+03  0.23810955244E+03  0.12508493544E+03 0.  0.
          5    1    4    4  502    0  0.78264599887E+01 -0.33779813156E+02 -0.20349931955E+03  0.20647463455E+03  0.41800000000E+01 0.  1.
         -5    1    4    4    0  502  0.12501926953E+02 -0.26511677814E+02  0.11141292197E+02  0.31634917890E+02  0.41800000000E+01 0.  1.
        -11    1    3    3    0    0  0.26977164448E+02 -0.45362695977E+01  0.27299269159E+00  0.27357259887E+02  0.00000000000E+00 0.  1.
         11    1    3    3    0    0 -0.47305551390E+02  0.64827760568E+02  0.51577049514E+02  0.95397304832E+02  0.00000000000E+00 0. -1.
</event>
<event>
 7    1  0.5900800E-006  0.2904012E+03  0.7561462E-02  0.1090140E+00
          2   -1    0    0  501    0  0.00000000000E+00  0.00000000000E+00  0.15487465300E+03  0.15487465300E+03  0.00000000000E+00 0. -1.
         -2   -1    0    0    0  501 -0.00000000000E+00 -0.00000000000E+00 -0.80230802444E+03  0.80230802444E+03  0.00000000000E+00 0.  1.
         23    2    1    2    0    0  0.56907066940E+01 -0.45610104490E+02 -0.35624016213E+03  0.37067609379E+03  0.91548061828E+02 0.  0.
          5    1    1    2  502    0  0.16536809748E+03 -0.14914723912E+03 -0.41491886352E+02  0.22656247623E+03  0.41800000000E+01 0. -1.
         -5    1    1    2    0  502 -0.17105880417E+03  0.19475734361E+03 -0.24970132296E+03  0.35994410742E+03  0.41800000000E+01 0.  1.
        -11    1    3    3    0    0  0.20240828051E+02  0.21866885716E+02 -0.15738758565E+03  0.16018334472E+03  0.00000000000E+00 0. -1.
         11    1    3    3    0    0 -0.14550121356E+02 -0.67476990206E+02 -0.19885257648E+03  0.21049274907E+03  0.00000000000E+00 0.  1.
</event>
<event>
 8    1  0.5900800E-006  0.4018029E+03  0.7561462E-02  0.1043157E+00
         -1   -1    0    0    0  501 -0.00000000000E+00  0.00000000000E+00  0.69993289731E+03  0.69993289731E+03  0.00000000000E+00 0.  1.
          1   -1    0    0  501    0  0.00000000000E+00 -0.00000000000E+00 -0.27236732538E+03  0.27236732538E+03  0.00000000000E+00 0. -1.
         23    2    1    2    0    0 -0.35147711728E+02 -0.39183470825E+03  0.38402443001E+03  0.55719415396E+03  0.90668418648E+02 0.  0.
         23    2    1    2    0    0  0.35147711728E+02  0.39183470825E+03  0.43541141929E+02  0.41510606873E+03  0.12508963597E+03 0.  0.
          5    1    4    4  502    0 -0.13072097827E+01  0.36080179398E+03  0.56757100913E+02  0.36526495074E+03  0.41800000000E+01 0.  1.
         -5    1    4    4    0  502  0.36454921511E+02  0.31032914269E+02 -0.13215958984E+02  0.49841117988E+02  0.41800000000E+01 0.  1.
        -11    1    3    3    0    0  0.62393991602E+01 -0.54898868585E+02  0.18304406149E+02  0.58205387708E+02  0.00000000000E+00 0. -1.
         11    1    3    3    0    0 -0.41387110888E+02 -0.33693583966E+03  0.36572002386E+03  0.49898876626E+03  0.00000000000E+00 0.  1.
</event>
<event>
 8    1  0.5900800E-006  0.1128883E+03  0.7561462E-02  0.1255313E+00
          1   -1    0    0  501    0  0.00000000000E+00  0.00000000000E+00  0.43326516880E+02  0.43326516880E+02  0.00000000000E+00 0. -1.
         -1   -1    0    0    0  501 -0.00000000000E+00 -0.00000000000E+00 -0.43863295626E+03  0.43863295626E+03  0.00000000000E+00 0.  1.
         23    2    1    2    0    0 -0.69220344331E+02 -0.23764001954E+02 -0.25898058886E+03  0.28299131725E+03  0.87504036356E+02 0.  0.
         23    2    1    2    0    0  0.69220344331E+02  0.23764001954E+02 -0.13632585053E+03  0.19896815589E+03  0.12508959061E+03 0.  0.
          5    1    4    4  502    0 -0.35589522496E+02  0.16318339667E+02 -0.43841840341E+02  0.58927766676E+02  0.41800000000E+01 0.  1.
         -5    1    4    4    0  502  0.10480986683E+03  0.74456622870E+01 -0.92484010186E+02  0.14004038921E+03  0.41800000000E+01 0.  1.
        -11    1    3    3    0    0 -0.28777675942E+01 -0.13873683561E+02  0.12794525388E+01  0.14226652476E+02  0.00000000000E+00 0. -1.
         11    1    3    3    0    0 -0.66342576736E+02 -0.98903183926E+01 -0.26026004139E+03  0.26876466478E+03  0.00000000000E+00 0.  1.
</event>
<event>
 8    1  0.5900800E-006  0.8485493E+02  0.7561462E-02  0.1315812E+00
         -2   -1    0    0    0  501 -0.00000000000E+00  0.00000000000E+00  0.72579951324E+02  0.72579951324E+02  0.00000000000E+00 0.  1.
          2   -1    0    0  501    0  0.00000000000E+00 -0.00000000000E+00 -0.18267213311E+03  0.18267213311E+03  0.00000000000E+00 0. -1.
         23    2    1    2    0    0 -0.28734594405E+01 -0.25255219063E+01  0.42030657866E+00  0.88295266875E+02  0.88211351111E+02 0.  0.
         23    2    1    2    0    0  0.28734594405E+01  0.25255219063E+01 -0.11051248837E+03  0.16695681756E+03  0.12508770449E+03 0.  0.
          5    1    4    4  502    0  0.56570764928E+02 -0.18438924211E+02 -0.27190029377E+02  0.65551624451E+02  0.41800000000E+01 0.  1.
         -5    1    4    4    0  502 -0.53697305488E+02  0.20964446117E+02 -0.83322458989E+02  0.10140519311E+03  0.41800000000E+01 0.  1.
        -11    1    3    3    0    0 -0.27515205466E+02 -0.24649969398E+01  0.35775386981E+02  0.45200011675E+02  0.00000000000E+00 0.  1.
         11    1    3    3    0    0  0.24641746025E+02 -0.60524966559E-01 -0.35355080403E+02  0.43095255200E+02  0.00000000000E+00 0. -1.
</event>
<event>
 8    1  0.5900800E-006  0.6077807E+02  0.7561462E-02  0.1394595E+00
         -1   -1    0    0    0  501 -0.00000000000E+00  0.00000000000E+00  0.40568719748E+03  0.40568719748E+03  0.00000000000E+00 0.  1.
          1   -1    0    0  501    0  0.00000000000E+00 -0.00000000000E+00 -0.32571747386E+02  0.32571747386E+02  0.00000000000E+00 0. -1.
         23    2    1    2    0    0  0.17283398824E+02  0.25017602338E+02  0.20783927600E+03  0.22876140846E+03  0.90609166482E+02 0.  0.
         23    2    1    2    0    0 -0.17283398824E+02 -0.25017602338E+02  0.16527617409E+03  0.20949753640E+03  0.12509359590E+03 0.  0.
          5    1    4    4  502    0 -0.10940455554E+02 -0.38281990762E+02 -0.33561254097E+01  0.40173876614E+02  0.41800000000E+01 0.  1.
         -5    1    4    4    0  502 -0.63429432694E+01  0.13264388424E+02  0.16863229950E+03  0.16932365979E+03  0.41800000000E+01 0.  1.
        -11    1    3    3    0    0 -0.21859588403E+02  0.12286005492E+02  0.10517195918E+02  0.27191891183E+02  0.00000000000E+00 0. -1.
         11    1    3    3    0    0  0.39142987227E+02  0.12731596846E+02  0.19732208008E+03  0.20156951728E+03  0.00000000000E+00 0.  1.
</event>
<event>
 8    1  0.5900800E-006  0.2546507E+03  0.7561462E-02  0.1110400E+00
         -2   -1    0    0    0  501 -0.00000000000E+00  0.00000000000E+00  0.73302611523E+02  0.73302611523E+02  0.00000000000E+00 0. -1.
          2   -1    0    0  501    0  0.00000000000E+00 -0.00000000000E+00 -0.10169391973E+04  0.10169391973E+04  0.00000000000E+00 0.  1.
         23    2    1    2    0    0 -0.24265066613E+03  0.47997058420E+02 -0.40854733669E+03  0.48762197004E+03  0.98393068670E+02 0.  0.
         23    2    1    2    0    0  0.24265066613E+03 -0.47997058420E+02 -0.53508924905E+03  0.60261983874E+03  0.12508837758E+03 0.  0.
          5    1    4    4  502    0  0.31095518667E+02 -0.17364496399E+02 -0.12482644701E+02  0.37970328351E+02  0.41800000000E+01 0. -1.
         -5    1    4    4    0  502  0.21155514746E+03 -0.30632562021E+02 -0.52260660435E+03  0.56464951039E+03  0.41800000000E+01 0. -1.
        -11    1    3    3    0    0 -0.90022321416E+02 -0.20529134631E+02 -0.19979248529E+03  0.22009657176E+03  0.00000000000E+00 0.  1.
         11    1    3    3    0    0 -0.15262834471E+03  0.68526193051E+02 -0.20875485140E+03  0.26752539828E+03  0.00000000000E+00 0. -1.
</event>
<event>
 6    1  0.5900800E-006  0.7948692E+02  0.7561462E-02  0.1330514E+00
         -2   -1    0    0    0  501 -0.00000000000E+00  0.00000000000E+00  0.13848851373E+02  0.13848851373E+02  0.00000000000E+00 0.  1.
          2   -1    0    0  501    0  0.00000000000E+00 -0.00000000000E+00 -0.71355916668E+03  0.71355916668E+03  0.00000000000E+00 0. -1.
          5    1    1    2  502    0 -0.66125989236E+01 -0.44885962743E+02 -0.43345159737E+03  0.43583969045E+03  0.41800000000E+01 0. -1.
         -5    1    1    2    0  502  0.12048332315E+02  0.76610899209E+02 -0.21621587649E+03  0.22974152832E+03  0.41800000000E+01 0.  1.
        -11    1    1    2    0    0  0.44783701245E+01 -0.19494055914E+02 -0.33289634807E+02  0.38836500879E+02  0.00000000000E+00 0. -1.
         11    1    1    2    0    0 -0.99141035162E+01 -0.12230880552E+02 -0.16753206646E+02  0.22990298400E+02  0.00000000000E+00 0.  1.
</event>
<event>
 8    1  0.5900800E-006  0.1298354E+03  0.7561462E-02  0.1227700E+00
         -2   -1    0    0    0  501 -0.00000000000E+00  0.00000000000E+00  0.30799785290E+02  0.30799785290E+02  0.00000000000E+00 0. -1.
          2   -1    0    0  501    0  0.00000000000E+00 -0.00000000000E+00 -0.84570390397E+03  0.84570390397E+03  0.00000000000E+00 0.  1.
         23    2    1    2    0    0 -0.11258270228E+03 -0.35235831920E+02 -0.36965309948E+03  0.39920645988E+03  0.93840049851E+02 0.  0.
         23    2    1    2    0    0  0.11258270228E+03  0.35235831920E+02 -0.44525101920E+03  0.47729722937E+03  0.12509095238E+03 0.  0.
          5    1    4    4  502    0  0.65452152843E+02  0.43496984480E+02 -0.41059360486E+03  0.41806764133E+03  0.41800000000E+01 0. -1.
         -5    1    4    4    0  502  0.47130549434E+02 -0.82611525605E+01 -0.34657414336E+02  0.59229588046E+02  0.41800000000E+01 0. -1.
        -11    1    3    3    0    0 -0.58980046362E+02 -0.50022466415E+02 -0.11521828762E+03  0.13876651908E+03  0.00000000000E+00 0. -1.
         11    1    3    3    0    0 -0.53602655915E+02  0.14786634496E+02 -0.25443481186E+03  0.26043994081E+03  0.00000000000E+00 0.  1.
</event>
<event>
 8    1  0.5900800E-006  0.1175059E+03  0.7561462E-02  0.1247269E+00
          1   -1    0    0  501    0  0.00000000000E+00  0.00000000000E+00  0.56004071371E+02  0.56004071371E+02  0.00000000000E+00 0. -1.
         -1   -1    0    0    0  501 -0.00000000000E+00 -0.00000000000E+00 -0.27214869360E+03  0.27214869360E+03  0.00000000000E+00 0.  1.
         23    2    1    2    0    0  0.13132567141E+02  0.46880954579E+02 -0.13446279601E+03  0.16957471574E+03  0.91132060696E+02 0.  0.
         23    2    1    2    0    0 -0.13132567141E+02 -0.46880954579E+02 -0.81681826216E+02  0.15857804922E+03  0.12690464428E+03 0.  0.
          5    1    4    4  502    0 -0.28235028050E+02  0.38913562055E+02 -0.35350814939E+02  0.59821690362E+02  0.41800000000E+01 0. -1.
         -5    1    4    4    0  502  0.15102460909E+02 -0.85794516635E+02 -0.46331011276E+02  0.98756358863E+02  0.41800000000E+01 0.  1.
        -11    1    3    3    0    0  0.50416042562E+02  0.29379334425E+02 -0.10040835164E+03  0.11613250931E+03  0.00000000000E+00 0.  1.
         11    1    3    3    0    0 -0.37283475421E+02  0.17501620154E+02 -0.34054444370E+02  0.53442206437E+02  0.00000000000E+00 0. -1.
</event>
<event>
 8    1  0.5900800E-006  0.1216979E+03  0.7561462E-02  0.1240322E+00
          2   -1    0    0  501    0  0.00000000000E+00  0.00000000000E+00  0.19914869675E+03  0.19914869675E+03  0.00000000000E+00 0.  1.
         -2   -1    0    0    0  501 -0.00000000000E+00 -0.00000000000E+00 -0.31533380838E+03  0.31533380838E+03  0.00000000000E+00 0. -1.
         23    2    1    2    0    0 -0.10945728641E+03 -0.13893321971E+02 -0.25893394195E+03  0.29494243717E+03  0.88149492405E+02 0.  0.
         23    2    1    2    0    0  0.10945728641E+03  0.13893321971E+02  0.14274883031E+03  0.21954006796E+03  0.12508673367E+03 0.  0.
          5    1    4    4  502    0  0.53887121979E+02  0.28000621059E+02  0.14973210955E+03  0.16163240308E+03  0.41800000000E+01 0.  1.
         -5    1    4    4    0  502  0.55570164428E+02 -0.14107299088E+02 -0.69832792456E+01  0.57907664873E+02  0.41800000000E+01 0.  1.
        -11    1    3    3    0    0 -0.57997647923E+02 -0.36825608264E+02 -0.71214959414E+02  0.98951619658E+02  0.00000000000E+00 0.  1.
         11    1    3    3    0    0 -0.51459638483E+02  0.22932286293E+02 -0.18771898253E+03  0.19599081752E+03  0.00000000000E+00 0. -1.
</event>
<event>
 8    1  0.5900800E-006  0.1053014E+03  0.7561462E-02  0.1269527E+00
          1   -1    0    0  501    0  0.00000000000E+00  0.00000000000E+00  0.32322530126E+03  0.32322530126E+03  0.00000000000E+00 0. -1.
         -1   -1    0    0    0  501 -0.00000000000E+00 -0.00000000000E+00 -0.59228875357E+02  0.59228875357E+02  0.00000000000E+00 0.  1.
         23    2    1    2    0    0  0.65861285489E+02 -0.34572552564E+02  0.59307075911E+02  0.13129935090E+03  0.90494309087E+02 0.  0.
         23    2    1    2    0    0 -0.65861285489E+02  0.34572552564E+02  0.20468934999E+03  0.25115482571E+03  0.12509215068E+03 0.  0.
          5    1    4    4  502    0 -0.35779210902E+02  0.49634561719E+02  0.20822622099E+03  0.21706997295E+03  0.41800000000E+01 0.  1.
         -5    1    4    4    0  502 -0.30082074587E+02 -0.15062009155E+02 -0.35368709991E+01  0.34084852761E+02  0.41800000000E+01 0.  1.
        -11    1    3    3    0    0 -0.16748152150E+02 -0.27840604610E+02  0.27348511460E+02  0.42468116801E+02  0.00000000000E+00 0.  1.
         11    1    3    3    0    0  0.82609437639E+02 -0.67319479545E+01  0.31958564451E+02  0.88831234102E+02  0.00000000000E+00 0. -1.
</event>
<event>
 8    1  0.5900800E-006  0.1003772E+03  0.7561462E-02  0.1279505E+00
          2   -1    0    0  501    0  0.00000000000E+00  0.00000000000E+00  0.53599537358E+03  0.53599537358E+03  0.00000000000E+00 0.  1.
         -2   -1    0    0    0  501 -0.00000000000E+00 -0.00000000000E+00 -0.28420333938E+02  0.28420333938E+02  0.00000000000E+00 0. -1.
         23    2    1    2    0    0  0.14335693298E+02  0.54142232355E+02  0.15655839759E+03  0.18759162795E+03  0.86851560699E+02 0.  0.
         23    2    1    2    0    0 -0.14335693298E+02 -0.54142232355E+02  0.35101664205E+03  0.37682407956E+03  0.12508721164E+03 0.  0.
          5    1    4    4  502    0  0.38696081152E+02  0.14371745414E+02  0.18406960204E+03  0.18868763753E+03  0.41800000000E+01 0.  1.
         -5    1    4    4    0  502 -0.53031774449E+02 -0.68513977769E+02  0.16694704001E+03  0.18813644203E+03  0.41800000000E+01 0.  1.
        -11    1    3    3    0    0 -0.16340635352E+02  0.27019008897E+02  0.67520542052E+01  0.32289834956E+02  0.00000000000E+00 0. -1.
         11    1    3    3    0    0  0.30676328650E+02  0.27123223458E+02  0.14980634338E+03  0.15530179300E+03  0.00000000000E+00 0.  1.
</event>
<event>
 8    1  0.5900800E-006  0.1291057E+03  0.7561462E-02  0.1228789E+00
          2   -1    0    0  501    0  0.00000000000E+00  0.00000000000E+00  0.51106901430E+03  0.51106901430E+03  0.00000000000E+00 0.  1.
         -2   -1    0    0    0  501 -0.00000000000E+00 -0.00000000000E+00 -0.40174945224E+02  0.40174945224E+02  0.00000000000E+00 0. -1.
         23    2    1    2    0    0 -0.81670978943E+02  0.35087256661E+02  0.26533922171E+03  0.29471964470E+03  0.92485144832E+02 0.  0.
         23    2    1    2    0    0  0.81670978943E+02 -0.35087256661E+02  0.20555484736E+03  0.25652431481E+03  0.12510261563E+03 0.  0.
          5    1    4    4  502    0  0.69049070946E+02  0.34663519399E+02  0.13961650702E+03  0.15962322891E+03  0.41800000000E+01 0.  1.
         -5    1    4    4    0  502  0.12621907997E+02 -0.69750776061E+02  0.65938340343E+02  0.96901085906E+02  0.41800000000E+01 0.  1.
        -11    1    3    3    0    0 -0.56628216594E+02 -0.10711092436E+02  0.21354566575E+03  0.22118597103E+03  0.00000000000E+00 0.  1.
         11    1    3    3    0    0 -0.25042762349E+02  0.45798349097E+02  0.51793555957E+02  0.73533673679E+02  0.00000000000E+00 0. -1.
</event>
<event>
 8    1  0.5900800E-006  0.1028729E+03  0.7561462E-02  0.1274368E+00
         -2   -1    0    0    0  501 -0.00000000000E+00  0.00000000000E+00  0.35891310881E+02  0.35891310881E+02  0.00000000000E+00 0. -1.
          2   -1    0    0  501    0  0.00000000000E+00 -0.00000000000E+00 -0.36853429742E+03  0.36853429742E+03  0.00000000000E+00 0.  1.
         23    2    1    2    0    0 -0.19978815296E+02 -0.25062518196E+01 -0.10406061877E+03  0.14307571698E+03  0.96107304889E+02 0.  0.
         23    2    1    2    0    0  0.19978815296E+02  0.25062518196E+01 -0.22858236777E+03  0.26134989132E+03  0.12509369479E+03 0.  0.
          5    1    4    4  502    0 -0.25173838831E+02 -0.38678970723E+02 -0.17139089205E+03  0.17754462880E+03  0.41800000000E+01 0. -1.
         -5    1    4    4    0  502  0.45152654127E+02  0.41185222542E+02 -0.57191475716E+02  0.83805262515E+02  0.41800000000E+01 0. -1.
        -11    1    3    3    0    0 -0.14087290647E+02 -0.49153417000E+02 -0.56346777881E+02  0.76088563780E+02  0.00000000000E+00 0.  1.
         11    1    3    3    0    0 -0.58915246489E+01  0.46647165180E+02 -0.47713840889E+02  0.66987153204E+02  0.00000000000E+00 0. -1.
</event>
<event>
 8    1  0.5900800E-006  0.1601529E+03  0.7561462E-02  0.1188524E+00
         -2   -1    0    0    0  501 -0.00000000000E+00  0.00000000000E+00  0.46986442119E+03  0.46986442119E+03  0.00000000000E+00 0.  1.
          2   -1    0    0  501    0  0.00000000000E+00 -0.00000000000E+00 -0.56228228247E+02  0.56228228247E+02  0.00000000000E+00 0. -1.
         23    2    1    2    0    0  0.10998421122E+03 -0.48639127629E+02  0.17604793688E+03  0.23188568023E+03  0.91191014708E+02 0.  0.
         23    2    1    2    0    0 -0.10998421122E+03  0.48639127629E+02  0.23758825607E+03  0.29420696921E+03  0.12508904771E+03 0.  0.
          5    1    4    4  502    0 -0.67156928883E+02  0.88482077204E+02  0.12511343047E+03  0.16736180558E+03  0.41800000000E+01 0.  1.
         -5    1    4    4    0  502 -0.42827282334E+02 -0.39842949576E+02  0.11247482559E+03  0.12684516363E+03  0.41800000000E+01 0.  1.
        -11    1    3    3    0    0 -0.11872726057E+02 -0.23136089857E+02  0.24172243956E+02  0.35504051258E+02  0.00000000000E+00 0. -1.
         11    1    3    3    0    0  0.12185693727E+03 -0.25503037772E+02  0.15187569292E+03  0.19638162897E+03  0.00000000000E+00 0.  1.
</event>
<event>
 8    1  0.5900800E-006  0.8011460E+02  0.7561462E-02  0.1328727E+00
         -2   -1    0    0    0  501 -0.00000000000E+00  0.00000000000E+00  0.33680909785E+02  0.33680909785E+02  0.00000000000E+00 0.  1.
          2   -1    0    0  501    0  0.00000000000E+00 -0.00000000000E+00 -0.46485020866E+03  0.46485020866E+03  0.00000000000E+00 0. -1.
         23    2    1    2    0    0 -0.18759893208E+02  0.30497802115E+02 -0.86247959740E+02  0.12988472949E+03  0.90273378516E+02 0.  0.
         23    2    1    2    0    0  0.18759893208E+02 -0.30497802115E+02 -0.34492133914E+03  0.36864638896E+03  0.12508948945E+03 0.  0.
          5    1    4    4  502    0  0.12911703028E+02  0.19379002034E+02 -0.39677843519E+01  0.23989028900E+02  0.41800000000E+01 0.  1.
         -5    1    4    4    0  502  0.58481901793E+01 -0.49876804148E+02 -0.34095355479E+03  0.34465736006E+03  0.41800000000E+01 0.  1.
        -11    1    3    3    0    0  0.30919756418E+02  0.12004071616E+02 -0.59966066008E+01  0.33705909913E+02  0.00000000000E+00 0.  1.
         11    1    3    3    0    0 -0.49679649626E+02  0.18493730498E+02 -0.80251353139E+02  0.96178819578E+02  0.00000000000E+00 0. -1.
</event>
<event>
 8    1  0.5900800E-006  0.9896591E+02  0.7561462E-02  0.1282486E+00
         -1   -1    0    0    0  501 -0.00000000000E+00  0.00000000000E+00  0.97689293171E+01  0.97689293171E+01  0.00000000000E+00 0.  1.
          1   -1    0    0  501    0  0.00000000000E+00 -0.00000000000E+00 -0.15859451039E+04  0.15859451039E+04  0.00000000000E+00 0. -1.
         23    2    1    2    0    0 -0.15928663027E+02 -0.30633012171E+02 -0.36981094785E+03  0.38238898100E+03  0.90934547347E+02 0.  0.
         23    2    1    2    0    0  0.15928663027E+02  0.30633012171E+02 -0.12063652267E+04  0.12133250522E+04  0.12509403792E+03 0.  0.
          5    1    4    4  502    0  0.27533569068E+01  0.65279966714E+02 -0.34529673350E+03  0.35144894593E+03  0.41800000000E+01 0. -1.
         -5    1    4    4    0  502  0.13175306120E+02 -0.34646954543E+02 -0.86106849319E+03  0.86187610624E+03  0.41800000000E+01 0. -1.
        -11    1    3    3    0    0 -0.13874611413E+02 -0.62096324608E+02 -0.20720066119E+03  0.21675002277E+03  0.00000000000E+00 0. -1.
         11    1    3    3    0    0 -0.20540516143E+01  0.31463312437E+02 -0.16261028666E+03  0.16563895824E+03  0.00000000000E+00 0.  1.
</event>
<event>
 8    1  0.5900800E-006  0.9690170E+02  0.7561462E-02  0.1286950E+00
          2   -1    0    0  501    0  0.00000000000E+00  0.00000000000E+00  0.15524306959E+04  0.15524306959E+04  0.00000000000E+00 0. -1.
         -2   -1    0    0    0  501 -0.00000000000E+00 -0.00000000000E+00 -0.85585953117E+01  0.85585953117E+01  0.00000000000E+00 0.  1.
         23    2    1    2    0    0  0.10307276332E+02 -0.32974592295E+02  0.42361263174E+03  0.43382122639E+03  0.86946138578E+02 0.  0.
         23    2    1    2    0    0 -0.10307276332E+02  0.32974592295E+02  0.11202594688E+04  0.11271680648E+04  0.11972052927E+03 0.  0.
          5    1    4    4  502    0  0.41989595693E+02  0.24579096172E+02  0.86807200656E+03  0.86944450029E+03  0.41800000000E+01 0. -1.
         -5    1    4    4    0  502 -0.52296872026E+02  0.83954961230E+01  0.25218746228E+03  0.25772356452E+03  0.41800000000E+01 0.  1.
        -11    1    3    3    0    0 -0.21692277286E+02  0.20288949764E+02  0.10089375359E+03  0.10517483487E+03  0.00000000000E+00 0. -1.
         11    1    3    3    0    0  0.31999553618E+02 -0.53263542059E+02  0.32271887816E+03  0.32864639153E+03  0.00000000000E+00 0.  1.
</event>
<event>
 8    1  0.5900800E-006  0.1367951E+03  0.7561462E-02  0.1217708E+00
          2   -1    0    0  501    0  0.00000000000E+00  0.00000000000E+00  0.82039142821E+03  0.82039142821E+03  0.00000000000E+00 0. -1.
         -2   -1    0    0    0  501 -0.00000000000E+00 -0.00000000000E+00 -0.26360364941E+02  0.26360364941E+02  0.00000000000E+00 0.  1.
         23    2    1    2    0    0  0.80298566392E+02  0.40448360556E+02  0.26000363650E+03  0.29094937058E+03  0.94687462787E+02 0.  0.
         23    2    1    2    0    0 -0.80298566392E+02 -0.40448360556E+02  0.53402742677E+03  0.55580242257E+03  0.12508841178E+03 0.  0.
          5    1    4    4  502    0 -0.72583696194E+02 -0.76720950087E+02  0.46959021809E+03  0.48133869828E+03  0.41800000000E+01 0.  1.
         -5    1    4    4    0  502 -0.77148701977E+01  0.36272589531E+02  0.64437208673E+02  0.74463724289E+02  0.41800000000E+01 0.  1.
        -11    1    3    3    0    0 -0.73437820014E+01 -0.21846548598E+02  0.45596762975E+02  0.51090778165E+02  0.00000000000E+00 0. -1.
         11    1    3    3    0    0  0.87642348394E+02  0.62294909154E+02  0.21440687353E+03  0.23985859241E+03  0.00000000000E+00 0.  1.
</event>
<event>
 8    1  0.5900800E-006  0.9695743E+02  0.7561462E-02  0.1286827E+00
          1   -1    0    0  501    0  0.00000000000E+00  0.00000000000E+00  0.42275784669E+02  0.42275784669E+02  0.00000000000E+00 0. -1.
         -1   -1    0    0    0  501 -0.00000000000E+00 -0.00000000000E+00 -0.33856536797E+03  0.33856536797E+03  0.00000000000E+00 0.  1.
         23    2    1    2    0    0  0.30609239192E+00  0.51194873902E+02 -0.12878283730E+03  0.16560462388E+03  0.90657947592E+02 0.  0.
         23    2    1    2    0    0 -0.30609239192E+00 -0.51194873902E+02 -0.16750674600E+03  0.21523652876E+03  0.12508894655E+03 0.  0.
          5    1    4    4  502    0 -0.38403654726E+02  0.22523598698E+02 -0.27691478454E+02  0.52596992059E+02  0.41800000000E+01 0.  1.
         -5    1    4    4    0  502  0.38097562334E+02 -0.73718472600E+02 -0.13981526755E+03  0.16263953670E+03  0.41800000000E+01 0.  1.
        -11    1    3    3    0    0  0.21026519957E+02  0.27876777575E+02 -0.12977939360E+03  0.13439464376E+03  0.00000000000E+00 0.  1.
         11    1    3    3    0    0 -0.20720427565E+02  0.23318096327E+02  0.99655629359E+00  0.31209980123E+02  0.00000000000E+00 0. -1.
</event>
<event>
 8    1  0.5900800E-006  0.8205868E+02  0.7561462E-02  0.1323309E+00
         -2   -1    0    0    0  501 -0.00000000000E+00  0.00000000000E+00  0.13923995271E+03  0.13923995271E+03  0.00000000000E+00 0.  1.
          2   -1    0    0  501    0  0.00000000000E+00 -0.00000000000E+00 -0.10339925790E+03  0.10339925790E+03  0.00000000000E+00 0. -1.
         23    2    1    2    0    0 -0.19079259040E+02  0.47889980110E+02  0.94265032497E+01  0.10478806795E+03  0.90742558377E+02 0.  0.
         23    2    1    2    0    0  0.19079259040E+02 -0.47889980110E+02  0.26414191567E+02  0.13785114266E+03  0.12509100566E+03 0.  0.
          5    1    4    4  502    0  0.73570506892E+00 -0.58980345305E+02 -0.37693996870E+02  0.70125118141E+02  0.41800000000E+01 0. -1.
         -5    1    4    4    0  502  0.18343553971E+02  0.11090365194E+02  0.64108188437E+02  0.67726024519E+02  0.41800000000E+01 0. -1.
        -11    1    3    3    0    0 -0.26031731712E+01 -0.16488048308E+02 -0.24912132497E+02  0.29987440590E+02  0.00000000000E+00 0. -1.
         11    1    3    3    0    0 -0.16476085869E+02  0.64378028418E+02  0.34338635747E+02  0.74800627361E+02  0.00000000000E+00 0.  1.
</event>
<event>
 8    1  0.5900800E-006  0.8973586E+02  0.7561462E-02  0.1303493E+00
          1   -1    0    0  501    0  0.00000000000E+00  0.00000000000E+00  0.12617039288E+03  0.12617039288E+03  0.00000000000E+00 0. -1.
         -1   -1    0    0    0  501 -0.00000000000E+00 -0.00000000000E+00 -0.10916548529E+03  0.10916548529E+03  0.00000000000E+00 0.  1.
         23    2    1    2    0    0  0.30441089533E+02 -0.24146290441E+02  0.29934839981E+02  0.10371539080E+03  0.91384267625E+02 0.  0.
         23    2    1    2    0    0 -0.30441089533E+02  0.24146290441E+02 -0.12929932389E+02  0.13162048737E+03  0.12508823393E+03 0.  0.
          5    1    4    4  502    0 -0.40267445145E+02  0.46242619281E+02 -0.55286754376E+02  0.82667675581E+02  0.41800000000E+01 0. -1.
         -5    1    4    4    0  502  0.98263556115E+01 -0.22096328839E+02  0.42356821987E+02  0.48952811785E+02  0.41800000000E+01 0. -1.
        -11    1    3    3    0    0  0.30216436231E+02  0.28076570684E+02 -0.39911510151E+01  0.41439789168E+02  0.00000000000E+00 0.  1.
         11    1    3    3    0    0  0.22465330201E+00 -0.52222861125E+02  0.33925990996E+02  0.62275601629E+02  0.00000000000E+00 0. -1.
</event>
<event>
 8    1  0.5900800E-006  0.9335798E+02  0.7561462E-02  0.1294918E+00
          4   -1    0    0  501    0  0.00000000000E+00  0.00000000000E+00  0.28466487158E+03  0.28466487158E+03  0.00000000000E+00 0. -1.
         -4   -1    0    0    0  501 -0.00000000000E+00 -0.00000000000E+00 -0.50161763545E+02  0.50161763545E+02  0.00000000000E+00 0.  1.
         23    2    1    2    0    0  0.82240357253E+01 -0.45487058456E+02  0.73786936625E+02  0.12616813463E+03  0.91308153681E+02 0.  0.
         23    2    1    2    0    0 -0.82240357253E+01  0.45487058456E+02  0.16071617141E+03  0.20865850050E+03  0.12478771905E+03 0.  0.
          5    1    4    4  502    0  0.16905497690E+02  0.54612885679E+02  0.13386710393E+02  0.58864586549E+02  0.41800000000E+01 0. -1.
         -5    1    4    4    0  502 -0.25129533415E+02 -0.91258272229E+01  0.14732946102E+03  0.14979391395E+03  0.41800000000E+01 0. -1.
        -11    1    3    3    0    0 -0.41158837652E+02 -0.12762540993E+02  0.31866006106E+02  0.53594539970E+02  0.00000000000E+00 0.  1.
         11    1    3    3    0    0  0.49382873377E+02 -0.32724517463E+02  0.41920930519E+02  0.72573594659E+02  0.00000000000E+00 0. -1.
</event>
<event>
 8    1  0.5900800E-006  0.1498770E+03  0.7561462E-02  0.1200624E+00
          1   -1    0    0  501    0  0.00000000000E+00  0.00000000000E+00  0.17798732109E+03  0.17798732109E+03  0.00000000000E+00 0.  1.
         -1   -1    0    0    0  501 -0.00000000000E+00 -0.00000000000E+00 -0.14141658761E+03  0.14141658761E+03  0.00000000000E+00 0. -1.
         23    2    1    2    0    0 -0.37025711491E+02 -0.10840210908E+03  0.28001680381E+02  0.14957378962E+03  0.92012520199E+02 0.  0.
         23    2    1    2    0    0  0.37025711491E+02  0.10840210908E+03  0.85690531036E+01  0.16983011908E+03  0.12508764972E+03 0.  0.
          5    1    4    4  502    0 -0.31415320468E+02  0.56370682327E+01  0.30515755074E+02  0.44355186913E+02  0.41800000000E+01 0. -1.
         -5    1    4    4    0  502  0.68441031958E+02  0.10276504084E+03 -0.21946701970E+02  0.12547493217E+03  0.41800000000E+01 0. -1.
        -11    1    3    3    0    0 -0.65491247160E+02 -0.66218984306E+02  0.37722950013E+01  0.93210984045E+02  0.00000000000E+00 0. -1.
         11    1    3    3    0    0  0.28465535669E+02 -0.42183124770E+02  0.24229385379E+02  0.56362805574E+02  0.00000000000E+00 0.  1.
</event>
<event>
 8    1  0.5900800E-006  0.3070069E+03  0.7561462E-02  0.1081789E+00
          2   -1    0    0  501    0  0.00000000000E+00  0.00000000000E+00  0.77786353967E+03  0.77786353967E+03  0.00000000000E+00 0. -1.
         -2   -1    0    0    0  501 -0.00000000000E+00 -0.00000000000E+00 -0.20679046521E+03  0.20679046521E+03  0.00000000000E+00 0.  1.
         23    2    1    2    0    0 -0.27147979516E+03  0.10142370499E+03 -0.30193336938E+02  0.30556883564E+03  0.92046882619E+02 0.  0.
         23    2    1    2    0    0  0.27147979516E+03 -0.10142370499E+03  0.60126641140E+03  0.67908516924E+03  0.12508925808E+03 0.  0.
          5    1    4    4  502    0  0.87348601864E+02  0.26378899187E+02  0.16522059639E+03  0.18878808872E+03  0.41800000000E+01 0.  1.
         -5    1    4    4    0  502  0.18413119330E+03 -0.12780260418E+03  0.43604581501E+03  0.49029708052E+03  0.41800000000E+01 0.  1.
        -11    1    3    3    0    0 -0.57938491489E+02  0.55168824643E+02 -0.34278285453E+02  0.87037169428E+02  0.00000000000E+00 0.  1.
         11    1    3    3    0    0 -0.21354130367E+03  0.46254880351E+02  0.40849485148E+01  0.21853166621E+03  0.00000000000E+00 0. -1.
</event>
<event>
 7    1  0.5900800E-006  0.8928274E+02  0.7561462E-02  0.1304598E+00
          1   -1    0    0  501    0  0.00000000000E+00  0.00000000000E+00  0.57721242436E+03  0.57721242436E+03  0.00000000000E+00 0. -1.
         -1   -1    0    0    0  501 -0.00000000000E+00 -0.00000000000E+00 -0.73301641064E+02  0.73301641064E+02  0.00000000000E+00 0.  1.
         23    2    1    2    0    0 -0.41914957874E+02 -0.24035210159E+02 -0.16966355563E+02  0.10271608505E+03  0.89040338528E+02 0.  0.
          5    1    1    2  502    0  0.48966675290E+02 -0.46060148464E+01  0.51509024213E+03  0.51744988221E+03  0.41800000000E+01 0. -1.
         -5    1    1    2    0  502 -0.70517174161E+01  0.28641225006E+02  0.57868967217E+01  0.30348098161E+02  0.41800000000E+01 0.  1.
        -11    1    3    3    0    0  0.21589195111E+02  0.13676352061E+02  0.41680876651E+01  0.25894186723E+02  0.00000000000E+00 0. -1.
         11    1    3    3    0    0 -0.63504152985E+02 -0.37711562221E+02 -0.21134443228E+02  0.76821898323E+02  0.00000000000E+00 0.  1.
</event>
<event>
 8    1  0.5900800E-006  0.1148217E+03  0.7561462E-02  0.1251893E+00
          1   -1    0    0  501    0  0.00000000000E+00  0.00000000000E+00  0.36739324912E+02  0.36739324912E+02  0.00000000000E+00 0. -1.
         -1   -1    0    0    0  501 -0.00000000000E+00 -0.00000000000E+00 -0.37507820255E+03  0.37507820255E+03  0.00000000000E+00 0.  1.
         23    2    1    2    0    0 -0.69518634324E+01 -0.44703713506E+02 -0.15728069966E+03  0.18714818864E+03  0.90777065486E+02 0.  0.
         23    2    1    2    0    0  0.69518634324E+01  0.44703713506E+02 -0.18105817797E+03  0.22466933882E+03  0.12508995798E+03 0.  0.
          5    1    4    4  502    0 -0.49538966839E+02  0.52277808404E+02 -0.74207608182E+02  0.10349550714E+03  0.41800000000E+01 0.  1.
         -5    1    4    4    0  502  0.56490830271E+02 -0.75740948980E+01 -0.10685056979E+03  0.12117383168E+03  0.41800000000E+01 0.  1.
        -11    1    3    3    0    0  0.80725628071E+01  0.26436759371E+02 -0.56236938228E+02  0.62663081137E+02  0.00000000000E+00 0.  1.
         11    1    3    3    0    0 -0.15024426239E+02 -0.71140472877E+02 -0.10104376144E+03  0.12448510750E+03  0.00000000000E+00 0. -1.
</event>
<event>
 8    1  0.5900800E-006  0.8898734E+02  0.7561462E-02  0.1305323E+00
          2   -1    0    0  501    0  0.00000000000E+00  0.00000000000E+00  0.66138226052E+02  0.66138226052E+02  0.00000000000E+00 0. -1.
         -2   -1    0    0    0  501 -0.00000000000E+00 -0.00000000000E+00 -0.24141133124E+03  0.24141133124E+03  0.00000000000E+00 0.  1.
         23    2    1    2    0    0 -0.62669595320E+01  0.63833864125E+02 -0.11159257527E+03  0.15322467106E+03  0.83131582311E+02 0.  0.
         23    2    1    2    0    0  0.62669595320E+01 -0.63833864125E+02 -0.63680529919E+02  0.15432488622E+03  0.12508766377E+03 0.  0.
          5    1    4    4  502    0  0.41960835719E+02 -0.61955061204E+02 -0.84342284546E+02  0.11282834177E+03  0.41800000000E+01 0. -1.
         -5    1    4    4    0  502 -0.35693876187E+02 -0.18788029203E+01  0.20661754628E+02  0.41496544458E+02  0.41800000000E+01 0. -1.
        -11    1    3    3    0    0  0.55736655332E+01  0.40457525075E+02 -0.11914820383E+03  0.12595305299E+03  0.00000000000E+00 0.  1.
         11    1    3    3    0    0 -0.11840625065E+02  0.23376339050E+02  0.75556285624E+01  0.27271618072E+02  0.00000000000E+00 0. -1.
</event>
<event>
 8    1  0.5900800E-006  0.2277889E+03  0.7561462E-02  0.1128206E+00
         -2   -1    0    0    0  501 -0.00000000000E+00  0.00000000000E+00  0.24547611816E+03  0.24547611816E+03  0.00000000000E+00 0.  1.
          2   -1    0    0  501    0  0.00000000000E+00 -0.00000000000E+00 -0.25503761982E+03  0.25503761982E+03  0.00000000000E+00 0. -1.
         23    2    1    2    0    0 -0.20143479254E+03 -0.24167486739E+01  0.95564250144E+02  0.24112983999E+03  0.91810987945E+02 0.  0.
         23    2    1    2    0    0  0.20143479254E+03  0.24167486739E+01 -0.10512575181E+03  0.25938389799E+03  0.12508703579E+03 0.  0.
          5    1    4    4  502    0  0.17494189084E+02  0.44101677431E+02 -0.30213872534E+02  0.56403502528E+02  0.41800000000E+01 0.  1.
         -5    1    4    4    0  502  0.18394060346E+03 -0.41684928757E+02 -0.74911879271E+02  0.20298039546E+03  0.41800000000E+01 0.  1.
        -11    1    3    3    0    0 -0.72733046468E+02  0.40972103849E+02  0.52636884852E+02  0.98688656842E+02  0.00000000000E+00 0.  1.
         11    1    3    3    0    0 -0.12870174608E+03 -0.43388852523E+02  0.42927365292E+02  0.14244118315E+03  0.00000000000E+00 0. -1.
</event>
<event>
 8    1  0.5900800E-006  0.1288509E+03  0.7561462E-02  0.1229171E+00
         -1   -1    0    0    0  501 -0.00000000000E+00  0.00000000000E+00  0.61936853896E+02  0.61936853896E+02  0.00000000000E+00 0.  1.
          1   -1    0    0  501    0  0.00000000000E+00 -0.00000000000E+00 -0.39493694897E+03  0.39493694897E+03  0.00000000000E+00 0. -1.
         23    2    1    2    0    0  0.29490788513E+02  0.93659637711E+02 -0.74619253388E+02  0.15347625452E+03  0.91351482655E+02 0.  0.
         23    2    1    2    0    0 -0.29490788513E+02 -0.93659637711E+02 -0.25838084168E+03  0.30339754834E+03  0.12509028198E+03 0.  0.
          5    1    4    4  502    0 -0.61349876243E+02 -0.10764913861E+03 -0.20026897731E+03  0.23553615440E+03  0.41800000000E+01 0. -1.
         -5    1    4    4    0  502  0.31859087730E+02  0.13989500896E+02 -0.58111864375E+02  0.67861393940E+02  0.41800000000E+01 0. -1.
        -11    1    3    3    0    0  0.64556843084E+01  0.99489651249E+01  0.21126064482E+02  0.24227430063E+02  0.00000000000E+00 0.  1.
         11    1    3    3    0    0  0.23035104204E+02  0.83710672586E+02 -0.95745317870E+02  0.12924882446E+03  0.00000000000E+00 0. -1.
</event>
<event>
 8    1  0.5900800E-006  0.9615139E+02  0.7561462E-02  0.1288604E+00
         -1   -1    0    0    0  501 -0.00000000000E+00  0.00000000000E+00  0.92175798765E+02  0.92175798765E+02  0.00000000000E+00 0.  1.
          1   -1    0    0  501    0  0.00000000000E+00 -0.00000000000E+00 -0.17381549664E+03  0.17381549664E+03  0.00000000000E+00 0. -1.
         23    2    1    2    0    0  0.33509223734E+02  0.19094260170E+02  0.27594401400E+02  0.10473139522E+03  0.93379630058E+02 0.  0.
         23    2    1    2    0    0 -0.33509223734E+02 -0.19094260170E+02 -0.10923409928E+03  0.16125990019E+03  0.11218381397E+03 0.  0.
          5    1    4    4  502    0 -0.11666808916E+02 -0.52911951813E+02 -0.10784262651E+03  0.12076130824E+03  0.41800000000E+01 0. -1.
         -5    1    4    4    0  502 -0.21842414818E+02  0.33817691643E+02 -0.13914727660E+01  0.40498591946E+02  0.41800000000E+01 0.  1.
        -11    1    3    3    0    0  0.61854131416E+02 -0.24163611961E+01  0.30543269534E+02  0.69026543362E+02  0.00000000000E+00 0.  1.
         11    1    3    3    0    0 -0.28344907682E+02  0.21510621366E+02 -0.29488681334E+01  0.35704851860E+02  0.00000000000E+00 0. -1.
</event>
<event>
 8    1  0.5900800E-006  0.8357681E+02  0.7561462E-02  0.1319197E+00
          1   -1    0    0  501    0  0.00000000000E+00  0.00000000000E+00  0.63943738326E+03  0.63943738326E+03  0.00000000000E+00 0. -1.
         -1   -1    0    0    0  501 -0.00000000000E+00 -0.00000000000E+00 -0.22446524520E+02  0.22446524520E+02  0.00000000000E+00 0.  1.
         23    2    1    2    0    0 -0.44050071568E+01 -0.15996596459E+00  0.12518663353E+03  0.15440134563E+03  0.90269887785E+02 0.  0.
         23    2    1    2    0    0  0.44050071568E+01  0.15996596459E+00  0.49180422521E+03  0.50748256215E+03  0.12509086807E+03 0.  0.
          5    1    4    4  502    0  0.57617039127E+02  0.18700208015E+01  0.36997757270E+03  0.37446508099E+03  0.41800000000E+01 0.  1.
         -5    1    4    4    0  502 -0.53212031970E+02 -0.17100548369E+01  0.12182665251E+03  0.13301748116E+03  0.41800000000E+01 0.  1.
        -11    1    3    3    0    0 -0.29985820372E+02 -0.33510052944E+01  0.12503276198E+03  0.12862181086E+03  0.00000000000E+00 0. -1.
         11    1    3    3    0    0  0.25580813215E+02  0.31910393298E+01  0.15387155256E+00  0.25779534775E+02  0.00000000000E+00 0.  1.
</event>
<event>
 8    1  0.5900800E-006  0.9036512E+02  0.7561462E-02  0.1301970E+00
          2   -1    0    0  501    0  0.00000000000E+00  0.00000000000E+00  0.37517128548E+03  0.37517128548E+03  0.00000000000E+00 0. -1.
         -2   -1    0    0    0  501 -0.00000000000E+00 -0.00000000000E+00 -0.42088463889E+02  0.42088463889E+02  0.00000000000E+00 0.  1.
         23    2    1    2    0    0 -0.55658738181E+02  0.22190417066E+02  0.11129783197E+03  0.15649520324E+03  0.92267174509E+02 0.  0.
         23    2    1    2    0    0  0.55658738181E+02 -0.22190417066E+02  0.22178498962E+03  0.26076454612E+03  0.12336635339E+03 0.  0.
          5    1    4    4  502    0  0.18040780867E+02  0.10009100967E+02  0.20818170946E+03  0.20924327571E+03  0.41800000000E+01 0. -1.
         -5    1    4    4    0  502  0.37617957314E+02 -0.32199518033E+02  0.13603280164E+02  0.51521270416E+02  0.41800000000E+01 0.  1.
        -11    1    3    3    0    0  0.19468196805E+02 -0.16466001867E+02  0.27343215127E+02  0.37387047460E+02  0.00000000000E+00 0. -1.
         11    1    3    3    0    0 -0.75126934986E+02  0.38656418933E+02  0.83954616841E+02  0.11910815578E+03  0.00000000000E+00 0.  1.
</event>
<event>
 8    1  0.5900800E-006  0.9239914E+02  0.7561462E-02  0.1297144E+00
         -2   -1    0    0    0  501 -0.00000000000E+00  0.00000000000E+00  0.48377409128E+02  0.48377409128E+02  0.00000000000E+00 0.  1.
          2   -1    0    0  501    0  0.00000000000E+00 -0.00000000000E+00 -0.26670339584E+03  0.26670339584E+03  0.00000000000E+00 0. -1.
         23    2    1    2    0    0  0.17333429852E+02 -0.16758243653E+00 -0.56196271434E+02  0.10956747777E+03  0.92447473666E+02 0.  0.
         23    2    1    2    0    0 -0.17333429852E+02  0.16758243653E+00 -0.16212971528E+03  0.20551332720E+03  0.12509679135E+03 0.  0.
          5    1    4    4  502    0 -0.68367690747E+02 -0.15400791997E+02 -0.71125264626E+02  0.99937986773E+02  0.41800000000E+01 0. -1.
         -5    1    4    4    0  502  0.51034260895E+02  0.15568374434E+02 -0.91004450654E+02  0.10557534043E+03  0.41800000000E+01 0. -1.
        -11    1    3    3    0    0  0.36663489610E+02  0.11585747931E+02 -0.72238348354E+02  0.81834100462E+02  0.00000000000E+00 0. -1.
         11    1    3    3    0    0 -0.19330059758E+02 -0.11753330367E+02  0.16042076920E+02  0.27733377307E+02  0.00000000000E+00 0.  1.
</event>
<event>
 8    1  0.5900800E-006  0.7715472E+02  0.7561462E-02  0.1337325E+00
         -2   -1    0    0    0  501 -0.00000000000E+00  0.00000000000E+00  0.15421700539E+02  0.15421700539E+02  0.00000000000E+00 0.  1.
          2   -1    0    0  501    0  0.00000000000E+00 -0.00000000000E+00 -0.94385765997E+03  0.94385765997E+03  0.00000000000E+00 0. -1.
         23    2    1    2    0    0 -0.24195737207E+02 -0.45690398951E+02 -0.35873355186E+03  0.37372491198E+03  0.91145500995E+02 0.  0.
         23    2    1    2    0    0  0.24195737207E+02  0.45690398951E+02 -0.56970240758E+03  0.58555444853E+03  0.12506051631E+03 0.  0.
          5    1    4    4  502    0 -0.11854906118E+01  0.23727527138E+02 -0.12208730179E+02  0.27035650994E+02  0.41800000000E+01 0.  1.
         -5    1    4    4    0  502  0.25381227819E+02  0.21962871813E+02 -0.55749367740E+03  0.55851879754E+03  0.41800000000E+01 0.  1.
        -11    1    3    3    0    0  0.15751046740E+02 -0.53404467505E+02 -0.13031617613E+03  0.14171252021E+03  0.00000000000E+00 0.  1.
         11    1    3    3    0    0 -0.39946783947E+02  0.77140685549E+01 -0.22841737573E+03  0.23201239177E+03  0.00000000000E+00 0. -1.
</event>
<event>
 8    1  0.5900800E-006  0.9269063E+02  0.7561462E-02  0.1296464E+00
          1   -1    0    0  501    0  0.00000000000E+00  0.00000000000E+00  0.16576879120E+03  0.16576879120E+03  0.00000000000E+00 0. -1.
         -1   -1    0    0    0  501 -0.00000000000E+00 -0.00000000000E+00 -0.88642263791E+02  0.88642263791E+02  0.00000000000E+00 0.  1.
         23    2    1    2    0    0  0.25046506595E+02 -0.19924795615E+02 -0.13469029417E+02  0.96677299537E+02  0.90226163165E+02 0.  0.
         23    2    1    2    0    0 -0.25046506595E+02  0.19924795615E+02  0.90595556831E+02  0.15773375546E+03  0.12509219688E+03 0.  0.
          5    1    4    4  502    0  0.46587313119E+00 -0.32148049258E+02  0.94062346301E+02  0.99493273645E+02  0.41800000000E+01 0.  1.
         -5    1    4    4    0  502 -0.25512379726E+02  0.52072844874E+02 -0.34667894708E+01  0.58240481812E+02  0.41800000000E+01 0.  1.
        -11    1    3    3    0    0  0.29061272507E+02 -0.53566298728E+02 -0.22337285414E+01  0.60982747252E+02  0.00000000000E+00 0.  1.
         11    1    3    3    0    0 -0.40147659128E+01  0.33641503113E+02 -0.11235300876E+02  0.35694552285E+02  0.00000000000E+00 0. -1.
</event>
<event>
 8    1  0.5900800E-006  0.1427817E+03  0.7561462E-02  0.1209634E+00
         -2   -1    0    0    0  501 -0.00000000000E+00  0.00000000000E+00  0.22985553227E+02  0.22985553227E+02  0.00000000000E+00 0.  1.
          2   -1    0    0  501    0  0.00000000000E+00 -0.00000000000E+00 -0.92656909004E+03  0.92656909004E+03  0.00000000000E+00 0. -1.
         23    2    1    2    0    0 -0.71940150748E+02 -0.62410581453E+02 -0.37607281536E+03  0.39911618976E+03  0.93768355580E+02 0.  0.
         23    2    1    2    0    0  0.71940150748E+02  0.62410581453E+02 -0.52751072146E+03  0.55043845351E+03  0.12507783131E+03 0.  0.
          5    1    4    4  502    0  0.76794743123E+02 -0.13655639597E+02 -0.31805106470E+03  0.32750245987E+03  0.41800000000E+01 0. -1.
         -5    1    4    4    0  502 -0.48545923747E+01  0.76066221050E+02 -0.20945965676E+03  0.22293599365E+03  0.41800000000E+01 0. -1.
        -11    1    3    3    0    0  0.19327748497E+02  0.19677894948E+01 -0.32704026841E+02  0.38039287967E+02  0.00000000000E+00 0.  1.
         11    1    3    3    0    0 -0.91267899245E+02 -0.64378370948E+02 -0.34336878852E+03  0.36107690179E+03  0.00000000000E+00 0. -1.
</event>
<event>
 8    1  0.5900800E-006  0.1106569E+03  0.7561462E-02  0.1259358E+00
          1   -1    0    0  501    0  0.00000000000E+00  0.00000000000E+00  0.58080318504E+02  0.58080318504E+02  0.00000000000E+00 0. -1.
         -1   -1    0    0    0  501 -0.00000000000E+00 -0.00000000000E+00 -0.40515341873E+03  0.40515341873E+03  0.00000000000E+00 0.  1.
         23    2    1    2    0    0  0.39328956300E+02  0.98457731753E+02 -0.13416037899E+03  0.19449695911E+03  0.92678843681E+02 0.  0.
         23    2    1    2    0    0 -0.39328956300E+02 -0.98457731753E+02 -0.21291272123E+03  0.26873677812E+03  0.12508771845E+03 0.  0.
          5    1    4    4  502    0 -0.17793036960E+02 -0.66353335266E+02 -0.19612624648E+02  0.71564549260E+02  0.41800000000E+01 0. -1.
         -5    1    4    4    0  502 -0.21535919341E+02 -0.32104396486E+02 -0.19330009658E+03  0.19717222886E+03  0.41800000000E+01 0. -1.
        -11    1    3    3    0    0  0.33697077095E+02  0.30610736714E+02 -0.16899249579E+01  0.45556185675E+02  0.00000000000E+00 0. -1.
         11    1    3    3    0    0  0.56318792059E+01  0.67846995038E+02 -0.13247045404E+03  0.14894077344E+03  0.00000000000E+00 0.  1.
</event>
<event>
 8    1  0.5900800E-006  0.1180363E+03  0.7561462E-02  0.1246372E+00
         -1   -1    0    0    0  501 -0.00000000000E+00  0.00000000000E+00  0.10179390806E+03  0.10179390806E+03  0.00000000000E+00 0.  1.
          1   -1    0    0  501    0  0.00000000000E+00 -0.00000000000E+00 -0.20007298387E+03  0.20007298387E+03  0.00000000000E+00 0. -1.
         23    2    1    2    0    0 -0.10214124625E+01 -0.73395723887E+02  0.15126595493E+02  0.11775778966E+03  0.90830102748E+02 0.  0.
         23    2    1    2    0    0  0.10214124625E+01  0.73395723887E+02 -0.11340567130E+03  0.18410910227E+03  0.12508932683E+03 0.  0.
          5    1    4    4  502    0  0.24631241179E+02 -0.15559188115E+02  0.91179773624E+01  0.30812274957E+02  0.41800000000E+01 0.  1.
         -5    1    4    4    0  502 -0.23609828717E+02  0.88954912002E+02 -0.12252364866E+03  0.15329682731E+03  0.41800000000E+01 0.  1.
        -11    1    3    3    0    0  0.43321609687E+02 -0.40427062896E+02  0.19366773558E+02  0.62339242843E+02  0.00000000000E+00 0. -1.
         11    1    3    3    0    0 -0.44343022149E+02 -0.32968660991E+02 -0.42401780654E+01  0.55418546813E+02  0.00000000000E+00 0.  1.
</event>
<event>
 8    1  0.5900800E-006  0.2004949E+03  0.7561462E-02  0.1149322E+00
          2   -1    0    0  501    0  0.00000000000E+00  0.00000000000E+00  0.10271463164E+03  0.10271463164E+03  0.00000000000E+00 0. -1.
         -2   -1    0    0    0  501 -0.00000000000E+00 -0.00000000000E+00 -0.41345684106E+03  0.41345684106E+03  0.00000000000E+00 0.  1.
         23    2    1    2    0    0  0.16774248422E+03 -0.14154211219E+02 -0.18864989644E+03  0.27343937578E+03  0.10412697100E+03 0.  0.
         23    2    1    2    0    0 -0.16774248422E+03  0.14154211219E+02 -0.12209231298E+03  0.24273209693E+03  0.12519766485E+03 0.  0.
          5    1    4    4  502    0 -0.68283636457E+02  0.66287229354E+02 -0.38799269495E+02  0.10285673287E+03  0.41800000000E+01 0. -1.
         -5    1    4    4    0  502 -0.99458847760E+02 -0.52133018135E+02 -0.83293043483E+02  0.13987536406E+03  0.41800000000E+01 0. -1.
        -11    1    3    3    0    0  0.19882730629E+02 -0.38669601365E+02 -0.20139268337E+02  0.47919215104E+02  0.00000000000E+00 0.  1.
         11    1    3    3    0    0  0.14785975359E+03  0.24515390146E+02 -0.16851062810E+03  0.22552016067E+03  0.00000000000E+00 0. -1.
</event>
<event>
 7    1  0.5900800E-006  0.1777292E+03  0.7561462E-02  0.1170019E+00
         -2   -1    0    0    0  501 -0.00000000000E+00  0.00000000000E+00  0.34167566371E+03  0.34167566371E+03  0.00000000000E+00 0.  1.
          2   -1    0    0  501    0  0.00000000000E+00 -0.00000000000E+00 -0.11289640260E+03  0.11289640260E+03  0.00000000000E+00 0. -1.
         23    2    1    2    0    0 -0.80392975385E+02 -0.50583124861E+02  0.15220891570E+03  0.20179642436E+03  0.92371856407E+02 0.  0.
          5    1    1    2  502    0  0.23310619579E+02 -0.82165445736E+02 -0.70001153517E+01  0.85796383800E+02  0.41800000000E+01 0. -1.
         -5    1    1    2    0  502  0.57082355806E+02  0.13274857060E+03  0.83570460758E+02  0.16697925815E+03  0.41800000000E+01 0.  1.
        -11    1    3    3    0    0  0.16938830185E+02 -0.11641996150E+02  0.51366793455E+01  0.21185974537E+02  0.00000000000E+00 0.  1.
         11    1    3    3    0    0 -0.97331805570E+02 -0.38941128710E+02  0.14707223635E+03  0.18061044983E+03  0.00000000000E+00 0. -1.
</event>
<event>
 8    1  0.5900800E-006  0.7738043E+02  0.7561462E-02  0.1336654E+00
         -1   -1    0    0    0  501 -0.00000000000E+00  0.00000000000E+00  0.19765157109E+02  0.19765157109E+02  0.00000000000E+00 0.  1.
          1   -1    0    0  501    0  0.00000000000E+00 -0.00000000000E+00 -0.71484080836E+03  0.71484080836E+03  0.00000000000E+00 0. -1.
         23    2    1    2    0    0  0.32505474600E+02  0.21842981625E+02 -0.20295565433E+03  0.22532875770E+03  0.89712483512E+02 0.  0.
         23    2    1    2    0    0 -0.32505474600E+02 -0.21842981625E+02 -0.49211999692E+03  0.50927720777E+03  0.12508981276E+03 0.  0.
          5    1    4    4  502    0 -0.47087033124E+01  0.16057743142E+02 -0.43431819901E+03  0.43466054961E+03  0.41800000000E+01 0. -1.
         -5    1    4    4    0  502 -0.27796771287E+02 -0.37900724767E+02 -0.57801797915E+02  0.74616658154E+02  0.41800000000E+01 0. -1.
        -11    1    3    3    0    0 -0.22884618318E+02  0.26173085765E+02 -0.39157935702E+02  0.52364874700E+02  0.00000000000E+00 0.  1.
         11    1    3    3    0    0  0.55390092917E+02 -0.43301041396E+01 -0.16379771863E+03  0.17296388300E+03  0.00000000000E+00 0. -1.
</event>
<event>
 8    1  0.5900800E-006  0.1885880E+03  0.7561462E-02  0.1159741E+00
         -1   -1    0    0    0  501 -0.00000000000E+00  0.00000000000E+00  0.29134026212E+03  0.29134026212E+03  0.00000000000E+00 0.  1.
          1   -1    0    0  501    0  0.00000000000E+00 -0.00000000000E+00 -0.16058778525E+03  0.16058778525E+03  0.00000000000E+00 0. -1.
         23    2    1    2    0    0  0.93927506506E+02 -0.13965986947E+03  0.14644084369E+03  0.24164128611E+03  0.92834987107E+02 0.  0.
         23    2    1    2    0    0 -0.93927506506E+02  0.13965986947E+03 -0.15688366822E+02  0.21028676127E+03  0.12508853462E+03 0.  0.
          5    1    4    4  502    0 -0.42107609654E+02  0.12742332445E+03  0.32730399680E+02  0.13819734392E+03  0.41800000000E+01 0. -1.
         -5    1    4    4    0  502 -0.51819896853E+02  0.12236545023E+02 -0.48418766502E+02  0.72089417347E+02  0.41800000000E+01 0. -1.
        -11    1    3    3    0    0  0.10663125605E+03 -0.14094142699E+03  0.14535101175E+03  0.22882663138E+03  0.00000000000E+00 0.  1.
         11    1    3    3    0    0 -0.12703749546E+02  0.12815575236E+01  0.10898319446E+01  0.12814654732E+02  0.00000000000E+00 0. -1.
</event>
<event>
 8    1  0.5900800E-006  0.8909377E+02  0.7561462E-02  0.1305061E+00
         -1   -1    0    0    0  501 -0.00000000000E+00  0.00000000000E+00  0.49013606020E+02  0.49013606020E+02  0.00000000000E+00 0.  1.
          1   -1    0    0  501    0  0.00000000000E+00 -0.00000000000E+00 -0.36275749426E+03  0.36275749426E+03  0.00000000000E+00 0. -1.
         23    2    1    2    0    0  0.56410876499E+01 -0.66613536441E+02 -0.83953839445E+02  0.14173396096E+03  0.92580145951E+02 0.  0.
         23    2    1    2    0    0 -0.56410876499E+01  0.66613536441E+02 -0.22979004879E+03  0.27003713932E+03  0.12508958782E+03 0.  0.
          5    1    4    4  502    0  0.13370576781E+02  0.73449617718E+01 -0.20049464688E+03  0.20111761886E+03  0.41800000000E+01 0.  1.
         -5    1    4    4    0  502 -0.19011664431E+02  0.59268574669E+02 -0.29295401912E+02  0.68919520463E+02  0.41800000000E+01 0.  1.
        -11    1    3    3    0    0 -0.12908814381E+02  0.12952618376E+02 -0.50036565456E+02  0.53273498985E+02  0.00000000000E+00 0.  1.
         11    1    3    3    0    0  0.18549902031E+02 -0.79566154816E+02 -0.33917273989E+02  0.88460461973E+02  0.00000000000E+00 0. -1.
</event>
<event>
 8    1  0.5900800E-006  0.1762613E+03  0.7561462E-02  0.1171471E+00
         -2   -1    0    0    0  501 -0.00000000000E+00  0.00000000000E+00  0.43301124786E+03  0.43301124786E+03  0.00000000000E+00 0.  1.
          2   -1    0    0  501    0  0.00000000000E+00 -0.00000000000E+00 -0.84114284640E+02  0.84114284640E+02  0.00000000000E+00 0. -1.
         23    2    1    2    0    0  0.12175365344E+03  0.94220956274E+02  0.20294451935E+03  0.27085119339E+03  0.92045370881E+02 0.  0.
         23    2    1    2    0    0 -0.12175365344E+03 -0.94220956274E+02  0.14595244387E+03  0.24627433910E+03  0.12508954194E+03 0.  0.
          5    1    4    4  502    0 -0.12382807575E+01  0.25150972044E+02  0.57497901768E+01  0.26165573203E+02  0.41800000000E+01 0.  1.
         -5    1    4    4    0  502 -0.12051537269E+03 -0.11937192832E+03  0.14020265369E+03  0.22010876590E+03  0.41800000000E+01 0.  1.
        -11    1    3    3    0    0  0.77918943538E+02  0.78879902261E+02  0.19415737140E+03  0.22358552192E+03  0.00000000000E+00 0.  1.
         11    1    3    3    0    0  0.43834709906E+02  0.15341054013E+02  0.87871479478E+01  0.47265671474E+02  0.00000000000E+00 0. -1.
</event>
<event>
 8    1  0.5900800E-006  0.1080492E+03  0.7561462E-02  0.1264226E+00
          4   -1    0    0  501    0  0.00000000000E+00  0.00000000000E+00  0.75633874478E+03  0.75633874478E+03  0.00000000000E+00 0. -1.
         -4   -1    0    0    0  501 -0.00000000000E+00 -0.00000000000E+00 -0.34396300129E+02  0.34396300129E+02  0.00000000000E+00 0.  1.
         23    2    1    2    0    0  0.23077831612E+02 -0.41944352423E+02  0.69935023019E+02  0.12511301434E+03  0.92035014535E+02 0.  0.
         23    2    1    2    0    0 -0.23077831612E+02  0.41944352423E+02  0.65200742163E+03  0.66562203057E+03  0.12508834759E+03 0.  0.
          5    1    4    4  502    0  0.42905998523E+02  0.45902605072E+02  0.23070107189E+03  0.23914102708E+03  0.41800000000E+01 0.  1.
         -5    1    4    4    0  502 -0.65983830135E+02 -0.39582526491E+01  0.42130634975E+03  0.42648100349E+03  0.41800000000E+01 0.  1.
        -11    1    3    3    0    0  0.63436506573E+01  0.20908550195E+02  0.53845931101E+02  0.58110185605E+02  0.00000000000E+00 0. -1.
         11    1    3    3    0    0  0.16734180955E+02 -0.62852902618E+02  0.16089091919E+02  0.67002828735E+02  0.00000000000E+00 0.  1.
</event>
<event>
 8    1  0.5900800E-006  0.1245614E+03  0.7561462E-02  0.1235756E+00
          1   -1    0    0  501    0  0.00000000000E+00  0.00000000000E+00  0.30900647532E+03  0.30900647532E+03  0.00000000000E+00 0. -1.
         -1   -1    0    0    0  501 -0.00000000000E+00 -0.00000000000E+00 -0.15423684207E+03  0.15423684207E+03  0.00000000000E+00 0.  1.
         23    2    1    2    0    0 -0.91697136664E+02 -0.50475980254E+02 -0.92204194564E+02  0.16727066685E+03  0.92312908295E+02 0.  0.
         23    2    1    2    0    0  0.91697136664E+02  0.50475980254E+02  0.24697382781E+03  0.29597265054E+03  0.12509016265E+03 0.  0.
          5    1    4    4  502    0  0.22937059747E+02  0.35318566782E+02  0.21393999236E+03  0.21808553964E+03  0.41800000000E+01 0.  1.
         -5    1    4    4    0  502  0.68760076917E+02  0.15157413472E+02  0.33033835455E+02  0.77887110909E+02  0.41800000000E+01 0.  1.
        -11    1    3    3    0    0 -0.86982899493E+02 -0.14286275798E+01 -0.40874302140E+02  0.96118543249E+02  0.00000000000E+00 0. -1.
         11    1    3    3    0    0 -0.47142371717E+01 -0.49047352675E+02 -0.51329892424E+02  0.71152123600E+02  0.00000000000E+00 0.  1.
</event>
<event>
 8    1  0.5900800E-006  0.2020165E+03  0.7561462E-02  0.1148049E+00
          2   -1    0    0  501    0  0.00000000000E+00  0.00000000000E+00  0.23118333253E+04  0.23118333253E+04  0.00000000000E+00 0.  1.
         -2   -1    0    0    0  501 -0.00000000000E+00 -0.00000000000E+00 -0.28095918783E+02  0.28095918783E+02  0.00000000000E+00 0. -1.
         23    2    1    2    0    0  0.17074681564E+03  0.97621262115E+02  0.55595597386E+03  0.59649557596E+03  0.89641181366E+02 0.  0.
         23    2    1    2    0    0 -0.17074681564E+03 -0.97621262115E+02  0.17277814326E+04  0.17434336681E+04  0.12509152754E+03 0.  0.
          5    1    4    4  502    0 -0.62638561834E+02 -0.32624610508E+02  0.23740669639E+03  0.24772437613E+03  0.41800000000E+01 0. -1.
         -5    1    4    4    0  502 -0.10810825380E+03 -0.64996651607E+02  0.14903747362E+04  0.14957092919E+04  0.41800000000E+01 0. -1.
        -11    1    3    3    0    0  0.93120691126E+02  0.89269220145E+02  0.42382883789E+03  0.44302521442E+03  0.00000000000E+00 0. -1.
         11    1    3    3    0    0  0.77626124509E+02  0.83520419706E+01  0.13212713597E+03  0.15347036154E+03  0.00000000000E+00 0.  1.
</event>
<event>
 8    1  0.5900800E-006  0.6567796E+02  0.7561462E-02  0.1375439E+00
         -2   -1    0    0    0  501 -0.00000000000E+00  0.00000000000E+00  0.18571824871E+02  0.18571824871E+02  0.00000000000E+00 0. -1.
          2   -1    0    0  501    0  0.00000000000E+00 -0.00000000000E+00 -0.66334619368E+03  0.66334619368E+03  0.00000000000E+00 0.  1.
         23    2    1    2    0    0  0.28650249563E+02 -0.29132170538E+02 -0.26850231133E+03  0.28329815832E+03  0.80590540146E+02 0.  0.
         23    2    1    2    0    0 -0.28650249563E+02  0.29132170538E+02 -0.37627205748E+03  0.39861986022E+03  0.12509041356E+03 0.  0.
          5    1    4    4  502    0  0.85723108524E+01 -0.54070347887E+01 -0.32879517181E+03  0.32897789887E+03  0.41800000000E+01 0.  1.
         -5    1    4    4    0  502 -0.37222560415E+02  0.34539205327E+02 -0.47476885666E+02  0.69641961352E+02  0.41800000000E+01 0.  1.
        -11    1    3    3    0    0  0.45422533310E+02 -0.26133841519E+02 -0.25803277122E+03  0.26330038972E+03  0.00000000000E+00 0.  1.
         11    1    3    3    0    0 -0.16772283748E+02 -0.29983290193E+01 -0.10469540112E+02  0.19997768605E+02  0.00000000000E+00 0. -1.
</event>
<event>
 8    1  0.5900800E-006  0.7389580E+02  0.7561462E-02  0.1347325E+00
          2   -1    0    0  501    0  0.00000000000E+00  0.00000000000E+00  0.27317828253E+03  0.27317828253E+03  0.00000000000E+00 0. -1.
         -2   -1    0    0    0  501 -0.00000000000E+00 -0.00000000000E+00 -0.53176758783E+02  0.53176758783E+02  0.00000000000E+00 0.  1.
         23    2    1    2    0    0  0.11981321020E+02  0.43116104404E+02  0.56986301455E+02  0.11605656198E+03  0.90659453521E+02 0.  0.
         23    2    1    2    0    0 -0.11981321020E+02 -0.43116104404E+02  0.16301522230E+03  0.21029847934E+03  0.12509571215E+03 0.  0.
          5    1    4    4  502    0 -0.37138320508E+02 -0.43983801843E+02  0.17339697828E+03  0.18275068851E+03  0.41800000000E+01 0.  1.
         -5    1    4    4    0  502  0.25156999488E+02  0.86769743905E+00 -0.10381755985E+02  0.27547790826E+02  0.41800000000E+01 0.  1.
        -11    1    3    3    0    0  0.24260898318E+02  0.45944327303E+02 -0.55604011964E+01  0.52253138279E+02  0.00000000000E+00 0.  1.
         11    1    3    3    0    0 -0.12279577299E+02 -0.28282228987E+01  0.62546702652E+02  0.63803423701E+02  0.00000000000E+00 0. -1.
</event>
<event>
 8    1  0.5900800E-006  0.1135567E+03  0.7561462E-02  0.1254122E+00
          2   -1    0    0  501    0  0.00000000000E+00  0.00000000000E+00  0.73277361386E+03  0.73277361386E+03  0.00000000000E+00 0. -1.
         -2   -1    0    0    0  501 -0.00000000000E+00 -0.00000000000E+00 -0.21589189688E+02  0.21589189688E+02  0.00000000000E+00 0.  1.
         23    2    1    2    0    0  0.56654791438E+02  0.29436952931E+02  0.35555558880E+03  0.37200435682E+03  0.88832230508E+02 0.  0.
         23    2    1    2    0    0 -0.56654791438E+02 -0.29436952931E+02  0.35562883538E+03  0.38235844673E+03  0.12509921520E+03 0.  0.
          5    1    4    4  502    0  0.21949788295E+02 -0.32026612068E+02  0.35807698813E+02  0.52982646036E+02  0.41800000000E+01 0.  1.
         -5    1    4    4    0  502 -0.78604579733E+02  0.25896591364E+01  0.31982113656E+03  0.32937580069E+03  0.41800000000E+01 0.  1.
        -11    1    3    3    0    0  0.55614127883E+02  0.58213358615E+02  0.25504387533E+03  0.26744925628E+03  0.00000000000E+00 0. -1.
         11    1    3    3    0    0  0.10406635555E+01 -0.28776405684E+02  0.10051171347E+03  0.10455510054E+03  0.00000000000E+00 0.  1.
</event>
<event>
 8    1  0.5900800E-006  0.1051836E+03  0.7561462E-02  0.1269758E+00
         -3   -1    0    0    0  501 -0.00000000000E+00  0.00000000000E+00  0.27514203947E+02  0.27514203947E+02  0.00000000000E+00 0.  1.
          3   -1    0    0  501    0  0.00000000000E+00 -0.00000000000E+00 -0.76125913745E+03  0.76125913745E+03  0.00000000000E+00 0. -1.
         23    2    1    2    0    0 -0.28441640331E+02 -0.77609390140E+02 -0.20425046993E+03  0.23845998980E+03  0.91174381969E+02 0.  0.
         23    2    1    2    0    0  0.28441640331E+02  0.77609390140E+02 -0.52949446358E+03  0.55031335160E+03  0.12509298000E+03 0.  0.
          5    1    4    4  502    0  0.61271203839E+01  0.54637261837E+02 -0.67350292557E+02  0.87041980060E+02  0.41800000000E+01 0.  1.
         -5    1    4    4    0  502  0.22314519947E+02  0.22972128303E+02 -0.46214417102E+03  0.46327137154E+03  0.41800000000E+01 0.  1.
        -11    1    3    3    0    0 -0.61402371016E+02 -0.41905061417E+02 -0.11804067580E+03  0.13949869706E+03  0.00000000000E+00 0.  1.
         11    1    3    3    0    0  0.32960730685E+02 -0.35704328723E+02 -0.86209794128E+02  0.98961292739E+02  0.00000000000E+00 0. -1.
</event>
<event>
 8    1  0.5900800E-006  0.1271821E+03  0.7561462E-02  0.1231698E+00
         -1   -1    0    0    0  501 -0.00000000000E+00  0.00000000000E+00  0.66026680878E+02  0.66026680878E+02  0.00000000000E+00 0.  1.
          1   -1    0    0  501    0  0.00000000000E+00 -0.00000000000E+00 -0.33499012525E+03  0.33499012525E+03  0.00000000000E+00 0. -1.
         23    2    1    2    0    0 -0.43459052219E+02  0.82075546472E+02 -0.54860158627E+02  0.13622447590E+03  0.83200879092E+02 0.  0.
         23    2    1    2    0    0  0.43459052219E+02 -0.82075546472E+02 -0.21410328575E+03  0.26479233023E+03  0.12509866759E+03 0.  0.
          5    1    4    4  502    0  0.56852622708E+02 -0.95546128365E+02 -0.21818783690E+03  0.24491771664E+03  0.41800000000E+01 0. -1.
         -5    1    4    4    0  502 -0.13393570489E+02  0.13470581894E+02  0.40845511548E+01  0.19874613585E+02  0.41800000000E+01 0. -1.
        -11    1    3    3    0    0 -0.60405833093E+02  0.27247986057E+02 -0.20629361676E+02  0.69403803778E+02  0.00000000000E+00 0. -1.
         11    1    3    3    0    0  0.16946780874E+02  0.54827560415E+02 -0.34230796952E+02  0.66820672123E+02  0.00000000000E+00 0.  1.
</event>
<event>
 8    1  0.5900800E-006  0.1024539E+03  0.7561462E-02  0.1275219E+00
          1   -1    0    0  501    0  0.00000000000E+00  0.00000000000E+00  0.10847510864E+03  0.10847510864E+03  0.00000000000E+00 0. -1.
         -1   -1    0    0    0  501 -0.00000000000E+00 -0.00000000000E+00 -0.17229161307E+03  0.17229161307E+03  0.00000000000E+00 0.  1.
         23    2    1    2    0    0 -0.62434696952E+02  0.11086432241E+02 -0.68570533190E+02  0.14043381803E+03  0.10487487240E+03 0.  0.
         23    2    1    2    0    0  0.62434696952E+02 -0.11086432241E+02  0.47540287525E+01  0.14033290368E+03  0.12509885172E+03 0.  0.
          5    1    4    4  502    0 -0.27959427498E+02 -0.35991153867E+02 -0.46779451466E+01  0.46004872715E+02  0.41800000000E+01 0.  1.
         -5    1    4    4    0  502  0.90394124449E+02  0.24904721627E+02  0.94319738991E+01  0.94328030966E+02  0.41800000000E+01 0.  1.
        -11    1    3    3    0    0 -0.18545261539E+02 -0.38194954335E+01 -0.88117768951E+02  0.90129110035E+02  0.00000000000E+00 0.  1.
         11    1    3    3    0    0 -0.43889435413E+02  0.14905927674E+02  0.19547235761E+02  0.50304707996E+02  0.00000000000E+00 0. -1.
</event>
<event>
 8    1  0.5900800E-006  0.9940631E+02  0.7561462E-02  0.1281549E+00
         -2   -1    0    0    0  501 -0.00000000000E+00  0.00000000000E+00  0.26432284615E+02  0.26432284615E+02  0.00000000000E+00 0.  1.
          2   -1    0    0  501    0  0.00000000000E+00 -0.00000000000E+00 -0.58030177228E+03  0.58030177228E+03  0.00000000000E+00 0. -1.
         23    2    1    2    0    0 -0.48265744027E+02 -0.25818612014E+02 -0.18612919685E+03  0.21446153236E+03  0.91397418824E+02 0.  0.
         23    2    1    2    0    0  0.48265744027E+02  0.25818612014E+02 -0.36774029081E+03  0.39227252454E+03  0.12509448128E+03 0.  0.
          5    1    4    4  502    0  0.70529473927E+02  0.32198788240E+01 -0.99193043072E+02  0.12182572186E+03  0.41800000000E+01 0. -1.
         -5    1    4    4    0  502 -0.22263729900E+02  0.22598733190E+02 -0.26854724774E+03  0.27044680268E+03  0.41800000000E+01 0. -1.
        -11    1    3    3    0    0 -0.44666718344E+02 -0.52634182746E+02 -0.83576025487E+02  0.10839937711E+03  0.00000000000E+00 0.  1.
         11    1    3    3    0    0 -0.35990256823E+01  0.26815570732E+02 -0.10255317136E+03  0.10606215525E+03  0.00000000000E+00 0. -1.
</event>
<event>
 8    1  0.5900800E-006  0.2079233E+03  0.7561462E-02  0.1143221E+00
          1   -1    0    0  501    0  0.00000000000E+00  0.00000000000E+00  0.22280756095E+03  0.22280756095E+03  0.00000000000E+00 0. -1.
         -1   -1    0    0    0  501 -0.00000000000E+00 -0.00000000000E+00 -0.53529782839E+03  0.53529782839E+03  0.00000000000E+00 0.  1.
         23    2    1    2    0    0 -0.12227636338E+03 -0.14943135099E+03 -0.44429311430E+03  0.49296506331E+03  0.91306870104E+02 0.  0.
         23    2    1    2    0    0  0.12227636338E+03  0.14943135099E+03  0.13180284686E+03  0.26514032603E+03  0.12508462875E+03 0.  0.
          5    1    4    4  502    0  0.15533088742E+02  0.70652115334E+02 -0.73538756731E+01  0.72832342640E+02  0.41800000000E+01 0.  1.
         -5    1    4    4    0  502  0.10674327464E+03  0.78779235660E+02  0.13915672253E+03  0.19230798339E+03  0.41800000000E+01 0.  1.
        -11    1    3    3    0    0 -0.13485232589E+03 -0.12872062834E+03 -0.41499991504E+03  0.45494953505E+03  0.00000000000E+00 0.  1.
         11    1    3    3    0    0  0.12575962511E+02 -0.20710722658E+02 -0.29293199256E+02  0.38015528258E+02  0.00000000000E+00 0. -1.
</event>
<event>
 8    1  0.5900800E-006  0.1576207E+03  0.7561462E-02  0.1191409E+00
          2   -1    0    0  501    0  0.00000000000E+00  0.00000000000E+00  0.27062179105E+03  0.27062179105E+03  0.00000000000E+00 0. -1.
         -2   -1    0    0    0  501 -0.00000000000E+00 -0.00000000000E+00 -0.98134027813E+02  0.98134027813E+02  0.00000000000E+00 0.  1.
         23    2    1    2    0    0  0.11676715188E+03  0.45215184102E+02  0.63099722200E+02  0.16721072843E+03  0.91098145582E+02 0.  0.
         23    2    1    2    0    0 -0.11676715188E+03 -0.45215184102E+02  0.10938804104E+03  0.20154509044E+03  0.11391092716E+03 0.  0.
          5    1    4    4  502    0 -0.96564993446E+02  0.14620576135E+02  0.34898897255E+02  0.10379771016E+03  0.41800000000E+01 0. -1.
         -5    1    4    4    0  502 -0.20202158433E+02 -0.59835760237E+02  0.74489143786E+02  0.97747380274E+02  0.41800000000E+01 0.  1.
        -11    1    3    3    0    0 -0.15162299277E+02  0.16212799557E+01  0.18367433584E+01  0.15358954854E+02  0.00000000000E+00 0. -1.
         11    1    3    3    0    0  0.13192945116E+03  0.43593904146E+02  0.61262978841E+02  0.15185177357E+03  0.00000000000E+00 0.  1.
</event>
<event>
 8    1  0.5900800E-006  0.1356577E+03  0.7561462E-02  0.1219294E+00
         -3   -1    0    0    0  501 -0.00000000000E+00  0.00000000000E+00  0.45310076549E+02  0.45310076549E+02  0.00000000000E+00 0.  1.
          3   -1    0    0  501    0  0.00000000000E+00 -0.00000000000E+00 -0.67129466537E+03  0.67129466537E+03  0.00000000000E+00 0. -1.
         23    2    1    2    0    0 -0.41393638497E+02 -0.78778369382E+02 -0.83404869855E+02  0.15272582406E+03  0.91920292802E+02 0.  0.
         23    2    1    2    0    0  0.41393638497E+02  0.78778369382E+02 -0.54257971897E+03  0.56387891786E+03  0.12508883956E+03 0.  0.
          5    1    4    4  502    0  0.56022170897E+02  0.10703242922E+03 -0.40828027569E+03  0.42579887324E+03  0.41800000000E+01 0.  1.
         -5    1    4    4    0  502 -0.14628532400E+02 -0.28254059836E+02 -0.13429944328E+03  0.13808004462E+03  0.41800000000E+01 0.  1.
        -11    1    3    3    0    0 -0.80238281424E+01 -0.84162886236E+02 -0.30367277043E+02  0.89832871226E+02  0.00000000000E+00 0.  1.
         11    1    3    3    0    0 -0.33369810355E+02  0.53845168542E+01 -0.53037592813E+02  0.62892952835E+02  0.00000000000E+00 0. -1.
</event>
<event>
 8    1  0.5900800E-006  0.1556584E+03  0.7561462E-02  0.1193687E+00
         -2   -1    0    0    0  501 -0.00000000000E+00  0.00000000000E+00  0.15274608253E+02  0.15274608253E+02  0.00000000000E+00 0.  1.
          2   -1    0    0  501    0  0.00000000000E+00 -0.00000000000E+00 -0.21019934263E+04  0.21019934263E+04  0.00000000000E+00 0. -1.
         23    2    1    2    0    0  0.24486090826E+02 -0.12673526430E+03 -0.53531763606E+03  0.55548930591E+03  0.73088998111E+02 0.  0.
         23    2    1    2    0    0 -0.24486090826E+02  0.12673526430E+03 -0.15514011820E+04  0.15617787286E+04  0.12508306801E+03 0.  0.
          5    1    4    4  502    0 -0.69481382995E+02  0.86298349813E+02 -0.75827089936E+03  0.76633367209E+03  0.41800000000E+01 0.  1.
         -5    1    4    4    0  502  0.44995292169E+02  0.40436914489E+02 -0.79313028261E+03  0.79544505653E+03  0.41800000000E+01 0.  1.
        -11    1    3    3    0    0  0.35552483579E+02 -0.45123975283E+02 -0.13378263138E+03  0.14559513966E+03  0.00000000000E+00 0.  1.
         11    1    3    3    0    0 -0.11066392753E+02 -0.81611289019E+02 -0.40153500467E+03  0.40989416625E+03  0.00000000000E+00 0. -1.
</event>
<event>
 7    1  0.5900800E-006  0.7517818E+02  0.7561462E-02  0.1343320E+00
         -2   -1    0    0    0  501 -0.00000000000E+00  0.00000000000E+00  0.51823139616E+02  0.51823139616E+02  0.00000000000E+00 0.  1.
          2   -1    0    0  501    0  0.00000000000E+00 -0.00000000000E+00 -0.14843154877E+03  0.14843154877E+03  0.00000000000E+00 0. -1.
         23    2    1    2    0    0 -0.20490475162E+02 -0.75365227363E+01 -0.11082058895E+03  0.16295353130E+03  0.11745633946E+03 0.  0.
          5    1    3    3  502    0 -0.63992836720E+02 -0.26922427968E+02 -0.50334273993E+02  0.85854014569E+02  0.41800000000E+01 0. -1.
         -5    1    3    3    0  502  0.43502361557E+02  0.19385905232E+02 -0.60486314954E+02  0.77099516727E+02  0.41800000000E+01 0.  1.
        -11    1    1    2    0    0  0.71343414682E+01 -0.91624706170E+01 -0.23837129965E-01  0.11612504648E+02  0.00000000000E+00 0. -1.
         11    1    1    2    0    0  0.13356133694E+02  0.16698993353E+02  0.14236016925E+02  0.25688652440E+02  0.00000000000E+00 0.  1.
</event>
<event>
 8    1  0.5900800E-006  0.1839439E+03  0.7561462E-02  0.1164040E+00
         -1   -1    0    0    0  501 -0.00000000000E+00  0.00000000000E+00  0.26263260982E+03  0.26263260982E+03  0.00000000000E+00 0.  1.
          1   -1    0    0  501    0  0.00000000000E+00 -0.00000000000E+00 -0.16807654494E+03  0.16807654494E+03  0.00000000000E+00 0. -1.
         23    2    1    2    0    0  0.28884177104E+02  0.14883485135E+03  0.14199455135E+03  0.22851559964E+03  0.95240842097E+02 0.  0.
         23    2    1    2    0    0 -0.28884177104E+02 -0.14883485135E+03 -0.47438486464E+02  0.20219355512E+03  0.12508283285E+03 0.  0.
          5    1    4    4  502    0  0.46114806384E+01  0.20167473682E+02 -0.17185921907E+02  0.27218028220E+02  0.41800000000E+01 0. -1.
         -5    1    4    4    0  502 -0.33495657743E+02 -0.16900232503E+03 -0.30252564557E+02  0.17497552690E+03  0.41800000000E+01 0. -1.
        -11    1    3    3    0    0  0.44661593739E+02  0.28288222693E+02  0.68223423087E+02  0.86309425651E+02  0.00000000000E+00 0.  1.
         11    1    3    3    0    0 -0.15777416635E+02  0.12054662865E+03  0.73771128263E+02  0.14220617399E+03  0.00000000000E+00 0. -1.
</event>
<event>
 8    1  0.5900800E-006  0.2002180E+03  0.7561462E-02  0.1149555E+00
         -1   -1    0    0    0  501 -0.00000000000E+00  0.00000000000E+00  0.53897864298E+02  0.53897864298E+02  0.00000000000E+00 0.  1.
          1   -1    0    0  501    0  0.00000000000E+00 -0.00000000000E+00 -0.11181070398E+04  0.11181070398E+04  0.00000000000E+00 0. -1.
         23    2    1    2    0    0  0.15903403864E+03  0.77902893999E+02 -0.21069982604E+03  0.29138677707E+03  0.95661647588E+02 0.  0.
         23    2    1    2    0    0 -0.15903403864E+03 -0.77902893999E+02 -0.85350934943E+03  0.88061812700E+03  0.12509752073E+03 0.  0.
          5    1    4    4  502    0 -0.41045626297E+02 -0.75135639165E+02 -0.51536733714E+03  0.52244719571E+03  0.41800000000E+01 0.  1.
         -5    1    4    4    0  502 -0.11798841234E+03 -0.27672548341E+01 -0.33814201229E+03  0.35817093129E+03  0.41800000000E+01 0.  1.
        -11    1    3    3    0    0  0.72702945354E+02  0.82756089074E+02 -0.86534639539E+02  0.14008044968E+03  0.00000000000E+00 0.  1.
         11    1    3    3    0    0  0.86331093283E+02 -0.48531950748E+01 -0.12416518650E+03  0.15130632739E+03  0.00000000000E+00 0. -1.
</event>
<event>
 8    1  0.5900800E-006  0.1133329E+03  0.7561462E-02  0.1254519E+00
          1   -1    0    0  501    0  0.00000000000E+00  0.00000000000E+00  0.69258963005E+03  0.69258963005E+03  0.00000000000E+00 0. -1.
         -1   -1    0    0    0  501 -0.00000000000E+00 -0.00000000000E+00 -0.20483396049E+02  0.20483396049E+02  0.00000000000E+00 0.  1.
         23    2    1    2    0    0  0.31273237320E+02  0.27011033676E+02  0.20327582514E+03  0.22608619684E+03  0.89923834439E+02 0.  0.
         23    2    1    2    0    0 -0.31273237320E+02 -0.27011033676E+02  0.46883040886E+03  0.48698682927E+03  0.12508640330E+03 0.  0.
          5    1    4    4  502    0 -0.78939405316E+02 -0.10609531002E+02  0.32024224880E+03  0.33002509326E+03  0.41800000000E+01 0.  1.
         -5    1    4    4    0  502  0.47666167995E+02 -0.16401502674E+02  0.14858816006E+03  0.15696173601E+03  0.41800000000E+01 0.  1.
        -11    1    3    3    0    0  0.49981721895E+02 -0.13439989351E+02  0.13468812285E+03  0.14429031940E+03  0.00000000000E+00 0. -1.
         11    1    3    3    0    0 -0.18708484575E+02  0.40451023028E+02  0.68587702295E+02  0.81795877434E+02  0.00000000000E+00 0.  1.
</event>
<event>
 7    1  0.5900800E-006  0.1130834E+03  0.7561462E-02  0.1254964E+00
         -2   -1    0    0    0  501 -0.00000000000E+00  0.00000000000E+00  0.26593808517E+02  0.26593808517E+02  0.00000000000E+00 0.  1.
          2   -1    0    0  501    0  0.00000000000E+00 -0.00000000000E+00 -0.80199440681E+03  0.80199440681E+03  0.00000000000E+00 0. -1.
         23    2    1    2    0    0 -0.27581540197E+02 -0.81010788675E+02 -0.26395657444E+03  0.29148650127E+03  0.89262634912E+02 0.  0.
          5    1    1    2  502    0  0.40626492972E+02  0.27195079132E+02 -0.45599203761E+03  0.45862435066E+03  0.41800000000E+01 0. -1.
         -5    1    1    2    0  502 -0.13044952776E+02  0.53815709542E+02 -0.55451986246E+02  0.78477363393E+02  0.41800000000E+01 0.  1.
        -11    1    3    3    0    0 -0.58164765694E+02 -0.64350022862E+02 -0.21066484183E+03  0.22782392542E+03  0.00000000000E+00 0.  1.
         11    1    3    3    0    0  0.30583225498E+02 -0.16660765813E+02 -0.53291732612E+02  0.63662575852E+02  0.00000000000E+00 0. -1.
</event>
<event>
 7    1  0.5900800E-006  0.1508453E+03  0.7561462E-02  0.1199438E+00
         -1   -1    0    0    0  501 -0.00000000000E+00  0.00000000000E+00  0.29983703240E+03  0.29983703240E+03  0.00000000000E+00 0.  1.
          1   -1    0    0  501    0  0.00000000000E+00 -0.00000000000E+00 -0.96790976426E+02  0.96790976426E+02  0.00000000000E+00 0. -1.
         23    2    1    2    0    0 -0.27531396117E+02  0.68510291380E+02  0.12168496853E+03  0.16692895596E+03  0.87214717653E+02 0.  0.
          5    1    1    2  502    0  0.37609822153E+02 -0.13649671894E+03  0.32663277218E+02  0.14536235786E+03  0.41800000000E+01 0. -1.
         -5    1    1    2    0  502 -0.10078426036E+02  0.67986427559E+02  0.48697810224E+02  0.84336695004E+02  0.41800000000E+01 0.  1.
        -11    1    3    3    0    0 -0.29965157917E+02  0.85245654372E+01 -0.95805079003E-01  0.31154262686E+02  0.00000000000E+00 0. -1.
         11    1    3    3    0    0  0.24337618002E+01  0.59985725943E+02  0.12178077361E+03  0.13577469328E+03  0.00000000000E+00 0.  1.
</event>
<event>
 8    1  0.5900800E-006  0.1908891E+03  0.7561462E-02  0.1157662E+00
          1   -1    0    0  501    0  0.00000000000E+00  0.00000000000E+00  0.95179537859E+03  0.95179537859E+03  0.00000000000E+00 0. -1.
         -1   -1    0    0    0  501 -0.00000000000E+00 -0.00000000000E+00 -0.41219368393E+02  0.41219368393E+02  0.00000000000E+00 0.  1.
         23    2    1    2    0    0  0.15869630269E+03  0.76588467959E+00  0.30831995064E+03  0.35776302231E+03  0.88023207764E+02 0.  0.
         23    2    1    2    0    0 -0.15869630269E+03 -0.76588467959E+00  0.60225605956E+03  0.63525172467E+03  0.12508912564E+03 0.  0.
          5    1    4    4  502    0 -0.17920274350E+03  0.76166731224E+01  0.54144729785E+03  0.57039835706E+03  0.41800000000E+01 0. -1.
         -5    1    4    4    0  502  0.20506440807E+02 -0.83825578020E+01  0.60808761706E+02  0.64853367608E+02  0.41800000000E+01 0. -1.
        -11    1    3    3    0    0 -0.93773795295E+01 -0.67893256484E+01  0.34451113835E+02  0.36344317768E+02  0.00000000000E+00 0.  1.
         11    1    3    3    0    0  0.16807368222E+03  0.75552103280E+01  0.27386883681E+03  0.32141870455E+03  0.00000000000E+00 0. -1.
</event>
<event>
 7    1  0.5900800E-006  0.1116485E+03  0.7561462E-02  0.1257547E+00
          1   -1    0    0  501    0  0.00000000000E+00  0.00000000000E+00  0.60580444513E+03  0.60580444513E+03  0.00000000000E+00 0. -1.
         -1   -1    0    0    0  501 -0.00000000000E+00 -0.00000000000E+00 -0.46422458538E+02  0.46422458538E+02  0.00000000000E+00 0.  1.
         23    2    1    2    0    0  0.48326895791E+01 -0.97475876332E+02  0.10483672268E+03  0.16902875718E+03  0.89750102934E+02 0.  0.
          5    1    1    2  502    0 -0.10895744024E+02  0.54738983996E+02  0.42947440080E+03  0.43310599967E+03  0.41800000000E+01 0. -1.
         -5    1    1    2    0  502  0.60630544446E+01  0.42736892336E+02  0.25070863111E+02  0.50092146818E+02  0.41800000000E+01 0.  1.
        -11    1    3    3    0    0 -0.84536637338E+01  0.11447374393E+02  0.37923842522E+02  0.40505859361E+02  0.00000000000E+00 0. -1.
         11    1    3    3    0    0  0.13286353313E+02 -0.10892325072E+03  0.66912880158E+02  0.12852289782E+03  0.00000000000E+00 0.  1.
</event>
<event>
 8    1  0.5900800E-006  0.1461572E+03  0.7561462E-02  0.1205276E+00
          1   -1    0    0  501    0  0.00000000000E+00  0.00000000000E+00  0.54824377353E+03  0.54824377353E+03  0.00000000000E+00 0. -1.
         -1   -1    0    0    0  501 -0.00000000000E+00 -0.00000000000E+00 -0.97424183069E+02  0.97424183069E+02  0.00000000000E+00 0.  1.
         23    2    1    2    0    0  0.12778002629E+03 -0.28502566005E+02 -0.10793489618E+01  0.15884162833E+03  0.89940905643E+02 0.  0.
         23    2    1    2    0    0 -0.12778002629E+03  0.28502566005E+02  0.45189893943E+03  0.48682632827E+03  0.12508833302E+03 0.  0.
          5    1    4    4  502    0 -0.64804763720E+02  0.60501211323E+02  0.36034045978E+03  0.37111019028E+03  0.41800000000E+01 0. -1.
         -5    1    4    4    0  502 -0.62975262570E+02 -0.31998645317E+02  0.91558479645E+02  0.11571613800E+03  0.41800000000E+01 0. -1.
        -11    1    3    3    0    0  0.72538037119E+02 -0.27410564054E+02 -0.43745844849E+02  0.89032605220E+02  0.00000000000E+00 0.  1.
         11    1    3    3    0    0  0.55241989172E+02 -0.10920019519E+01  0.42666495887E+02  0.69809023107E+02  0.00000000000E+00 0. -1.
</event>
<event>
 7    1  0.5900800E-006  0.1154043E+03  0.7561462E-02  0.1250877E+00
          2   -1    0    0  501    0  0.00000000000E+00  0.00000000000E+00  0.71143437963E+03  0.71143437963E+03  0.00000000000E+00 0. -1.
         -2   -1    0    0    0  501 -0.00000000000E+00 -0.00000000000E+00 -0.64036711142E+02  0.64036711142E+02  0.00000000000E+00 0.  1.
         23    2    1    2    0    0 -0.19547039644E+02  0.11225906539E+02 -0.15433483282E+02  0.95263594113E+02  0.91262545552E+02 0.  0.
          5    1    1    2  502    0 -0.35024116807E+02  0.54130913539E+02  0.35294814143E+03  0.35881291434E+03  0.41800000000E+01 0. -1.
         -5    1    1    2    0  502  0.54571156451E+02 -0.65356820078E+02  0.30988301034E+03  0.32139458232E+03  0.41800000000E+01 0.  1.
        -11    1    3    3    0    0 -0.49208235995E+02 -0.85218700661E-01 -0.32742974308E+02  0.59106345839E+02  0.00000000000E+00 0. -1.
         11    1    3    3    0    0  0.29661196351E+02  0.11311125240E+02  0.17309491026E+02  0.36157248273E+02  0.00000000000E+00 0.  1.
</event>
<event>
 8    1  0.5900800E-006  0.9545980E+02  0.7561462E-02  0.1290144E+00
         -1   -1    0    0    0  501 -0.00000000000E+00  0.00000000000E+00  0.44305493271E+02  0.44305493271E+02  0.00000000000E+00 0.  1.
          1   -1    0    0  501    0  0.00000000000E+00 -0.00000000000E+00 -0.52044986006E+03  0.52044986006E+03  0.00000000000E+00 0. -1.
         23    2    1    2    0    0  0.24404110185E+02 -0.33603071206E+02 -0.18119583420E+02  0.88143000884E+02  0.75605173852E+02 0.  0.
         23    2    1    2    0    0 -0.24404110185E+02  0.33603071206E+02 -0.45802478337E+03  0.47661235245E+03  0.12509158779E+03 0.  0.
          5    1    4    4  502    0 -0.70451858992E+02  0.89956570559E+01 -0.17728484146E+03  0.19102820130E+03  0.41800000000E+01 0.  1.
         -5    1    4    4    0  502  0.46047748808E+02  0.24607414150E+02 -0.28073994191E+03  0.28558415114E+03  0.41800000000E+01 0.  1.
        -11    1    3    3    0    0  0.99387637460E+01 -0.46782461000E+02 -0.37368152448E+02  0.60693957684E+02  0.00000000000E+00 0.  1.
         11    1    3    3    0    0  0.14465346439E+02  0.13179389794E+02  0.19248569028E+02  0.27449043200E+02  0.00000000000E+00 0. -1.
</event>
<event>
 8    1  0.5900800E-006  0.1614024E+03  0.7561462E-02  0.1187123E+00
         -2   -1    0    0    0  501 -0.00000000000E+00  0.00000000000E+00  0.52013969443E+02  0.52013969443E+02  0.00000000000E+00 0.  1.
          2   -1    0    0  501    0  0.00000000000E+00 -0.00000000000E+00 -0.80091477867E+03  0.80091477867E+03  0.00000000000E+00 0. -1.
         23    2    1    2    0    0 -0.70788597390E+02  0.11648908503E+03 -0.13549272892E+03  0.21222778121E+03  0.90008994410E+02 0.  0.
         23    2    1    2    0    0  0.70788597390E+02 -0.11648908503E+03 -0.61340808031E+03  0.64070096690E+03  0.12509006176E+03 0.  0.
          5    1    4    4  502    0  0.72302068500E+02 -0.12875624317E+03 -0.60940218381E+03  0.62705203396E+03  0.41800000000E+01 0. -1.
         -5    1    4    4    0  502 -0.15134711101E+01  0.12267158141E+02 -0.40058964987E+01  0.13648932941E+02  0.41800000000E+01 0. -1.
        -11    1    3    3    0    0 -0.91259118894E+02  0.86640583262E+02 -0.11586780993E+03  0.17105603417E+03  0.00000000000E+00 0. -1.
         11    1    3    3    0    0  0.20470521504E+02  0.29848501769E+02 -0.19624918988E+02  0.41171747034E+02  0.00000000000E+00 0.  1.
</event>
<event>
 7    1  0.5900800E-006  0.8707148E+02  0.7561462E-02  0.1310103E+00
         -2   -1    0    0    0  501 -0.00000000000E+00  0.00000000000E+00  0.54476195602E+03  0.54476195602E+03  0.00000000000E+00 0.  1.
          2   -1    0    0  501    0  0.00000000000E+00 -0.00000000000E+00 -0.18593407270E+03  0.18593407270E+03  0.00000000000E+00 0. -1.
         23    2    1    2    0    0  0.41965364833E+01 -0.61580448397E+02  0.24146031106E+03  0.26633195931E+03  0.93914153297E+02 0.  0.
          5    1    1    2  502    0 -0.22504774122E+02  0.32817760480E+02 -0.17015538597E+03  0.17479644744E+03  0.41800000000E+01 0. -1.
         -5    1    1    2    0  502  0.18308237639E+02  0.28762687917E+02  0.28752295823E+03  0.28956762197E+03  0.41800000000E+01 0.  1.
        -11    1    3    3    0    0  0.47330733279E+01 -0.80607366383E+02  0.12838866479E+03  0.15166937313E+03  0.00000000000E+00 0.  1.
         11    1    3    3    0    0 -0.53653684461E+00  0.19026917986E+02  0.11307164627E+03  0.11466258618E+03  0.00000000000E+00 0. -1.
</event>
<event>
 8    1  0.5900800E-006  0.2104414E+03  0.7561462E-02  0.1141217E+00
         -1   -1    0    0    0  501 -0.00000000000E+00  0.00000000000E+00  0.10546392957E+03  0.10546392957E+03  0.00000000000E+00 0.  1.
          1   -1    0    0  501    0  0.00000000000E+00 -0.00000000000E+00 -0.47921605754E+03  0.47921605754E+03  0.00000000000E+00 0. -1.
         23    2    1    2    0    0 -0.18820578867E+03 -0.49178611577E+02 -0.14569310102E+03  0.25987634437E+03  0.92028690930E+02 0.  0.
         23    2    1    2    0    0  0.18820578867E+03  0.49178611577E+02 -0.22805902695E+03  0.32480364274E+03  0.12508609769E+03 0.  0.
          5    1    4    4  502    0  0.42122146160E+02  0.62897403407E+02 -0.12227577198E+03  0.14387214938E+03  0.41800000000E+01 0.  1.
         -5    1    4    4    0  502  0.14608364251E+03 -0.13718791831E+02 -0.10578325497E+03  0.18093149336E+03  0.41800000000E+01 0.  1.
        -11    1    3    3    0    0 -0.11364919129E+03 -0.48905995637E+02 -0.39023440417E+02  0.12973343436E+03  0.00000000000E+00 0. -1.
         11    1    3    3    0    0 -0.74556597379E+02 -0.27261594030E+00 -0.10666966060E+03  0.13014291001E+03  0.00000000000E+00 0.  1.
</event>
<event>
 7    1  0.5900800E-006  0.1207940E+03  0.7561462E-02  0.1241793E+00
         -2   -1    0    0    0  501 -0.00000000000E+00  0.00000000000E+00  0.19595050139E+02  0.19595050139E+02  0.00000000000E+00 0.  1.
          2   -1    0    0  501    0  0.00000000000E+00 -0.00000000000E+00 -0.86471849176E+03  0.86471849176E+03  0.00000000000E+00 0. -1.
         23    2    1    2    0    0 -0.57054544746E+02  0.14700317118E+02 -0.26470799536E+03  0.28579829218E+03  0.90216520669E+02 0.  0.
          5    1    1    2  502    0  0.44195208262E+02 -0.66769343572E+02 -0.45557896715E+03  0.46258083551E+03  0.41800000000E+01 0. -1.
         -5    1    1    2    0  502  0.12859336484E+02  0.52069026454E+02 -0.12483647911E+03  0.13593441421E+03  0.41800000000E+01 0.  1.
        -11    1    3    3    0    0 -0.75943580119E+02 -0.99108428833E+01 -0.18166138251E+03  0.19714591059E+03  0.00000000000E+00 0.  1.
         11    1    3    3    0    0  0.18889035373E+02  0.24611160002E+02 -0.83046612855E+02  0.88652381584E+02  0.00000000000E+00 0. -1.
</event>
<event>
 8    1  0.5900800E-006  0.2175274E+03  0.7561462E-02  0.1135740E+00
          1   -1    0    0  501    0  0.00000000000E+00  0.00000000000E+00  0.34620601954E+03  0.34620601954E+03  0.00000000000E+00 0. -1.
         -1   -1    0    0    0  501 -0.00000000000E+00 -0.00000000000E+00 -0.16699817526E+03  0.16699817526E+03  0.00000000000E+00 0.  1.
         23    2    1    2    0    0 -0.12465614038E+02 -0.19458239558E+03 -0.59320671575E+01  0.21665539846E+03  0.94269146903E+02 0.  0.
         23    2    1    2    0    0  0.12465614038E+02  0.19458239558E+03  0.18513991144E+03  0.29654879634E+03  0.12508677629E+03 0.  0.
          5    1    4    4  502    0 -0.17307182146E+01 -0.17922815207E+02  0.17789546974E+02  0.25654689085E+02  0.41800000000E+01 0. -1.
         -5    1    4    4    0  502  0.14196332253E+02  0.21250521078E+03  0.16735036446E+03  0.27089410725E+03  0.41800000000E+01 0. -1.
        -11    1    3    3    0    0 -0.25605567895E+02 -0.34679643834E+02 -0.32554890446E+02  0.54019845387E+02  0.00000000000E+00 0.  1.
         11    1    3    3    0    0  0.13139953857E+02 -0.15990275174E+03  0.26622823289E+02  0.16263555307E+03  0.00000000000E+00 0. -1.
</event>
<event>
 8    1  0.5900800E-006  0.9791796E+02  0.7561462E-02  0.1284736E+00
         -4   -1    0    0    0  501 -0.00000000000E+00  0.00000000000E+00  0.41644227194E+02  0.41644227194E+02  0.00000000000E+00 0.  1.
          4   -1    0    0  501    0  0.00000000000E+00 -0.00000000000E+00 -0.35709759605E+03  0.35709759605E+03  0.00000000000E+00 0. -1.
         23    2    1    2    0    0 -0.18382032114E+02 -0.23216230973E+02 -0.68568508254E+02  0.12040241518E+03  0.94436268311E+02 0.  0.
         23    2    1    2    0    0  0.18382032114E+02  0.23216230973E+02 -0.24688486060E+03  0.27833940806E+03  0.12507517420E+03 0.  0.
          5    1    4    4  502    0  0.38204647344E+02  0.51513965123E+02 -0.23155799788E+03  0.24031201065E+03  0.41800000000E+01 0.  1.
         -5    1    4    4    0  502 -0.19822615230E+02 -0.28297734151E+02 -0.15326862717E+02  0.38027397405E+02  0.41800000000E+01 0.  1.
        -11    1    3    3    0    0  0.15964389899E+01 -0.57264212750E+02 -0.52752639551E+02  0.77875411131E+02  0.00000000000E+00 0. -1.
         11    1    3    3    0    0 -0.19978471104E+02  0.34047981777E+02 -0.15815868703E+02  0.42527004051E+02  0.00000000000E+00 0.  1.
</event>
<event>
 8    1  0.5900800E-006  0.1294880E+03  0.7561462E-02  0.1228217E+00
         -2   -1    0    0    0  501 -0.00000000000E+00  0.00000000000E+00  0.12616115774E+02  0.12616115774E+02  0.00000000000E+00 0.  1.
          2   -1    0    0  501    0  0.00000000000E+00 -0.00000000000E+00 -0.24216322167E+04  0.24216322167E+04  0.00000000000E+00 0. -1.
         23    2    1    2    0    0 -0.10320604918E+03  0.27171914691E+02 -0.52005777568E+03  0.53814688853E+03  0.88046476679E+02 0.  0.
         23    2    1    2    0    0  0.10320604918E+03 -0.27171914691E+02 -0.18889583253E+04  0.18961014440E+04  0.12508928676E+03 0.  0.
          5    1    4    4  502    0  0.11114555167E+03 -0.33134444281E+02 -0.18744060651E+04  0.18779954191E+04  0.41800000000E+01 0.  1.
         -5    1    4    4    0  502 -0.79395024809E+01  0.59625295893E+01 -0.14552260183E+02  0.18106024831E+02  0.41800000000E+01 0.  1.
        -11    1    3    3    0    0 -0.39095135582E+02 -0.27575899577E+02 -0.27143946896E+03  0.27562337559E+03  0.00000000000E+00 0.  1.
         11    1    3    3    0    0 -0.64110913603E+02  0.54747814268E+02 -0.24861830672E+03  0.26252351294E+03  0.00000000000E+00 0. -1.
</event>
<event>
 7    1  0.5900800E-006  0.1140765E+03  0.7561462E-02  0.1253202E+00
          1   -1    0    0  501    0  0.00000000000E+00  0.00000000000E+00  0.35097297141E+03  0.35097297141E+03  0.00000000000E+00 0. -1.
         -1   -1    0    0    0  501 -0.00000000000E+00 -0.00000000000E+00 -0.51173052514E+02  0.51173052514E+02  0.00000000000E+00 0.  1.
         23    2    1    2    0    0  0.88201104891E+01 -0.22224139692E+02  0.31785487692E+02  0.98529298598E+02  0.90144321620E+02 0.  0.
          5    1    1    2  502    0 -0.46042446434E+02  0.68733651412E+02  0.16148159485E+03  0.18148829049E+03  0.41800000000E+01 0. -1.
         -5    1    1    2    0  502  0.37222335945E+02 -0.46509511720E+02  0.10653283636E+03  0.12212843484E+03  0.41800000000E+01 0.  1.
        -11    1    3    3    0    0 -0.32204914737E+02 -0.29805945533E+02  0.35779095689E+02  0.56618853845E+02  0.00000000000E+00 0. -1.
         11    1    3    3    0    0  0.41025025226E+02  0.75818058414E+01 -0.39936079978E+01  0.41910444753E+02  0.00000000000E+00 0.  1.
</event>
<event>
 8    1  0.5900800E-006  0.1314969E+03  0.7561462E-02  0.1225251E+00
          3   -1    0    0  501    0  0.00000000000E+00  0.00000000000E+00  0.13589802087E+03  0.13589802087E+03  0.00000000000E+00 0. -1.
         -3   -1    0    0    0  501 -0.00000000000E+00 -0.00000000000E+00 -0.14619210700E+03  0.14619210700E+03  0.00000000000E+00 0.  1.
         23    2    1    2    0    0  0.65964502809E+02 -0.60415388735E+02 -0.11403849303E+02  0.12830284480E+03  0.91270134102E+02 0.  0.
         23    2    1    2    0    0 -0.65964502809E+02  0.60415388735E+02  0.11097631775E+01  0.15378728307E+03  0.12509181441E+03 0.  0.
          5    1    4    4  502    0 -0.36848058324E+02  0.96109946835E+02 -0.16433762219E+02  0.10431894470E+03  0.41800000000E+01 0. -1.
         -5    1    4    4    0  502 -0.29116444484E+02 -0.35694558100E+02  0.17543525396E+02  0.49468338366E+02  0.41800000000E+01 0. -1.
        -11    1    3    3    0    0  0.79854091352E+00 -0.47231474651E+02 -0.33867234758E+02  0.58124344774E+02  0.00000000000E+00 0.  1.
         11    1    3    3    0    0  0.65165961895E+02 -0.13183914084E+02  0.22463385455E+02  0.70178500030E+02  0.00000000000E+00 0. -1.
</event>
<event>
 8    1  0.5900800E-006  0.1239726E+03  0.7561462E-02  0.1236684E+00
         -1   -1    0    0    0  501 -0.00000000000E+00  0.00000000000E+00  0.26923180452E+02  0.26923180452E+02  0.00000000000E+00 0.  1.
          1   -1    0    0  501    0  0.00000000000E+00 -0.00000000000E+00 -0.86133425200E+03  0.86133425200E+03  0.00000000000E+00 0. -1.
         23    2    1    2    0    0 -0.33444375795E+02 -0.81233801077E+02 -0.38609870311E+03  0.41460214997E+03  0.12290352928E+03 0.  0.
         23    2    1    2    0    0  0.33444375795E+02  0.81233801077E+02 -0.44831236844E+03  0.47365528248E+03  0.12509152735E+03 0.  0.
          5    1    4    4  502    0  0.32796185088E+02  0.85016645809E+02 -0.15187431783E+03  0.17716292117E+03  0.41800000000E+01 0. -1.
         -5    1    4    4    0  502  0.64819070616E+00 -0.37828447326E+01 -0.29643805061E+03  0.29649236131E+03  0.41800000000E+01 0. -1.
        -11    1    3    3    0    0 -0.49981783746E+02 -0.10833170330E+03 -0.30769410920E+03  0.33001454738E+03  0.00000000000E+00 0.  1.
         11    1    3    3    0    0  0.16537407952E+02  0.27097902220E+02 -0.78404593902E+02  0.84587602587E+02  0.00000000000E+00 0. -1.
</event>
<event>
 6    1  0.5900800E-006  0.1285539E+03  0.7561462E-02  0.1229617E+00
         -2   -1    0    0    0  501 -0.00000000000E+00  0.00000000000E+00  0.73206865961E+02  0.73206865961E+02  0.00000000000E+00 0.  1.
          2   -1    0    0  501    0  0.00000000000E+00 -0.00000000000E+00 -0.32695425841E+03  0.32695425841E+03  0.00000000000E+00 0. -1.
          5    1    1    2  502    0  0.78710744556E+02 -0.44582709338E+02 -0.54507056167E+02  0.10569527356E+03  0.41800000000E+01 0. -1.
         -5    1    1    2    0  502 -0.15180042052E+02  0.41561467792E+02 -0.11297896310E+03  0.12140637456E+03  0.41800000000E+01 0.  1.
        -11    1    1    2    0    0 -0.32149936594E+02  0.53648064063E+02  0.64368729294E+01  0.62874211993E+02  0.00000000000E+00 0.  1.
         11    1    1    2    0    0 -0.31380765910E+02 -0.50626822517E+02 -0.92698246113E+02  0.11018526426E+03  0.00000000000E+00 0. -1.
</event>
<event>
 8    1  0.5900800E-006  0.1060105E+03  0.7561462E-02  0.1268141E+00
          1   -1    0    0  501    0  0.00000000000E+00  0.00000000000E+00  0.48123297695E+03  0.48123297695E+03  0.00000000000E+00 0. -1.
         -1   -1    0    0    0  501 -0.00000000000E+00 -0.00000000000E+00 -0.39207668001E+02  0.39207668001E+02  0.00000000000E+00 0.  1.
         23    2    1    2    0    0 -0.43195813835E+02  0.18746121222E+01  0.66438550215E+02  0.12221401827E+03  0.93020389177E+02 0.  0.
         23    2    1    2    0    0  0.43195813835E+02 -0.18746121222E+01  0.37558675874E+03  0.39822662669E+03  0.12509852261E+03 0.  0.
          5    1    4    4  502    0  0.39414483535E+02  0.46491432508E+02  0.31311519202E+03  0.31901967131E+03  0.41800000000E+01 0. -1.
         -5    1    4    4    0  502  0.37813302994E+01 -0.48366044630E+02  0.62471566718E+02  0.79206955378E+02  0.41800000000E+01 0. -1.
        -11    1    3    3    0    0 -0.71049841352E+02 -0.10378746279E+02  0.41999524233E+02  0.83185084999E+02  0.00000000000E+00 0.  1.
         11    1    3    3    0    0  0.27854027517E+02  0.12253358402E+02  0.24439025983E+02  0.39028933268E+02  0.00000000000E+00 0. -1.
</event>
<event>
 8    1  0.5900800E-006  0.1423971E+03  0.7561462E-02  0.1210139E+00
          1   -1    0    0  501    0  0.00000000000E+00  0.00000000000E+00  0.26426588436E+02  0.26426588436E+02  0.00000000000E+00 0. -1.
         -1   -1    0    0    0  501 -0.00000000000E+00 -0.00000000000E+00 -0.96105596323E+03  0.96105596323E+03  0.00000000000E+00 0.  1.
         23    2    1    2    0    0  0.11024103862E+03 -0.20722780178E+02 -0.52396532045E+03  0.54377621886E+03  0.92576449270E+02 0.  0.
         23    2    1    2    0    0 -0.11024103862E+03  0.20722780178E+02 -0.41066405435E+03  0.44370633281E+03  0.12509126277E+03 0.  0.
          5    1    4    4  502    0  0.29709771659E+01 -0.27093883024E+02 -0.19777268800E+02  0.33934023691E+02  0.41800000000E+01 0.  1.
         -5    1    4    4    0  502 -0.11321201578E+03  0.47816663202E+02 -0.39088678555E+03  0.40977230911E+03  0.41800000000E+01 0.  1.
        -11    1    3    3    0    0  0.27775782139E+02 -0.40819668171E+02 -0.10153613936E+03  0.11290406095E+03  0.00000000000E+00 0. -1.
         11    1    3    3    0    0  0.82465256478E+02  0.20096887993E+02 -0.42242918108E+03  0.43087215791E+03  0.00000000000E+00 0.  1.
</event>
<event>
 8    1  0.5900800E-006  0.1158133E+03  0.7561462E-02  0.1250168E+00
          1   -1    0    0  501    0  0.00000000000E+00  0.00000000000E+00  0.86971753862E+02  0.86971753862E+02  0.00000000000E+00 0. -1.
         -1   -1    0    0    0  501 -0.00000000000E+00 -0.00000000000E+00 -0.17039094443E+03  0.17039094443E+03  0.00000000000E+00 0.  1.
         23    2    1    2    0    0 -0.20207329153E+02 -0.50533001019E+02 -0.43891605863E+02  0.11533151975E+03  0.91722222168E+02 0.  0.
         23    2    1    2    0    0  0.20207329153E+02  0.50533001019E+02 -0.39527584708E+02  0.14203117855E+03  0.12509398620E+03 0.  0.
          5    1    4    4  502    0 -0.33985953011E+02  0.61418018645E+02  0.56143741657E+01  0.70542268277E+02  0.41800000000E+01 0. -1.
         -5    1    4    4    0  502  0.54193282164E+02 -0.10885017626E+02 -0.45141958874E+02  0.71488910269E+02  0.41800000000E+01 0. -1.
        -11    1    3    3    0    0 -0.22808319390E+02  0.22943804268E+02 -0.19951652113E+02  0.38009288466E+02  0.00000000000E+00 0.  1.
         11    1    3    3    0    0  0.26009902367E+01 -0.73476805287E+02 -0.23939953751E+02  0.77322231285E+02  0.00000000000E+00 0. -1.
</event>
<event>
 8    1  0.5900800E-006  0.8793045E+02  0.7561462E-02  0.1307942E+00
          2   -1    0    0  501    0  0.00000000000E+00  0.00000000000E+00  0.12976261173E+03  0.12976261173E+03  0.00000000000E+00 0. -1.
         -2   -1    0    0    0  501 -0.00000000000E+00 -0.00000000000E+00 -0.12121870719E+03  0.12121870719E+03  0.00000000000E+00 0.  1.
         23    2    1    2    0    0  0.39492005536E+02  0.95805681689E+01 -0.45242893802E+02  0.10884599998E+03  0.90272512336E+02 0.  0.
         23    2    1    2    0    0 -0.39492005536E+02 -0.95805681689E+01  0.53786798340E+02  0.14213531894E+03  0.12513202399E+03 0.  0.
          5    1    4    4  502    0 -0.18179974495E+02  0.30175001379E+02 -0.30279100764E+02  0.46640524482E+02  0.41800000000E+01 0.  1.
         -5    1    4    4    0  502 -0.21312031041E+02 -0.39755569548E+02  0.84065899104E+02  0.95494794462E+02  0.41800000000E+01 0.  1.
        -11    1    3    3    0    0  0.26223691395E+02 -0.37730151444E+02 -0.67794002913E+01  0.46445738089E+02  0.00000000000E+00 0. -1.
         11    1    3    3    0    0  0.13268314141E+02  0.47310719613E+02 -0.38463493511E+02  0.62400261886E+02  0.00000000000E+00 0.  1.
</event>
<event>
 8    1  0.5900800E-006  0.8372972E+02  0.7561462E-02  0.1318788E+00
          2   -1    0    0  501    0  0.00000000000E+00  0.00000000000E+00  0.39520756745E+03  0.39520756745E+03  0.00000000000E+00 0. -1.
         -2   -1    0    0    0  501 -0.00000000000E+00 -0.00000000000E+00 -0.30644736845E+02  0.30644736845E+02  0.00000000000E+00 0.  1.
         23    2    1    2    0    0 -0.53301313967E+00 -0.67027555125E+01  0.11155097441E+03  0.14352792614E+03  0.90063503465E+02 0.  0.
         23    2    1    2    0    0  0.53301313967E+00  0.67027555125E+01  0.25301185619E+03  0.28232437815E+03  0.12508734584E+03 0.  0.
          5    1    4    4  502    0  0.44831915692E+02 -0.30412629417E+02  0.18581062836E+03  0.19359207294E+03  0.41800000000E+01 0. -1.
         -5    1    4    4    0  502 -0.44298902552E+02  0.37115384929E+02  0.67201227831E+02  0.88732305209E+02  0.41800000000E+01 0. -1.
        -11    1    3    3    0    0 -0.10459860132E+02  0.22243453011E+02  0.11018823412E+03  0.11289653146E+03  0.00000000000E+00 0. -1.
         11    1    3    3    0    0  0.99268469920E+01 -0.28946208524E+02  0.13627402828E+01  0.30631394682E+02  0.00000000000E+00 0.  1.
</event>
<event>
 8    1  0.5900800E-006  0.7299354E+02  0.7561462E-02  0.1350199E+00
          1   -1    0    0  501    0  0.00000000000E+00  0.00000000000E+00  0.94760213240E+02  0.94760213240E+02  0.00000000000E+00 0. -1.
         -1   -1    0    0    0  501 -0.00000000000E+00 -0.00000000000E+00 -0.12353770020E+03  0.12353770020E+03  0.00000000000E+00 0.  1.
         23    2    1    2    0    0  0.29500379296E+02 -0.11218204375E+02 -0.18601226055E+02  0.88884403944E+02  0.80983400556E+02 0.  0.
         23    2    1    2    0    0 -0.29500379296E+02  0.11218204375E+02 -0.10176260908E+02  0.12941350950E+03  0.12509268431E+03 0.  0.
          5    1    4    4  502    0 -0.57765792039E+02 -0.15190982245E+01  0.39915526369E+02  0.70355639679E+02  0.41800000000E+01 0. -1.
         -5    1    4    4    0  502  0.28265412743E+02  0.12737302599E+02 -0.50091787277E+02  0.59057869820E+02  0.41800000000E+01 0. -1.
        -11    1    3    3    0    0 -0.55196974233E+01 -0.19929493718E+02  0.24897123894E+02  0.32365391357E+02  0.00000000000E+00 0. -1.
         11    1    3    3    0    0  0.35020076720E+02  0.87112893432E+01 -0.43498349949E+02  0.56519012587E+02  0.00000000000E+00 0.  1.
</event>
<event>
 8    1  0.5900800E-006  0.7640455E+02  0.7561462E-02  0.1339576E+00
         -2   -1    0    0    0  501 -0.00000000000E+00  0.00000000000E+00  0.88598332359E+02  0.88598332359E+02  0.00000000000E+00 0.  1.
          2   -1    0    0  501    0  0.00000000000E+00 -0.00000000000E+00 -0.14367114954E+03  0.14367114954E+03  0.00000000000E+00 0. -1.
         23    2    1    2    0    0 -0.94295297544E+01 -0.18981464014E+02  0.30211332380E+01  0.92735385789E+02  0.90230330399E+02 0.  0.
         23    2    1    2    0    0  0.94295297544E+01  0.18981464014E+02 -0.58093950415E+02  0.13953409611E+03  0.12508255232E+03 0.  0.
          5    1    4    4  502    0  0.34611929513E+02  0.59076808280E+02 -0.61161498896E+02  0.91903516191E+02  0.41800000000E+01 0. -1.
         -5    1    4    4    0  502 -0.25182399758E+02 -0.40095344266E+02  0.30675484803E+01  0.47630579916E+02  0.41800000000E+01 0. -1.
        -11    1    3    3    0    0 -0.17218478348E+02 -0.11908553124E+01  0.44067198684E+02  0.47326653514E+02  0.00000000000E+00 0.  1.
         11    1    3    3    0    0  0.77889485938E+01 -0.17790608702E+02 -0.41046065446E+02  0.45408732275E+02  0.00000000000E+00 0. -1.
</event>
<event>
 8    1  0.5900800E-006  0.1735917E+03  0.7561462E-02  0.1174153E+00
         -2   -1    0    0    0  501 -0.00000000000E+00  0.00000000000E+00  0.53734287192E+02  0.53734287192E+02  0.00000000000E+00 0.  1.
          2   -1    0    0  501    0  0.00000000000E+00 -0.00000000000E+00 -0.70664708661E+03  0.70664708661E+03  0.00000000000E+00 0. -1.
         23    2    1    2    0    0  0.16018628987E+02  0.15970303690E+03 -0.28405999583E+03  0.34127569351E+03  0.10008676877E+03 0.  0.
         23    2    1    2    0    0 -0.16018628987E+02 -0.15970303690E+03 -0.36885280359E+03  0.41910568029E+03  0.11762450452E+03 0.  0.
          5    1    4    4  502    0  0.11978873181E+02 -0.60498434446E+02 -0.26726309488E+03  0.27431840670E+03  0.41800000000E+01 0. -1.
         -5    1    4    4    0  502 -0.27997502168E+02 -0.99204602457E+02 -0.10158970872E+03  0.14478727359E+03  0.41800000000E+01 0.  1.
        -11    1    3    3    0    0 -0.19118618045E+02  0.14120919818E+03 -0.25484623508E+03  0.29197973002E+03  0.00000000000E+00 0. -1.
         11    1    3    3    0    0  0.35137247031E+02  0.18493838719E+02 -0.29213760741E+02  0.49295963487E+02  0.00000000000E+00 0.  1.
</event>
<event>
 8    1  0.5900800E-006  0.7746555E+02  0.7561462E-02  0.1336402E+00
          2   -1    0    0  501    0  0.00000000000E+00  0.00000000000E+00  0.18133758799E+04  0.18133758799E+04  0.00000000000E+00 0. -1.
         -2   -1    0    0    0  501 -0.00000000000E+00 -0.00000000000E+00 -0.15788893952E+02  0.15788893952E+02  0.00000000000E+00 0.  1.
         23    2    1    2    0    0  0.29410246701E+02 -0.34859932950E+02  0.18133055471E+03  0.20743606664E+03  0.89826355467E+02 0.  0.
         23    2    1    2    0    0 -0.29410246701E+02  0.34859932950E+02  0.16162564313E+04  0.16217287072E+04  0.12505587044E+03 0.  0.
          5    1    4    4  502    0  0.27088885927E+02 -0.13650772577E+02  0.12827277331E+03  0.13187694304E+03  0.41800000000E+01 0. -1.
         -5    1    4    4    0  502 -0.56499132629E+02  0.48510705527E+02  0.14879836580E+04  0.14898517642E+04  0.41800000000E+01 0. -1.
        -11    1    3    3    0    0 -0.12076805762E+01 -0.10580831925E+02 -0.84997533687E+01  0.13625648753E+02  0.00000000000E+00 0.  1.
         11    1    3    3    0    0  0.30617927277E+02 -0.24279101024E+02  0.18983030808E+03  0.19381041789E+03  0.00000000000E+00 0. -1.
</event>
<event>
 8    1  0.5900800E-006  0.9585656E+02  0.7561462E-02  0.1289258E+00
         -1   -1    0    0    0  501 -0.00000000000E+00  0.00000000000E+00  0.39412452136E+02  0.39412452136E+02  0.00000000000E+00 0.  1.
          1   -1    0    0  501    0  0.00000000000E+00 -0.00000000000E+00 -0.27938812265E+04  0.27938812265E+04  0.00000000000E+00 0. -1.
         23    2    1    2    0    0  0.17146194144E+02 -0.31656493962E+02 -0.22613215546E+02  0.98941187365E+02  0.89341342369E+02 0.  0.
         23    2    1    2    0    0 -0.17146194144E+02  0.31656493962E+02 -0.27318555588E+04  0.27343524913E+04  0.11114237130E+03 0.  0.
          5    1    4    4  502    0  0.40874430631E+02  0.29569554077E+02 -0.17793994350E+04  0.17801193497E+04  0.41800000000E+01 0. -1.
         -5    1    4    4    0  502 -0.58020624776E+02  0.20869398846E+01 -0.95245612381E+03  0.95423314154E+03  0.41800000000E+01 0.  1.
        -11    1    3    3    0    0  0.44496846707E+02 -0.33155971053E+02  0.99636910895E+01  0.56378745317E+02  0.00000000000E+00 0.  1.
         11    1    3    3    0    0 -0.27350652563E+02  0.14994770910E+01 -0.32576906636E+02  0.42562442049E+02  0.00000000000E+00 0. -1.
</event>
<event>
 8    1  0.5900800E-006  0.1790741E+03  0.7561462E-02  0.1168702E+00
         -1   -1    0    0    0  501 -0.00000000000E+00  0.00000000000E+00  0.44516873140E+03  0.44516873140E+03  0.00000000000E+00 0.  1.
          1   -1    0    0  501    0  0.00000000000E+00 -0.00000000000E+00 -0.80495834655E+02  0.80495834655E+02  0.00000000000E+00 0. -1.
         23    2    1    2    0    0  0.10118864844E+03 -0.10553350441E+03  0.24625245665E+03  0.29972561323E+03  0.88423456694E+02 0.  0.
         23    2    1    2    0    0 -0.10118864844E+03  0.10553350441E+03  0.11842044009E+03  0.22593895282E+03  0.12509415113E+03 0.  0.
          5    1    4    4  502    0 -0.10369481101E+03  0.25181624371E+02  0.92750570784E+02  0.14144563909E+03  0.41800000000E+01 0.  1.
         -5    1    4    4    0  502  0.25061625684E+01  0.80351880035E+02  0.25669869309E+02  0.84493313738E+02  0.41800000000E+01 0.  1.
        -11    1    3    3    0    0  0.81972432745E+02 -0.21624350272E+02  0.12075290349E+03  0.14754103144E+03  0.00000000000E+00 0. -1.
         11    1    3    3    0    0  0.19216215694E+02 -0.83909154135E+02  0.12549955316E+03  0.15218458180E+03  0.00000000000E+00 0.  1.
</event>
<event>
 8    1  0.5900800E-006  0.8467668E+02  0.7561462E-02  0.1316280E+00
          2   -1    0    0  501    0  0.00000000000E+00  0.00000000000E+00  0.96731378211E+02  0.96731378211E+02  0.00000000000E+00 0.  1.
         -2   -1    0    0    0  501 -0.00000000000E+00 -0.00000000000E+00 -0.12485378747E+03  0.12485378747E+03  0.00000000000E+00 0. -1.
         23    2    1    2    0    0 -0.68842042851E+01 -0.15281689799E+02 -0.19584389963E+02  0.95094697660E+02  0.91534315320E+02 0.  0.
         23    2    1    2    0    0  0.68842042851E+01  0.15281689799E+02 -0.85380192967E+01  0.12649046802E+03  0.12508404541E+03 0.  0.
          5    1    4    4  502    0  0.52903196530E+02  0.39535412530E+02 -0.26520421250E+02  0.71292371193E+02  0.41800000000E+01 0.  1.
         -5    1    4    4    0  502 -0.46018992245E+02 -0.24253722731E+02  0.17982401954E+02  0.55198096829E+02  0.41800000000E+01 0.  1.
        -11    1    3    3    0    0  0.20133665501E+02 -0.38360100457E+00 -0.48683485480E+02  0.52683900716E+02  0.00000000000E+00 0. -1.
         11    1    3    3    0    0 -0.27017869786E+02 -0.14898088794E+02  0.29099095517E+02  0.42410796944E+02  0.00000000000E+00 0.  1.
</event>
<event>
 8    1  0.5900800E-006  0.2182692E+03  0.7561462E-02  0.1135180E+00
         -1   -1    0    0    0  501 -0.00000000000E+00  0.00000000000E+00  0.22135228839E+03  0.22135228839E+03  0.00000000000E+00 0.  1.
          1   -1    0    0  501    0  0.00000000000E+00 -0.00000000000E+00 -0.57901720276E+03  0.57901720276E+03  0.00000000000E+00 0. -1.
         23    2    1    2    0    0  0.14378574353E+03 -0.15494764880E+03  0.12170317057E+03  0.26173804250E+03  0.94931697827E+02 0.  0.
         23    2    1    2    0    0 -0.14378574353E+03  0.15494764880E+03 -0.47936808494E+03  0.53863144865E+03  0.12508781995E+03 0.  0.
          5    1    4    4  502    0 -0.11538772718E+03  0.80219274421E+02 -0.40742846045E+03  0.43100450387E+03  0.41800000000E+01 0.  1.
         -5    1    4    4    0  502 -0.28398016354E+02  0.74728374377E+02 -0.71939624493E+02  0.10762694478E+03  0.41800000000E+01 0.  1.
        -11    1    3    3    0    0  0.12952021835E+03 -0.11404856941E+03  0.53020472087E+02  0.18053734685E+03  0.00000000000E+00 0. -1.
         11    1    3    3    0    0  0.14265525183E+02 -0.40899079389E+02  0.68682698481E+02  0.81200695652E+02  0.00000000000E+00 0.  1.
</event>
<event>
 8    1  0.8504326E-006  0.2497014E+03  0.7561462E-02  0.1113494E+00
         -2   -1    0    0    0  501 -0.00000000000E+00  0.00000000000E+00  0.15605904308E+03  0.15605904308E+03  0.00000000000E+00 0. -1.
          2   -1    0    0  501    0  0.00000000000E+00 -0.00000000000E+00 -0.48519578892E+03  0.48519578892E+03  0.00000000000E+00 0.  1.
         23    2    1    2    0    0  0.22921331528E+03  0.77888916440E+02 -0.77200478859E+02  0.27014218737E+03  0.91714013406E+02 0.  0.
         23    2    1    2    0    0 -0.22921331528E+03 -0.77888916440E+02 -0.25193626698E+03  0.37111264463E+03  0.12508910895E+03 0.  0.
          5    1    4    4  502    0 -0.41434335156E+02 -0.27037938104E+02 -0.13559054172E+03  0.14439571196E+03  0.41800000000E+01 0.  1.
         -5    1    4    4    0  502 -0.18777898012E+03 -0.50850978337E+02 -0.11634572526E+03  0.22671693267E+03  0.41800000000E+01 0.  1.
        -11    1    3    3    0    0  0.18873514823E+03  0.27813082564E+02 -0.37281856726E+02  0.19438225377E+03  0.00000000000E+00 0.  1.
         11    1    3    3    0    0  0.40478167046E+02  0.50075833876E+02 -0.39918622133E+02  0.75759933598E+02  0.00000000000E+00 0. -1.
</event>
<event>
 7    1  0.5900800E-006  0.2022466E+03  0.7561462E-02  0.1147857E+00
         -1   -1    0    0    0  501 -0.00000000000E+00  0.00000000000E+00  0.20785130534E+02  0.20785130534E+02  0.00000000000E+00 0.  1.
          1   -1    0    0  501    0  0.00000000000E+00 -0.00000000000E+00 -0.24608591102E+04  0.24608591102E+04  0.00000000000E+00 0. -1.
         23    2    1    2    0    0  0.26054832435E+02  0.45035045231E+02 -0.36634803063E+03  0.38093537856E+03  0.90520017092E+02 0.  0.
          5    1    1    2  502    0  0.12252674474E+03 -0.81592703760E+02 -0.14895257265E+04  0.14967880728E+04  0.41800000000E+01 0. -1.
         -5    1    1    2    0  502 -0.14858157717E+03  0.36557658529E+02 -0.58420022253E+03  0.60392078941E+03  0.41800000000E+01 0.  1.
        -11    1    3    3    0    0 -0.27207079466E+02 -0.86335547642E+01 -0.89005180561E+02  0.93470239155E+02  0.00000000000E+00 0. -1.
         11    1    3    3    0    0  0.53261911901E+02  0.53668599995E+02 -0.27734285007E+03  0.28746513940E+03  0.00000000000E+00 0.  1.
</event>
<event>
 8    1  0.5900800E-006  0.1051482E+03  0.7561462E-02  0.1269828E+00
          2   -1    0    0  501    0  0.00000000000E+00  0.00000000000E+00  0.63835012672E+03  0.63835012672E+03  0.00000000000E+00 0. -1.
         -2   -1    0    0    0  501 -0.00000000000E+00 -0.00000000000E+00 -0.18710189418E+02  0.18710189418E+02  0.00000000000E+00 0.  1.
         23    2    1    2    0    0 -0.56653164586E+01 -0.13072752256E+01  0.29961035072E+03  0.31340149167E+03  0.91762344905E+02 0.  0.
         23    2    1    2    0    0  0.56653164586E+01  0.13072752256E+01  0.32002958659E+03  0.34365882447E+03  0.12509455051E+03 0.  0.
          5    1    4    4  502    0 -0.81692117071E+01  0.58637618955E+02  0.10462054647E+03  0.12028315560E+03  0.41800000000E+01 0. -1.
         -5    1    4    4    0  502  0.13834528166E+02 -0.57330343730E+02  0.21540904012E+03  0.22337566888E+03  0.41800000000E+01 0. -1.
        -11    1    3    3    0    0  0.16172042504E+02  0.41074968694E+02  0.13589040818E+03  0.14288068815E+03  0.00000000000E+00 0. -1.
         11    1    3    3    0    0 -0.21837358963E+02 -0.42382243919E+02  0.16371994254E+03  0.17052080352E+03  0.00000000000E+00 0.  1.
</event>
<event>
 8    1  0.5900800E-006  0.6896615E+02  0.7561462E-02  0.1363644E+00
          1   -1    0    0  501    0  0.00000000000E+00  0.00000000000E+00  0.32844136163E+03  0.32844136163E+03  0.00000000000E+00 0. -1.
         -1   -1    0    0    0  501 -0.00000000000E+00 -0.00000000000E+00 -0.42377439303E+02  0.42377439303E+02  0.00000000000E+00 0.  1.
         23    2    1    2    0    0  0.24921760654E+02  0.16725931980E+02  0.65114791433E+02  0.11515010321E+03  0.90104157788E+02 0.  0.
         23    2    1    2    0    0 -0.24921760654E+02 -0.16725931980E+02  0.22094913089E+03  0.25566869772E+03  0.12508842312E+03 0.  0.
          5    1    4    4  502    0 -0.31924579579E+02 -0.25881145380E+02  0.76432935795E+01  0.42010770098E+02  0.41800000000E+01 0.  1.
         -5    1    4    4    0  502  0.70028189253E+01  0.91552134000E+01  0.21330583731E+03  0.21365792763E+03  0.41800000000E+01 0.  1.
        -11    1    3    3    0    0 -0.64813750291E+01 -0.28541543577E+02 -0.75424481395E+00  0.29277923719E+02  0.00000000000E+00 0.  1.
         11    1    3    3    0    0  0.31403135683E+02  0.45267475557E+02  0.65869036247E+02  0.85872179488E+02  0.00000000000E+00 0. -1.
</event>
<event>
 8    1  0.5900800E-006  0.1051624E+03  0.7561462E-02  0.1269800E+00
         -3   -1    0    0    0  501 -0.00000000000E+00  0.00000000000E+00  0.26753452300E+03  0.26753452300E+03  0.00000000000E+00 0.  1.
          3   -1    0    0  501    0  0.00000000000E+00 -0.00000000000E+00 -0.48684435913E+02  0.48684435913E+02  0.00000000000E+00 0. -1.
         23    2    1    2    0    0  0.33021019656E+02 -0.71986858181E+01  0.77794080036E+02  0.12468087366E+03  0.91384859529E+02 0.  0.
         23    2    1    2    0    0 -0.33021019656E+02  0.71986858181E+01  0.14105600705E+03  0.19153808525E+03  0.12509129530E+03 0.  0.
          5    1    4    4  502    0 -0.35571173976E+02  0.55360910336E+02  0.34312807042E+02  0.74330208787E+02  0.41800000000E+01 0. -1.
         -5    1    4    4    0  502  0.25501543192E+01 -0.48162224518E+02  0.10674320001E+03  0.11720787646E+03  0.41800000000E+01 0. -1.
        -11    1    3    3    0    0  0.44401009927E+02 -0.40924194614E+02  0.59030288167E+02  0.84444149048E+02  0.00000000000E+00 0. -1.
         11    1    3    3    0    0 -0.11379990270E+02  0.33725508796E+02  0.18763791868E+02  0.40236724611E+02  0.00000000000E+00 0.  1.
</event>
<event>
 8    1  0.5900800E-006  0.2768490E+03  0.7561462E-02  0.1097423E+00
          1   -1    0    0  501    0  0.00000000000E+00  0.00000000000E+00  0.38889047979E+03  0.38889047979E+03  0.00000000000E+00 0. -1.
         -1   -1    0    0    0  501 -0.00000000000E+00 -0.00000000000E+00 -0.21847193624E+03  0.21847193624E+03  0.00000000000E+00 0.  1.
         23    2    1    2    0    0 -0.24471385125E+03 -0.71813828703E+02 -0.10031101338E+02  0.27083350157E+03  0.90598386255E+02 0.  0.
         23    2    1    2    0    0  0.24471385125E+03  0.71813828703E+02  0.18044964489E+03  0.33652891446E+03  0.12509013126E+03 0.  0.
          5    1    4    4  502    0  0.60982938742E+02 -0.35050891149E+02  0.57495037385E+02  0.90943034433E+02  0.41800000000E+01 0.  1.
         -5    1    4    4    0  502  0.18373091251E+03  0.10686471985E+03  0.12295460750E+03  0.24558588003E+03  0.41800000000E+01 0.  1.
        -11    1    3    3    0    0 -0.13040196768E+03  0.89070810780E+01 -0.42827757725E+01  0.13077595894E+03  0.00000000000E+00 0. -1.
         11    1    3    3    0    0 -0.11431188358E+03 -0.80720909781E+02 -0.57483255660E+01  0.14005754264E+03  0.00000000000E+00 0.  1.
</event>
<event>
 8    1  0.5900800E-006  0.1449487E+03  0.7561462E-02  0.1206821E+00
          2   -1    0    0  501    0  0.00000000000E+00  0.00000000000E+00  0.13566695450E+04  0.13566695450E+04  0.00000000000E+00 0. -1.
         -2   -1    0    0    0  501 -0.00000000000E+00 -0.00000000000E+00 -0.20971016768E+02  0.20971016768E+02  0.00000000000E+00 0.  1.
         23    2    1    2    0    0 -0.19969248742E+02  0.12717805193E+03  0.55046079904E+03  0.57214710072E+03  0.88160001162E+02 0.  0.
         23    2    1    2    0    0  0.19969248742E+02 -0.12717805193E+03  0.78523772923E+03  0.80549346108E+03  0.12509355157E+03 0.  0.
          5    1    4    4  502    0 -0.10723204671E+02 -0.10130775367E+03  0.72998430695E+03  0.73707042327E+03  0.41800000000E+01 0.  1.
         -5    1    4    4    0  502  0.30692453413E+02 -0.25870298261E+02  0.55253422282E+02  0.68423037806E+02  0.41800000000E+01 0.  1.
        -11    1    3    3    0    0 -0.36776237681E+02  0.26056849860E+02  0.93058125566E+02  0.10339857744E+03  0.00000000000E+00 0.  1.
         11    1    3    3    0    0  0.16806988939E+02  0.10112120207E+03  0.45740267347E+03  0.46874852329E+03  0.00000000000E+00 0. -1.
</event>
<event>
 8    1  0.5900800E-006  0.1302005E+03  0.7561462E-02  0.1227158E+00
          2   -1    0    0  501    0  0.00000000000E+00  0.00000000000E+00  0.65157472209E+03  0.65157472209E+03  0.00000000000E+00 0. -1.
         -2   -1    0    0    0  501 -0.00000000000E+00 -0.00000000000E+00 -0.51046888852E+02  0.51046888852E+02  0.00000000000E+00 0.  1.
         23    2    1    2    0    0  0.39861167143E+02  0.66724502734E+02  0.39796430390E+02  0.12287288055E+03  0.86446035143E+02 0.  0.
         23    2    1    2    0    0 -0.39861167143E+02 -0.66724502734E+02  0.56073140284E+03  0.57974873039E+03  0.12509121608E+03 0.  0.
          5    1    4    4  502    0  0.67145754256E+01  0.34114772621E+02  0.16673857319E+03  0.17037642860E+03  0.41800000000E+01 0.  1.
         -5    1    4    4    0  502 -0.46575742569E+02 -0.10083927536E+03  0.39399282965E+03  0.40937230178E+03  0.41800000000E+01 0.  1.
        -11    1    3    3    0    0 -0.14535197618E+01  0.72496370946E+02  0.36081030222E+02  0.80991834538E+02  0.00000000000E+00 0. -1.
         11    1    3    3    0    0  0.41314686905E+02 -0.57718682120E+01  0.37154001690E+01  0.41881046013E+02  0.00000000000E+00 0.  1.
</event>
<event>
 8    1  0.5900800E-006  0.1274611E+03  0.7561462E-02  0.1231272E+00
          2   -1    0    0  501    0  0.00000000000E+00  0.00000000000E+00  0.50659788730E+03  0.50659788730E+03  0.00000000000E+00 0. -1.
         -2   -1    0    0    0  501 -0.00000000000E+00 -0.00000000000E+00 -0.76973690742E+02  0.76973690742E+02  0.00000000000E+00 0.  1.
         23    2    1    2    0    0 -0.64025375585E+02  0.54904161308E+02  0.20317999439E+01  0.13014436790E+03  0.99094463205E+02 0.  0.
         23    2    1    2    0    0  0.64025375585E+02 -0.54904161308E+02  0.42759239661E+03  0.45342721014E+03  0.12508901473E+03 0.  0.
          5    1    4    4  502    0  0.75476503966E+01  0.25268798895E+02  0.24206877374E+03  0.24353694349E+03  0.41800000000E+01 0.  1.
         -5    1    4    4    0  502  0.56477725188E+02 -0.80172960203E+02  0.18552362287E+03  0.20989026665E+03  0.41800000000E+01 0.  1.
        -11    1    3    3    0    0 -0.44426389625E+02  0.83975280672E+02 -0.34080563631E+00  0.95003515764E+02  0.00000000000E+00 0. -1.
         11    1    3    3    0    0 -0.19598985960E+02 -0.29071119364E+02  0.23726055802E+01  0.35140852138E+02  0.00000000000E+00 0.  1.
</event>
<event>
 8    1  0.5900800E-006  0.1233830E+03  0.7561462E-02  0.1237618E+00
         -3   -1    0    0    0  501 -0.00000000000E+00  0.00000000000E+00  0.19821943946E+03  0.19821943946E+03  0.00000000000E+00 0.  1.
          3   -1    0    0  501    0  0.00000000000E+00 -0.00000000000E+00 -0.97007846572E+02  0.97007846572E+02  0.00000000000E+00 0. -1.
         23    2    1    2    0    0 -0.66344253198E+02 -0.39503723283E+01  0.10442030642E+03  0.15353857010E+03  0.90847821890E+02 0.  0.
         23    2    1    2    0    0  0.66344253198E+02  0.39503723283E+01 -0.32087135367E+01  0.14168871593E+03  0.12509288950E+03 0.  0.
          5    1    4    4  502    0 -0.34707234968E+02 -0.11649815088E+02  0.10805136626E+02  0.38399657918E+02  0.41800000000E+01 0. -1.
         -5    1    4    4    0  502  0.10105148817E+03  0.15600187416E+02 -0.14013850163E+02  0.10328905801E+03  0.41800000000E+01 0. -1.
        -11    1    3    3    0    0 -0.26119581546E+02 -0.43777885583E+02  0.72267292491E+02  0.88438099088E+02  0.00000000000E+00 0.  1.
         11    1    3    3    0    0 -0.40224671652E+02  0.39827513254E+02  0.32153013929E+02  0.65100471014E+02  0.00000000000E+00 0. -1.
</event>
<event>
 7    1  0.5900800E-006  0.1769309E+03  0.7561462E-02  0.1170807E+00
         -1   -1    0    0    0  501 -0.00000000000E+00  0.00000000000E+00  0.35703760135E+03  0.35703760135E+03  0.00000000000E+00 0.  1.
          1   -1    0    0  501    0  0.00000000000E+00 -0.00000000000E+00 -0.11259268642E+03  0.11259268642E+03  0.00000000000E+00 0. -1.
         23    2    1    2    0    0 -0.68148873299E+02 -0.90642699096E+02  0.90787793169E+01  0.16908324050E+03  0.12508537146E+03 0.  0.
          5    1    3    3  502    0 -0.10496274408E+03 -0.72090140413E+02  0.68215684932E+01  0.12758594039E+03  0.41800000000E+01 0.  1.
         -5    1    3    3    0  502  0.36813870781E+02 -0.18552558683E+02  0.22572108237E+01  0.41497300108E+02  0.41800000000E+01 0.  1.
        -11    1    1    2    0    0  0.44973988325E+02 -0.35170264663E+02  0.93184952862E+02  0.10928422842E+03  0.00000000000E+00 0.  1.
         11    1    1    2    0    0  0.23174884975E+02  0.12581296376E+03  0.14218118275E+03  0.19126281884E+03  0.00000000000E+00 0. -1.
</event>
<event>
 8    1  0.5900800E-006  0.1030491E+03  0.7561462E-02  0.1274012E+00
         -3   -1    0    0    0  501 -0.00000000000E+00  0.00000000000E+00  0.35486293703E+02  0.35486293703E+02  0.00000000000E+00 0.  1.
          3   -1    0    0  501    0  0.00000000000E+00 -0.00000000000E+00 -0.40433786803E+03  0.40433786803E+03  0.00000000000E+00 0. -1.
         23    2    1    2    0    0 -0.31840679850E+02 -0.38105050846E+02 -0.13590186220E+03  0.17079189800E+03  0.90745426777E+02 0.  0.
         23    2    1    2    0    0  0.31840679850E+02  0.38105050846E+02 -0.23294971213E+03  0.26903226373E+03  0.12508783615E+03 0.  0.
          5    1    4    4  502    0 -0.25550338206E+02  0.61922939691E+02 -0.83534461813E+02  0.10715758934E+03  0.41800000000E+01 0. -1.
         -5    1    4    4    0  502  0.57391018056E+02 -0.23817888845E+02 -0.14941525032E+03  0.16187467440E+03  0.41800000000E+01 0. -1.
        -11    1    3    3    0    0 -0.67049865851E+01 -0.48892846081E+02 -0.22679409932E+02  0.54312271890E+02  0.00000000000E+00 0. -1.
         11    1    3    3    0    0 -0.25135693265E+02  0.10787795235E+02 -0.11322245227E+03  0.11647962611E+03  0.00000000000E+00 0.  1.
</event>
<event>
 8    1  0.5900800E-006  0.9746081E+02  0.7561462E-02  0.1285728E+00
          2   -1    0    0  501    0  0.00000000000E+00  0.00000000000E+00  0.19012744912E+03  0.19012744912E+03  0.00000000000E+00 0. -1.
         -2   -1    0    0    0  501 -0.00000000000E+00 -0.00000000000E+00 -0.70361772702E+02  0.70361772702E+02  0.00000000000E+00 0.  1.
         23    2    1    2    0    0  0.11835283401E+02 -0.35647370461E+02  0.64062033009E+02  0.11849903506E+03  0.92343209186E+02 0.  0.
         23    2    1    2    0    0 -0.11835283401E+02  0.35647370461E+02  0.55703643411E+02  0.14199018676E+03  0.12509000078E+03 0.  0.
          5    1    4    4  502    0 -0.20579928461E+02 -0.26646546952E+02 -0.23120406488E+02  0.41056028986E+02  0.41800000000E+01 0.  1.
         -5    1    4    4    0  502  0.87446450595E+01  0.62293917414E+02  0.78824049899E+02  0.10093415778E+03  0.41800000000E+01 0.  1.
        -11    1    3    3    0    0  0.45382965875E+02  0.45309395094E+01  0.18912520076E+02  0.49374349820E+02  0.00000000000E+00 0.  1.
         11    1    3    3    0    0 -0.33547682474E+02 -0.40178309971E+02  0.45149512933E+02  0.69124685240E+02  0.00000000000E+00 0. -1.
</event>
<event>
 8    1  0.5900800E-006  0.1276806E+03  0.7561462E-02  0.1230938E+00
          2   -1    0    0  501    0  0.00000000000E+00  0.00000000000E+00  0.63303351312E+03  0.63303351312E+03  0.00000000000E+00 0. -1.
         -2   -1    0    0    0  501 -0.00000000000E+00 -0.00000000000E+00 -0.40901281091E+02  0.40901281091E+02  0.00000000000E+00 0.  1.
         23    2    1    2    0    0  0.10688355195E+02 -0.11209924783E+03  0.19389267284E+03  0.24160311196E+03  0.89984514364E+02 0.  0.
         23    2    1    2    0    0 -0.10688355195E+02  0.11209924783E+03  0.39823955918E+03  0.43233168225E+03  0.12504181171E+03 0.  0.
          5    1    4    4  502    0 -0.15055853652E+02  0.41385524734E+02  0.21904870529E+02  0.49363307624E+02  0.41800000000E+01 0.  1.
         -5    1    4    4    0  502  0.43674984575E+01  0.70713723099E+02  0.37633468865E+03  0.38296837462E+03  0.41800000000E+01 0.  1.
        -11    1    3    3    0    0  0.47072979313E+02 -0.54396560405E+02  0.12760312579E+03  0.14648347646E+03  0.00000000000E+00 0. -1.
         11    1    3    3    0    0 -0.36384624119E+02 -0.57702687428E+02  0.66289547051E+02  0.95119635496E+02  0.00000000000E+00 0.  1.
</event>
<event>
 8    1  0.5900800E-006  0.8404491E+02  0.7561462E-02  0.1317949E+00
          2   -1    0    0  501    0  0.00000000000E+00  0.00000000000E+00  0.34612255364E+03  0.34612255364E+03  0.00000000000E+00 0. -1.
         -2   -1    0    0    0  501 -0.00000000000E+00 -0.00000000000E+00 -0.47565637801E+02  0.47565637801E+02  0.00000000000E+00 0.  1.
         23    2    1    2    0    0  0.55316155065E+02 -0.11295806794E+02  0.57739044613E+02  0.12297789057E+03  0.92748541948E+02 0.  0.
         23    2    1    2    0    0 -0.55316155065E+02  0.11295806794E+02  0.24081787122E+03  0.27071030087E+03  0.11001521547E+03 0.  0.
          5    1    4    4  502    0 -0.34552941749E+02 -0.82962630585E+01  0.23914834790E+03  0.24181012896E+03  0.41800000000E+01 0. -1.
         -5    1    4    4    0  502 -0.20763213316E+02  0.19592069852E+02  0.16695233231E+01  0.28900171910E+02  0.41800000000E+01 0.  1.
        -11    1    3    3    0    0  0.39292562127E+01 -0.42933306449E+02  0.60765315908E+01  0.43538857280E+02  0.00000000000E+00 0.  1.
         11    1    3    3    0    0  0.51386898852E+02  0.31637499655E+02  0.51662513022E+02  0.79439033289E+02  0.00000000000E+00 0. -1.
</event>
<event>
 7    1  0.5900800E-006  0.1089006E+03  0.7561462E-02  0.1262620E+00
         -1   -1    0    0    0  501 -0.00000000000E+00  0.00000000000E+00  0.39038887369E+03  0.39038887369E+03  0.00000000000E+00 0.  1.
          1   -1    0    0  501    0  0.00000000000E+00 -0.00000000000E+00 -0.51432053476E+02  0.51432053476E+02  0.00000000000E+00 0. -1.
         23    2    1    2    0    0  0.27604273996E+02  0.13818231589E+02  0.20433148691E+03  0.22438905153E+03  0.87442269179E+02 0.  0.
          5    1    1    2  502    0  0.23666178588E+02 -0.59953923962E+02 -0.16792625683E+01  0.64613104942E+02  0.41800000000E+01 0. -1.
         -5    1    1    2    0  502 -0.51270452584E+02  0.46135692373E+02  0.13630459588E+03  0.15281877069E+03  0.41800000000E+01 0.  1.
        -11    1    3    3    0    0 -0.10478068859E+01  0.43117823133E+02  0.15154005180E+03  0.15755834434E+03  0.00000000000E+00 0. -1.
         11    1    3    3    0    0  0.28652080882E+02 -0.29299591544E+02  0.52791435108E+02  0.66830707196E+02  0.00000000000E+00 0.  1.
</event>
<event>
 8    1  0.5900800E-006  0.9524727E+02  0.7561462E-02  0.1290620E+00
         -2   -1    0    0    0  501 -0.00000000000E+00  0.00000000000E+00  0.91148353219E+02  0.91148353219E+02  0.00000000000E+00 0.  1.
          2   -1    0    0  501    0  0.00000000000E+00 -0.00000000000E+00 -0.16560866989E+03  0.16560866989E+03  0.00000000000E+00 0. -1.
         23    2    1    2    0    0  0.95413063325E+01 -0.33169972035E+02  0.17004999607E+02  0.97997100469E+02  0.90127565802E+02 0.  0.
         23    2    1    2    0    0 -0.95413063325E+01  0.33169972035E+02 -0.91465316275E+02  0.15875992264E+03  0.12509006908E+03 0.  0.
          5    1    4    4  502    0  0.35511579311E+02 -0.17016461601E+02 -0.81295836930E+02  0.90427416930E+02  0.41800000000E+01 0.  1.
         -5    1    4    4    0  502 -0.45052885644E+02  0.50186433636E+02 -0.10169479345E+02  0.68332505706E+02  0.41800000000E+01 0.  1.
        -11    1    3    3    0    0 -0.12834909792E+02  0.21057626944E+02  0.29054713984E+02  0.38109512810E+02  0.00000000000E+00 0.  1.
         11    1    3    3    0    0  0.22376216125E+02 -0.54227598979E+02 -0.12049714377E+02  0.59887587660E+02  0.00000000000E+00 0. -1.
</event>
<event>
 8    1  0.5900800E-006  0.1191517E+03  0.7561462E-02  0.1244503E+00
          1   -1    0    0  501    0  0.00000000000E+00  0.00000000000E+00  0.97003252552E+03  0.97003252552E+03  0.00000000000E+00 0. -1.
         -1   -1    0    0    0  501 -0.00000000000E+00 -0.00000000000E+00 -0.27023511415E+02  0.27023511415E+02  0.00000000000E+00 0.  1.
         23    2    1    2    0    0  0.45415592800E+02  0.71935813589E+02  0.18071797692E+03  0.21989923274E+03  0.91974714102E+02 0.  0.
         23    2    1    2    0    0 -0.45415592800E+02 -0.71935813589E+02  0.76229103718E+03  0.77715680419E+03  0.12509090926E+03 0.  0.
          5    1    4    4  502    0 -0.65934877236E+02 -0.51385931162E+02  0.72447526487E+03  0.72929404479E+03  0.41800000000E+01 0.  1.
         -5    1    4    4    0  502  0.20519284436E+02 -0.20549882428E+02  0.37815772316E+02  0.47862759400E+02  0.41800000000E+01 0.  1.
        -11    1    3    3    0    0 -0.24411908560E+02 -0.81600222415E+00  0.36846703842E+02  0.44207315268E+02  0.00000000000E+00 0.  1.
         11    1    3    3    0    0  0.69827501359E+02  0.72751815813E+02  0.14387127307E+03  0.17569191748E+03  0.00000000000E+00 0. -1.
</event>
<event>
 8    1  0.5900800E-006  0.9198533E+02  0.7561462E-02  0.1298114E+00
         -2   -1    0    0    0  501 -0.00000000000E+00  0.00000000000E+00  0.16026951141E+02  0.16026951141E+02  0.00000000000E+00 0. -1.
          2   -1    0    0  501    0  0.00000000000E+00 -0.00000000000E+00 -0.13370675953E+04  0.13370675953E+04  0.00000000000E+00 0.  1.
         23    2    1    2    0    0 -0.56963088769E+02 -0.44962722843E+01 -0.22553971941E+03  0.24900507429E+03  0.88715004612E+02 0.  0.
         23    2    1    2    0    0  0.56963088769E+02  0.44962722843E+01 -0.10955009248E+04  0.11040894722E+04  0.12500510568E+03 0.  0.
          5    1    4    4  502    0  0.10867317554E+02  0.32755969341E+02 -0.91398094044E+03  0.91464183373E+03  0.41800000000E+01 0. -1.
         -5    1    4    4    0  502  0.46095771215E+02 -0.28259697057E+02 -0.18151998435E+03  0.18944763847E+03  0.41800000000E+01 0. -1.
        -11    1    3    3    0    0 -0.26848702778E+02  0.35751137511E+02 -0.16160752097E+03  0.16767822610E+03  0.00000000000E+00 0.  1.
         11    1    3    3    0    0 -0.30114385991E+02 -0.40247409795E+02 -0.63932198444E+02  0.81326848191E+02  0.00000000000E+00 0. -1.
</event>
<event>
 8    1  0.5900800E-006  0.1531403E+03  0.7561462E-02  0.1196666E+00
          2   -1    0    0  501    0  0.00000000000E+00  0.00000000000E+00  0.75787929992E+03  0.75787929992E+03  0.00000000000E+00 0. -1.
         -2   -1    0    0    0  501 -0.00000000000E+00 -0.00000000000E+00 -0.39974348627E+02  0.39974348627E+02  0.00000000000E+00 0.  1.
         23    2    1    2    0    0  0.47323170257E+02  0.12085358536E+03  0.24738935253E+03  0.29399142710E+03  0.91566347110E+02 0.  0.
         23    2    1    2    0    0 -0.47323170257E+02 -0.12085358536E+03  0.47051559877E+03  0.50386222145E+03  0.12508852061E+03 0.  0.
          5    1    4    4  502    0  0.15431608334E+02  0.93316376232E+00  0.25260754548E+01  0.16212920390E+02  0.41800000000E+01 0.  1.
         -5    1    4    4    0  502 -0.62754778591E+02 -0.12178674912E+03  0.46798952331E+03  0.48764930106E+03  0.41800000000E+01 0.  1.
        -11    1    3    3    0    0  0.67803071685E+02  0.65900210252E+02  0.18848302392E+03  0.21086949649E+03  0.00000000000E+00 0. -1.
         11    1    3    3    0    0 -0.20479901428E+02  0.54953375109E+02  0.58906328609E+02  0.83121930612E+02  0.00000000000E+00 0.  1.
</event>
<event>
 8    1  0.5900800E-006  0.1092317E+03  0.7561462E-02  0.1261999E+00
          2   -1    0    0  501    0  0.00000000000E+00  0.00000000000E+00  0.91548655042E+02  0.91548655042E+02  0.00000000000E+00 0. -1.
         -2   -1    0    0    0  501 -0.00000000000E+00 -0.00000000000E+00 -0.28067115839E+03  0.28067115839E+03  0.00000000000E+00 0.  1.
         23    2    1    2    0    0 -0.31995335504E+02  0.81037845664E+02 -0.17902230919E+03  0.21944303694E+03  0.92279062363E+02 0.  0.
         23    2    1    2    0    0  0.31995335504E+02 -0.81037845664E+02 -0.10100194165E+02  0.15277677650E+03  0.12509154884E+03 0.  0.
          5    1    4    4  502    0  0.55590041577E+02 -0.59993357214E+02 -0.54307980850E+02  0.98266397188E+02  0.41800000000E+01 0.  1.
         -5    1    4    4    0  502 -0.23594706073E+02 -0.21044488449E+02  0.44207786685E+02  0.54510379309E+02  0.41800000000E+01 0.  1.
        -11    1    3    3    0    0  0.10563528657E+02  0.52222166134E+02 -0.28575157351E+02  0.60458931441E+02  0.00000000000E+00 0.  1.
         11    1    3    3    0    0 -0.42558864161E+02  0.28815679530E+02 -0.15044715184E+03  0.15898410550E+03  0.00000000000E+00 0. -1.
</event>
<event>
 8    1  0.5900800E-006  0.1110736E+03  0.7561462E-02  0.1258595E+00
         -3   -1    0    0    0  501 -0.00000000000E+00  0.00000000000E+00  0.24550107865E+02  0.24550107865E+02  0.00000000000E+00 0.  1.
          3   -1    0    0  501    0  0.00000000000E+00 -0.00000000000E+00 -0.57986364524E+03  0.57986364524E+03  0.00000000000E+00 0. -1.
         23    2    1    2    0    0  0.30339084254E+02 -0.34413258770E+02 -0.27798496987E+03  0.29674087843E+03  0.93138461664E+02 0.  0.
         23    2    1    2    0    0 -0.30339084254E+02  0.34413258770E+02 -0.27732856750E+03  0.30767287468E+03  0.12508689399E+03 0.  0.
          5    1    4    4  502    0  0.58707875003E+01 -0.40328988418E+02 -0.44727430520E+02  0.60654009708E+02  0.41800000000E+01 0.  1.
         -5    1    4    4    0  502 -0.36209871754E+02  0.74742247187E+02 -0.23260113698E+03  0.24701886498E+03  0.41800000000E+01 0.  1.
        -11    1    3    3    0    0 -0.20452028770E+02  0.16371604272E+02 -0.37395358043E+02  0.45658818539E+02  0.00000000000E+00 0.  1.
         11    1    3    3    0    0  0.50791113024E+02 -0.50784863042E+02 -0.24058961183E+03  0.25108205989E+03  0.00000000000E+00 0. -1.
</event>
<event>
 8    1  0.5900800E-006  0.1528380E+03  0.7561462E-02  0.1197028E+00
         -2   -1    0    0    0  501 -0.00000000000E+00  0.00000000000E+00  0.16902524082E+02  0.16902524082E+02  0.00000000000E+00 0.  1.
          2   -1    0    0  501    0  0.00000000000E+00 -0.00000000000E+00 -0.17086351585E+04  0.17086351585E+04  0.00000000000E+00 0. -1.
         23    2    1    2    0    0  0.11594112575E+03  0.24163939031E+02 -0.54959721481E+03  0.57048450983E+03  0.96794818228E+02 0.  0.
         23    2    1    2    0    0 -0.11594112575E+03 -0.24163939031E+02 -0.11421354196E+04  0.11550531727E+04  0.12509306365E+03 0.  0.
          5    1    4    4  502    0 -0.42911604558E+02 -0.58685674009E+02 -0.80766808237E+03  0.81094427541E+03  0.41800000000E+01 0.  1.
         -5    1    4    4    0  502 -0.73029521197E+02  0.34521734978E+02 -0.33446733720E+03  0.34410889730E+03  0.41800000000E+01 0.  1.
        -11    1    3    3    0    0  0.12244943550E+03 -0.45430053392E+01 -0.46664351096E+03  0.48246312758E+03  0.00000000000E+00 0. -1.
         11    1    3    3    0    0 -0.65083097423E+01  0.28706944370E+02 -0.82953703847E+02  0.88021382247E+02  0.00000000000E+00 0.  1.
</event>
<event>
 8    1  0.5900800E-006  0.1656268E+03  0.7561462E-02  0.1182487E+00
         -2   -1    0    0    0  501 -0.00000000000E+00  0.00000000000E+00  0.68464660335E+02  0.68464660335E+02  0.00000000000E+00 0.  1.
          2   -1    0    0  501    0  0.00000000000E+00 -0.00000000000E+00 -0.50507600761E+03  0.50507600761E+03  0.00000000000E+00 0. -1.
         23    2    1    2    0    0 -0.13424672085E+03 -0.37026992590E+02 -0.11976715493E+03  0.20562126566E+03  0.92427015829E+02 0.  0.
         23    2    1    2    0    0  0.13424672085E+03  0.37026992590E+02 -0.31684419235E+03  0.36791940228E+03  0.12482493386E+03 0.  0.
          5    1    4    4  502    0  0.60608978439E+02  0.80000437407E+02 -0.19184931354E+03  0.21655749758E+03  0.41800000000E+01 0. -1.
         -5    1    4    4    0  502  0.73637742409E+02 -0.42973444817E+02 -0.12499487881E+03  0.15136190470E+03  0.41800000000E+01 0. -1.
        -11    1    3    3    0    0 -0.38930485042E+02  0.84361720668E+01 -0.85955557317E+02  0.94737054516E+02  0.00000000000E+00 0. -1.
         11    1    3    3    0    0 -0.95316235805E+02 -0.45463164657E+02 -0.33811597609E+02  0.11088421115E+03  0.00000000000E+00 0.  1.
</event>
<event>
 8    1  0.5900800E-006  0.2082724E+03  0.7561462E-02  0.1142941E+00
          2   -1    0    0  501    0  0.00000000000E+00  0.00000000000E+00  0.13532187026E+04  0.13532187026E+04  0.00000000000E+00 0. -1.
         -2   -1    0    0    0  501 -0.00000000000E+00 -0.00000000000E+00 -0.41562983490E+02  0.41562983490E+02  0.00000000000E+00 0.  1.
         23    2    1    2    0    0 -0.19379319137E+03  0.42953700123E+02  0.42241209690E+03  0.47510634727E+03  0.88843909371E+02 0.  0.
         23    2    1    2    0    0  0.19379319137E+03 -0.42953700123E+02  0.88924362223E+03  0.91967533884E+03  0.12509071834E+03 0.  0.
          5    1    4    4  502    0  0.36944536874E+02 -0.38810913519E+02  0.45062159210E+03  0.45381546633E+03  0.41800000000E+01 0.  1.
         -5    1    4    4    0  502  0.15684865450E+03 -0.41427866044E+01  0.43862203013E+03  0.46585987251E+03  0.41800000000E+01 0.  1.
        -11    1    3    3    0    0 -0.67989772770E+02 -0.11145288337E+02  0.22145943461E+03  0.23192910087E+03  0.00000000000E+00 0.  1.
         11    1    3    3    0    0 -0.12580341860E+03  0.54098988461E+02  0.20095266229E+03  0.24317724640E+03  0.00000000000E+00 0. -1.
</event>
<event>
 8    1  0.5900800E-006  0.2054456E+03  0.7561462E-02  0.1145224E+00
         -2   -1    0    0    0  501 -0.00000000000E+00  0.00000000000E+00  0.16913600978E+03  0.16913600978E+03  0.00000000000E+00 0.  1.
          2   -1    0    0  501    0  0.00000000000E+00 -0.00000000000E+00 -0.30416002245E+03  0.30416002245E+03  0.00000000000E+00 0. -1.
         23    2    1    2    0    0  0.11745293901E+03  0.13027723963E+03  0.35050535549E+02  0.19881354357E+03  0.86780948464E+02 0.  0.
         23    2    1    2    0    0 -0.11745293901E+03 -0.13027723963E+03 -0.17007454821E+03  0.27448248866E+03  0.12509169671E+03 0.  0.
          5    1    4    4  502    0 -0.79633064238E+02 -0.27844236760E+00 -0.69405876291E+02  0.10571731416E+03  0.41800000000E+01 0. -1.
         -5    1    4    4    0  502 -0.37819874768E+02 -0.12999879727E+03 -0.10066867192E+03  0.16876517450E+03  0.41800000000E+01 0. -1.
        -11    1    3    3    0    0  0.18464000230E+02  0.84750987296E+02  0.16192163119E+02  0.88237380393E+02  0.00000000000E+00 0.  1.
         11    1    3    3    0    0  0.98988938776E+02  0.45526252337E+02  0.18858372430E+02  0.11057616318E+03  0.00000000000E+00 0. -1.
</event>
<event>
 8    1  0.5900800E-006  0.1266385E+03  0.7561462E-02  0.1232531E+00
          2   -1    0    0  501    0  0.00000000000E+00  0.00000000000E+00  0.31629920507E+03  0.31629920507E+03  0.00000000000E+00 0. -1.
         -2   -1    0    0    0  501 -0.00000000000E+00 -0.00000000000E+00 -0.69417711018E+02  0.69417711018E+02  0.00000000000E+00 0.  1.
         23    2    1    2    0    0  0.97231602011E+02 -0.21288880557E+02  0.90826948450E+02  0.16231450261E+03  0.90494543081E+02 0.  0.
         23    2    1    2    0    0 -0.97231602011E+02  0.21288880557E+02  0.15605454560E+03  0.22340241348E+03  0.12509363005E+03 0.  0.
          5    1    4    4  502    0  0.19456385709E+02  0.38745009394E+01  0.81025064471E+02  0.83523027812E+02  0.41800000000E+01 0.  1.
         -5    1    4    4    0  502 -0.11668798772E+03  0.17414379618E+02  0.75029481130E+02  0.13987938567E+03  0.41800000000E+01 0.  1.
        -11    1    3    3    0    0  0.69000384420E+02  0.13331888289E+02  0.11411621743E+02  0.71197032285E+02  0.00000000000E+00 0.  1.
         11    1    3    3    0    0  0.28231217591E+02 -0.34620768846E+02  0.79415326708E+02  0.91117470324E+02  0.00000000000E+00 0. -1.
</event>
<event>
 7    1  0.5900800E-006  0.1214061E+03  0.7561462E-02  0.1240795E+00
         -2   -1    0    0    0  501 -0.00000000000E+00  0.00000000000E+00  0.66134599863E+02  0.66134599863E+02  0.00000000000E+00 0.  1.
          2   -1    0    0  501    0  0.00000000000E+00 -0.00000000000E+00 -0.28932009994E+03  0.28932009994E+03  0.00000000000E+00 0. -1.
         23    2    1    2    0    0 -0.56186694962E+02  0.17293450726E+02 -0.62070101578E+02  0.12918915024E+03  0.96856238321E+02 0.  0.
          5    1    1    2  502    0  0.95334985033E+02 -0.48437315550E+02 -0.93886654810E+02  0.14236259783E+03  0.41800000000E+01 0. -1.
         -5    1    1    2    0  502 -0.39148290071E+02  0.31143864824E+02 -0.67228743690E+02  0.83902951735E+02  0.41800000000E+01 0.  1.
        -11    1    3    3    0    0 -0.26335135244E+02 -0.23331152073E+02  0.14053076912E+02  0.37886290081E+02  0.00000000000E+00 0. -1.
         11    1    3    3    0    0 -0.29851559718E+02  0.40624602799E+02 -0.76123178491E+02  0.91302860162E+02  0.00000000000E+00 0.  1.
</event>
<event>
 8    1  0.5900800E-006  0.1669883E+03  0.7561462E-02  0.1181025E+00
         -1   -1    0    0    0  501 -0.00000000000E+00  0.00000000000E+00  0.51301921992E+03  0.51301921992E+03  0.00000000000E+00 0.  1.
          1   -1    0    0  501    0  0.00000000000E+00 -0.00000000000E+00 -0.93639463291E+02  0.93639463291E+02  0.00000000000E+00 0. -1.
         23    2    1    2    0    0 -0.72415995770E+01 -0.13914316906E+03  0.38214142402E+03  0.41574645440E+03  0.86021997954E+02 0.  0.
         23    2    1    2    0    0  0.72415995770E+01  0.13914316906E+03  0.37238332610E+02  0.19091222881E+03  0.12509006129E+03 0.  0.
          5    1    4    4  502    0 -0.45445806499E+02  0.12277838836E+03  0.34800446882E+02  0.13553006117E+03  0.41800000000E+01 0. -1.
         -5    1    4    4    0  502  0.52687406076E+02  0.16364780704E+02  0.24378857277E+01  0.55382167647E+02  0.41800000000E+01 0. -1.
        -11    1    3    3    0    0  0.18002512849E+02 -0.96023071120E+02  0.15535000936E+03  0.18351606487E+03  0.00000000000E+00 0. -1.
         11    1    3    3    0    0 -0.25244112426E+02 -0.43120097944E+02  0.22679141466E+03  0.23223038953E+03  0.00000000000E+00 0.  1.
</event>
<event>
 8    1  0.5900800E-006  0.7456542E+02  0.7561462E-02  0.1345222E+00
          2   -1    0    0  501    0  0.00000000000E+00  0.00000000000E+00  0.26851654239E+03  0.26851654239E+03  0.00000000000E+00 0.  1.
         -2   -1    0    0    0  501 -0.00000000000E+00 -0.00000000000E+00 -0.72037821230E+02  0.72037821230E+02  0.00000000000E+00 0. -1.
         23    2    1    2    0    0  0.30879634092E+02 -0.31433621916E+02 -0.58992128163E+01  0.98589785169E+02  0.87997276318E+02 0.  0.
         23    2    1    2    0    0 -0.30879634092E+02  0.31433621916E+02  0.20237793398E+03  0.24196457845E+03  0.12509358367E+03 0.  0.
          5    1    4    4  502    0 -0.45442682832E+02  0.12731429059E+02  0.21110960692E+03  0.21636049834E+03  0.41800000000E+01 0. -1.
         -5    1    4    4    0  502  0.14563048740E+02  0.18702192857E+02 -0.87316729383E+01  0.25604080115E+02  0.41800000000E+01 0. -1.
        -11    1    3    3    0    0 -0.18178560813E+02 -0.20544250678E+02  0.27028430913E+02  0.38510549032E+02  0.00000000000E+00 0. -1.
         11    1    3    3    0    0  0.49058194905E+02 -0.10889371238E+02 -0.32927643729E+02  0.60079236137E+02  0.00000000000E+00 0.  1.
</event>
<event>
 8    1  0.5900800E-006  0.1183858E+03  0.7561462E-02  0.1245784E+00
          1   -1    0    0  501    0  0.00000000000E+00  0.00000000000E+00  0.22141006951E+03  0.22141006951E+03  0.00000000000E+00 0. -1.
         -1   -1    0    0    0  501 -0.00000000000E+00 -0.00000000000E+00 -0.81477894945E+02  0.81477894945E+02  0.00000000000E+00 0.  1.
         23    2    1    2    0    0  0.77688280429E+02 -0.59499384364E+01  0.49495763535E+02  0.12998009246E+03  0.91510235192E+02 0.  0.
         23    2    1    2    0    0 -0.77688280429E+02  0.59499384364E+01  0.90436411027E+02  0.17290787199E+03  0.12509003587E+03 0.  0.
          5    1    4    4  502    0 -0.79873177617E+02  0.55083511668E+02  0.68791352269E+02  0.11901109321E+03  0.41800000000E+01 0.  1.
         -5    1    4    4    0  502  0.21848971878E+01 -0.49133573232E+02  0.21645058758E+02  0.53896778780E+02  0.41800000000E+01 0.  1.
        -11    1    3    3    0    0  0.24205310429E+02  0.19485231529E+02  0.62091018056E+02  0.69432455120E+02  0.00000000000E+00 0. -1.
         11    1    3    3    0    0  0.53482970000E+02 -0.25435169966E+02 -0.12595254521E+02  0.60547637342E+02  0.00000000000E+00 0.  1.
</event>
<event>
 8    1  0.5900800E-006  0.1139101E+03  0.7561462E-02  0.1253496E+00
         -1   -1    0    0    0  501 -0.00000000000E+00  0.00000000000E+00  0.31121184211E+02  0.31121184211E+02  0.00000000000E+00 0.  1.
          1   -1    0    0  501    0  0.00000000000E+00 -0.00000000000E+00 -0.47859501244E+03  0.47859501244E+03  0.00000000000E+00 0. -1.
         23    2    1    2    0    0 -0.46994933118E+02  0.18923951015E+02 -0.16617059730E+03  0.19771418090E+03  0.94401219593E+02 0.  0.
         23    2    1    2    0    0  0.46994933118E+02 -0.18923951015E+02 -0.28130323093E+03  0.31200201575E+03  0.12508841050E+03 0.  0.
          5    1    4    4  502    0  0.56530390910E+02  0.34838528290E+02 -0.83545473363E+02  0.10680227839E+03  0.41800000000E+01 0.  1.
         -5    1    4    4    0  502 -0.95354577927E+01 -0.53762479305E+02 -0.19775775757E+03  0.20519973736E+03  0.41800000000E+01 0.  1.
        -11    1    3    3    0    0 -0.52573027230E+02  0.51428361861E+02 -0.12413290021E+03  0.14428366681E+03  0.00000000000E+00 0. -1.
         11    1    3    3    0    0  0.55780941124E+01 -0.32504410846E+02 -0.42037697098E+02  0.53430514088E+02  0.00000000000E+00 0.  1.
</event>
<event>
 8    1  0.5900800E-006  0.1341568E+03  0.7561462E-02  0.1221415E+00
          4   -1    0    0  501    0  0.00000000000E+00  0.00000000000E+00  0.84434606904E+02  0.84434606904E+02  0.00000000000E+00 0. -1.
         -4   -1    0    0    0  501 -0.00000000000E+00 -0.00000000000E+00 -0.40922506665E+03  0.40922506665E+03  0.00000000000E+00 0.  1.
         23    2    1    2    0    0  0.80486611491E+02  0.72148239391E+02 -0.29290949038E+03  0.32529176383E+03  0.91297858610E+02 0.  0.
         23    2    1    2    0    0 -0.80486611491E+02 -0.72148239391E+02 -0.31880969373E+02  0.16836790973E+03  0.12509154145E+03 0.  0.
          5    1    4    4  502    0 -0.73098137868E+02  0.13247832438E+02 -0.35570512545E+02  0.82471671420E+02  0.41800000000E+01 0. -1.
         -5    1    4    4    0  502 -0.73884736224E+01 -0.85396071830E+02  0.36895431726E+01  0.85896238307E+02  0.41800000000E+01 0. -1.
        -11    1    3    3    0    0  0.42718724768E+02  0.38161764658E+02 -0.25641426440E+03  0.26273462794E+03  0.00000000000E+00 0.  1.
         11    1    3    3    0    0  0.37767886722E+02  0.33986474733E+02 -0.36495225972E+02  0.62557135892E+02  0.00000000000E+00 0. -1.
</event>
<event>
 8    1  0.5900800E-006  0.2157032E+03  0.7561462E-02  0.1137128E+00
         -1   -1    0    0    0  501 -0.00000000000E+00  0.00000000000E+00  0.41541400616E+02  0.41541400616E+02  0.00000000000E+00 0.  1.
          1   -1    0    0  501    0  0.00000000000E+00 -0.00000000000E+00 -0.12814681130E+04  0.12814681130E+04  0.00000000000E+00 0. -1.
         23    2    1    2    0    0 -0.49024723260E+02 -0.19471817578E+03 -0.55526397249E+03  0.59862821804E+03  0.98585358021E+02 0.  0.
         23    2    1    2    0    0  0.49024723260E+02  0.19471817578E+03 -0.68466273986E+03  0.72438129555E+03  0.12508638018E+03 0.  0.
          5    1    4    4  502    0  0.44010416054E+02  0.17800977147E+02 -0.25936822420E+03  0.26371033281E+03  0.41800000000E+01 0.  1.
         -5    1    4    4    0  502  0.50143072066E+01  0.17691719864E+03 -0.42529451567E+03  0.46067096273E+03  0.41800000000E+01 0.  1.
        -11    1    3    3    0    0 -0.58831704197E+02 -0.15471250814E+03 -0.32513763803E+03  0.36484464263E+03  0.00000000000E+00 0.  1.
         11    1    3    3    0    0  0.98069809364E+01 -0.40005667647E+02 -0.23012633446E+03  0.23378357540E+03  0.00000000000E+00 0. -1.
</event>
<event>
 8    1  0.7889606E-006  0.1152365E+03  0.7561462E-02  0.1251169E+00
          2   -1    0    0  501    0  0.00000000000E+00  0.00000000000E+00  0.39945122434E+03  0.39945122434E+03  0.00000000000E+00 0. -1.
         -2   -1    0    0    0  501 -0.00000000000E+00 -0.00000000000E+00 -0.42054945730E+02  0.42054945730E+02  0.00000000000E+00 0.  1.
         23    2    1    2    0    0 -0.75270977631E+01  0.71336079588E+02  0.13729420938E+03  0.17837525990E+03  0.88445124025E+02 0.  0.
         23    2    1    2    0    0  0.75270977631E+01 -0.71336079588E+02  0.22010206923E+03  0.26313091017E+03  0.12508981396E+03 0.  0.
          5    1    4    4  502    0  0.66066609113E+02 -0.33628412684E+02  0.10674712265E+03  0.13003110233E+03  0.41800000000E+01 0.  1.
         -5    1    4    4    0  502 -0.58539511350E+02 -0.37707666904E+02  0.11335494658E+03  0.13309980783E+03  0.41800000000E+01 0.  1.
        -11    1    3    3    0    0  0.13309400889E+02  0.62380559424E+02  0.14158868371E+03  0.15529272262E+03  0.00000000000E+00 0. -1.
         11    1    3    3    0    0 -0.20836498652E+02  0.89555201637E+01 -0.42944743248E+01  0.23082537279E+02  0.00000000000E+00 0.  1.
</event>
<event>
 8    1  0.5900800E-006  0.9654891E+02  0.7561462E-02  0.1287725E+00
          1   -1    0    0  501    0  0.00000000000E+00  0.00000000000E+00  0.58916836083E+03  0.58916836083E+03  0.00000000000E+00 0. -1.
         -1   -1    0    0    0  501 -0.00000000000E+00 -0.00000000000E+00 -0.44805125289E+02  0.44805125289E+02  0.00000000000E+00 0.  1.
         23    2    1    2    0    0 -0.91240668507E+02 -0.17498424494E+02  0.12577709056E+03  0.18732810318E+03  0.10315467648E+03 0.  0.
         23    2    1    2    0    0  0.91240668507E+02  0.17498424494E+02  0.41858614498E+03  0.44664538294E+03  0.12508670149E+03 0.  0.
          5    1    4    4  502    0  0.28859773949E+02 -0.13647284250E+01  0.71458193329E+01  0.30054686324E+02  0.41800000000E+01 0. -1.
         -5    1    4    4    0  502  0.62380894558E+02  0.18863152919E+02  0.41144032564E+03  0.41659069662E+03  0.41800000000E+01 0. -1.
        -11    1    3    3    0    0 -0.15668935050E+02  0.95315987276E+01  0.10197740650E+03  0.10361350460E+03  0.00000000000E+00 0. -1.
         11    1    3    3    0    0 -0.75571733457E+02 -0.27030023222E+02  0.23799684069E+02  0.83714598577E+02  0.00000000000E+00 0.  1.
</event>
<event>
 8    1  0.5900800E-006  0.1603401E+03  0.7561462E-02  0.1188313E+00
          2   -1    0    0  501    0  0.00000000000E+00  0.00000000000E+00  0.14909420279E+04  0.14909420279E+04  0.00000000000E+00 0.  1.
         -2   -1    0    0    0  501 -0.00000000000E+00 -0.00000000000E+00 -0.20720062769E+02  0.20720062769E+02  0.00000000000E+00 0. -1.
         23    2    1    2    0    0 -0.95645606800E+02 -0.89784521569E+02  0.51677832016E+03  0.54113985982E+03  0.92537415595E+02 0.  0.
         23    2    1    2    0    0  0.95645606800E+02  0.89784521569E+02  0.95344364495E+03  0.97052223083E+03  0.12509705842E+03 0.  0.
          5    1    4    4  502    0  0.25423149800E+02  0.86389902742E+02  0.29886158632E+03  0.31216225271E+03  0.41800000000E+01 0. -1.
         -5    1    4    4    0  502  0.70222456999E+02  0.33946188267E+01  0.65458205863E+03  0.65835997811E+03  0.41800000000E+01 0. -1.
        -11    1    3    3    0    0 -0.64327274878E+02  0.72031679840E+00  0.18837150514E+03  0.19905361363E+03  0.00000000000E+00 0. -1.
         11    1    3    3    0    0 -0.31318331922E+02 -0.90504838367E+02  0.32840681501E+03  0.34208624619E+03  0.00000000000E+00 0.  1.
</event>
<event>
 8    1  0.5900800E-006  0.9603742E+02  0.7561462E-02  0.1288856E+00
          1   -1    0    0  501    0  0.00000000000E+00  0.00000000000E+00  0.69084022801E+03  0.69084022801E+03  0.00000000000E+00 0. -1.
         -1   -1    0    0    0  501 -0.00000000000E+00 -0.00000000000E+00 -0.18552508173E+02  0.18552508173E+02  0.00000000000E+00 0.  1.
         23    2    1    2    0    0  0.27508600456E+02  0.10559979190E+02  0.23258911391E+03  0.25129771041E+03  0.90468818317E+02 0.  0.
         23    2    1    2    0    0 -0.27508600456E+02 -0.10559979190E+02  0.43969860593E+03  0.45809502578E+03  0.12509177561E+03 0.  0.
          5    1    4    4  502    0  0.27358039331E+02  0.29855065348E+02  0.29842891299E+03  0.30119275514E+03  0.41800000000E+01 0. -1.
         -5    1    4    4    0  502 -0.54866639787E+02 -0.40415044538E+02  0.14126969294E+03  0.15690227063E+03  0.41800000000E+01 0. -1.
        -11    1    3    3    0    0  0.39415172732E+02 -0.24266906276E+02  0.65507447727E+02  0.80210125853E+02  0.00000000000E+00 0.  1.
         11    1    3    3    0    0 -0.11906572276E+02  0.34826885466E+02  0.16708166618E+03  0.17108758455E+03  0.00000000000E+00 0. -1.
</event>
<event>
 8    1  0.5900800E-006  0.1166254E+03  0.7561462E-02  0.1248770E+00
          1   -1    0    0  501    0  0.00000000000E+00  0.00000000000E+00  0.10887946648E+03  0.10887946648E+03  0.00000000000E+00 0. -1.
         -1   -1    0    0    0  501 -0.00000000000E+00 -0.00000000000E+00 -0.19857195643E+03  0.19857195643E+03  0.00000000000E+00 0.  1.
         23    2    1    2    0    0 -0.15858320184E+02 -0.79095405168E+02 -0.10084468276E+03  0.15822119052E+03  0.91415128131E+02 0.  0.
         23    2    1    2    0    0  0.15858320184E+02  0.79095405168E+02  0.11152192812E+02  0.14923023239E+03  0.12505087531E+03 0.  0.
          5    1    4    4  502    0 -0.12102598939E+02 -0.30765547857E+02  0.13013761373E+02  0.35774603018E+02  0.41800000000E+01 0.  1.
         -5    1    4    4    0  502  0.27960919123E+02  0.10986095303E+03 -0.18615685604E+01  0.11345562937E+03  0.41800000000E+01 0.  1.
        -11    1    3    3    0    0 -0.12035490989E+01 -0.68236965723E+02 -0.11594665614E+03  0.13454129140E+03  0.00000000000E+00 0.  1.
         11    1    3    3    0    0 -0.14654771085E+02 -0.10858439445E+02  0.15101973375E+02  0.23679899125E+02  0.00000000000E+00 0. -1.
</event>
<event>
 8    1  0.5900800E-006  0.9510524E+02  0.7561462E-02  0.1290939E+00
          3   -1    0    0  501    0  0.00000000000E+00  0.00000000000E+00  0.59798905268E+02  0.59798905268E+02  0.00000000000E+00 0. -1.
         -3   -1    0    0    0  501 -0.00000000000E+00 -0.00000000000E+00 -0.22562283109E+03  0.22562283109E+03  0.00000000000E+00 0.  1.
         23    2    1    2    0    0 -0.38963427417E+02  0.18810748627E+02 -0.73235485192E+02  0.12389041598E+03  0.90074446652E+02 0.  0.
         23    2    1    2    0    0  0.38963427417E+02 -0.18810748627E+02 -0.92588440625E+02  0.16153132038E+03  0.12509098762E+03 0.  0.
          5    1    4    4  502    0  0.75356084464E+02 -0.14320328514E+01 -0.19521688873E+02  0.77968961262E+02  0.41800000000E+01 0.  1.
         -5    1    4    4    0  502 -0.36392657047E+02 -0.17378715776E+02 -0.73066751752E+02  0.83562359113E+02  0.41800000000E+01 0.  1.
        -11    1    3    3    0    0 -0.31911904357E+02 -0.18041579873E+02  0.51200137323E+01  0.37014629333E+02  0.00000000000E+00 0. -1.
         11    1    3    3    0    0 -0.70515230600E+01  0.36852328501E+02 -0.78355498925E+02  0.86875786645E+02  0.00000000000E+00 0.  1.
</event>
<event>
 8    1  0.5900800E-006  0.9570984E+02  0.7561462E-02  0.1289585E+00
          2   -1    0    0  501    0  0.00000000000E+00  0.00000000000E+00  0.81219487843E+03  0.81219487843E+03  0.00000000000E+00 0. -1.
         -2   -1    0    0    0  501 -0.00000000000E+00 -0.00000000000E+00 -0.26924170542E+02  0.26924170542E+02  0.00000000000E+00 0.  1.
         23    2    1    2    0    0  0.30153564300E+02 -0.40010036903E+02  0.11038215518E+03  0.15090687796E+03  0.89881172332E+02 0.  0.
         23    2    1    2    0    0 -0.30153564300E+02  0.40010036903E+02  0.67488855271E+03  0.68821217102E+03  0.12510552851E+03 0.  0.
          5    1    4    4  502    0  0.47108869386E+02  0.31522967793E+02  0.29717912316E+03  0.30256544203E+03  0.41800000000E+01 0.  1.
         -5    1    4    4    0  502 -0.77262433686E+02  0.84870691103E+01  0.37770942955E+03  0.38564672898E+03  0.41800000000E+01 0.  1.
        -11    1    3    3    0    0  0.27803360692E+02 -0.14939280407E+02  0.11990204141E+03  0.12398672710E+03  0.00000000000E+00 0. -1.
         11    1    3    3    0    0  0.23502036083E+01 -0.25070756497E+02 -0.95198862242E+01  0.26920150855E+02  0.00000000000E+00 0.  1.
</event>
<event>
 8    1  0.5900800E-006  0.4020606E+03  0.7561462E-02  0.1043068E+00
          2   -1    0    0  501    0  0.00000000000E+00  0.00000000000E+00  0.55709309367E+03  0.55709309367E+03  0.00000000000E+00 0. -1.
         -2   -1    0    0    0  501 -0.00000000000E+00 -0.00000000000E+00 -0.37175177960E+03  0.37175177960E+03  0.00000000000E+00 0.  1.
         23    2    1    2    0    0 -0.29537538152E+03  0.25745299067E+03 -0.11645816527E+03  0.41868912802E+03  0.90605867623E+02 0.  0.
         23    2    1    2    0    0  0.29537538152E+03 -0.25745299067E+03  0.30179947934E+03  0.51015574526E+03  0.12508916930E+03 0.  0.
          5    1    4    4  502    0  0.23161901104E+03 -0.12273605135E+03  0.18865552434E+03  0.32298588798E+03  0.41800000000E+01 0.  1.
         -5    1    4    4    0  502  0.63756370479E+02 -0.13471693932E+03  0.11314395500E+03  0.18716985727E+03  0.41800000000E+01 0.  1.
        -11    1    3    3    0    0 -0.90886329467E+02  0.62278399044E+02 -0.74281569263E+02  0.13287842339E+03  0.00000000000E+00 0. -1.
         11    1    3    3    0    0 -0.20448905205E+03  0.19517459163E+03 -0.42176596010E+02  0.28581070462E+03  0.00000000000E+00 0.  1.
</event>
<event>
 8    1  0.5900800E-006  0.7875932E+02  0.7561462E-02  0.1332610E+00
          1   -1    0    0  501    0  0.00000000000E+00  0.00000000000E+00  0.33921249370E+02  0.33921249370E+02  0.00000000000E+00 0. -1.
         -1   -1    0    0    0  501 -0.00000000000E+00 -0.00000000000E+00 -0.39135269000E+03  0.39135269000E+03  0.00000000000E+00 0.  1.
         23    2    1    2    0    0 -0.96862257416E+01 -0.16121371220E+02 -0.21248128095E+03  0.23289181978E+03  0.93469692346E+02 0.  0.
         23    2    1    2    0    0  0.96862257416E+01  0.16121371220E+02 -0.14495015968E+03  0.19238211959E+03  0.12508640841E+03 0.  0.
          5    1    4    4  502    0 -0.15324583873E+02  0.31129981453E+02  0.86321046193E+01  0.35998670063E+02  0.41800000000E+01 0. -1.
         -5    1    4    4    0  502  0.25010809614E+02 -0.15008610233E+02 -0.15358226430E+03  0.15638344953E+03  0.41800000000E+01 0. -1.
        -11    1    3    3    0    0 -0.40722884544E+02  0.20092365740E+02 -0.78673332511E+02  0.90838041232E+02  0.00000000000E+00 0. -1.
         11    1    3    3    0    0  0.31036658803E+02 -0.36213736960E+02 -0.13380794844E+03  0.14205377855E+03  0.00000000000E+00 0.  1.
</event>
<event>
 8    1  0.5900800E-006  0.1217848E+03  0.7561462E-02  0.1240181E+00
         -2   -1    0    0    0  501 -0.00000000000E+00  0.00000000000E+00  0.36247899018E+02  0.36247899018E+02  0.00000000000E+00 0.  1.
          2   -1    0    0  501    0  0.00000000000E+00 -0.00000000000E+00 -0.47516493132E+03  0.47516493132E+03  0.00000000000E+00 0. -1.
         23    2    1    2    0    0  0.71644985786E+02  0.25695476846E+02 -0.16342063769E+03  0.19941930689E+03  0.85255460937E+02 0.  0.
         23    2    1    2    0    0 -0.71644985786E+02 -0.25695476846E+02 -0.27549639461E+03  0.31199352344E+03  0.12509369972E+03 0.  0.
          5    1    4    4  502    0 -0.44624917233E+02 -0.71951029333E+02 -0.11587919104E+03  0.14357504371E+03  0.41800000000E+01 0.  1.
         -5    1    4    4    0  502 -0.27020068554E+02  0.46255552487E+02 -0.15961720357E+03  0.16841847973E+03  0.41800000000E+01 0.  1.
        -11    1    3    3    0    0 -0.14959547252E+02  0.67697605194E+01 -0.64642479274E+02  0.66695335955E+02  0.00000000000E+00 0.  1.
         11    1    3    3    0    0  0.86604533038E+02  0.18925716327E+02 -0.98778158416E+02  0.13272397094E+03  0.00000000000E+00 0. -1.
</event>
<event>
 8    1  0.5900800E-006  0.1147209E+03  0.7561462E-02  0.1252069E+00
          3   -1    0    0  501    0  0.00000000000E+00  0.00000000000E+00  0.10366596885E+03  0.10366596885E+03  0.00000000000E+00 0. -1.
         -3   -1    0    0    0  501 -0.00000000000E+00 -0.00000000000E+00 -0.28550510554E+03  0.28550510554E+03  0.00000000000E+00 0.  1.
         23    2    1    2    0    0 -0.75381978033E+02 -0.32332685419E+02 -0.21219107149E+03  0.24514847403E+03  0.91350305643E+02 0.  0.
         23    2    1    2    0    0  0.75381978033E+02  0.32332685419E+02  0.30351934809E+02  0.14402260035E+03  0.11442650177E+03 0.  0.
          5    1    4    4  502    0  0.88374699641E+02  0.30968569144E+02  0.60041572809E+02  0.11131757578E+03  0.41800000000E+01 0. -1.
         -5    1    4    4    0  502 -0.12992721609E+02  0.13641162754E+01 -0.29689638000E+02  0.32705024577E+02  0.41800000000E+01 0.  1.
        -11    1    3    3    0    0 -0.15319909434E+02 -0.55528271850E+02 -0.11406933875E+03  0.12778850748E+03  0.00000000000E+00 0.  1.
         11    1    3    3    0    0 -0.60062068599E+02  0.23195586431E+02 -0.98121732741E+02  0.11735996656E+03  0.00000000000E+00 0. -1.
</event>
<event>
 8    1  0.5900800E-006  0.1128225E+03  0.7561462E-02  0.1255431E+00
         -3   -1    0    0    0  501 -0.00000000000E+00  0.00000000000E+00  0.22895773763E+02  0.22895773763E+02  0.00000000000E+00 0.  1.
          3   -1    0    0  501    0  0.00000000000E+00 -0.00000000000E+00 -0.71965033488E+03  0.71965033488E+03  0.00000000000E+00 0. -1.
         23    2    1    2    0    0 -0.65799461320E+01 -0.63424894803E+02 -0.22368171918E+03  0.24907762619E+03  0.89107459852E+02 0.  0.
         23    2    1    2    0    0  0.65799461320E+01  0.63424894803E+02 -0.47307284194E+03  0.49346848246E+03  0.12508883414E+03 0.  0.
          5    1    4    4  502    0 -0.60535230081E+01 -0.28038652469E+02 -0.33575486667E+02  0.44357602257E+02  0.41800000000E+01 0. -1.
         -5    1    4    4    0  502  0.12633469140E+02  0.91463547272E+02 -0.43949735527E+03  0.44911088020E+03  0.41800000000E+01 0. -1.
        -11    1    3    3    0    0 -0.66288298064E+01 -0.83696810222E+02 -0.20493329122E+03  0.22146501140E+03  0.00000000000E+00 0. -1.
         11    1    3    3    0    0  0.48883674356E-01  0.20271915419E+02 -0.18748427964E+02  0.27612614789E+02  0.00000000000E+00 0.  1.
</event>
<event>
 8    1  0.5900800E-006  0.1140934E+03  0.7561462E-02  0.1253172E+00
         -1   -1    0    0    0  501 -0.00000000000E+00  0.00000000000E+00  0.22183380155E+03  0.22183380155E+03  0.00000000000E+00 0.  1.
          1   -1    0    0  501    0  0.00000000000E+00 -0.00000000000E+00 -0.68878540010E+02  0.68878540010E+02  0.00000000000E+00 0. -1.
         23    2    1    2    0    0  0.47379456350E+02  0.34411701729E+02  0.78074580518E+02  0.13360166977E+03  0.91240275873E+02 0.  0.
         23    2    1    2    0    0 -0.47379456350E+02 -0.34411701729E+02  0.74880681024E+02  0.15711067180E+03  0.12509064194E+03 0.  0.
          5    1    4    4  502    0 -0.21061938577E+02  0.46692347607E+02  0.17678916518E+02  0.54348846086E+02  0.41800000000E+01 0. -1.
         -5    1    4    4    0  502 -0.26317517773E+02 -0.81104049336E+02  0.57201764507E+02  0.10276182571E+03  0.41800000000E+01 0. -1.
        -11    1    3    3    0    0 -0.12610869787E+02  0.28472960776E+02  0.64770275263E+02  0.71867461968E+02  0.00000000000E+00 0.  1.
         11    1    3    3    0    0  0.59990326137E+02  0.59387409526E+01  0.13304305255E+02  0.61734207798E+02  0.00000000000E+00 0. -1.
</event>
<event>
 8    1  0.5900800E-006  0.1067252E+03  0.7561462E-02  0.1266757E+00
         -2   -1    0    0    0  501 -0.00000000000E+00  0.00000000000E+00  0.13807232636E+03  0.13807232636E+03  0.00000000000E+00 0.  1.
          2   -1    0    0  501    0  0.00000000000E+00 -0.00000000000E+00 -0.20505342898E+03  0.20505342898E+03  0.00000000000E+00 0. -1.
         23    2    1    2    0    0  0.15594542368E+02  0.56288255436E+02  0.83264359689E+02  0.13908173319E+03  0.94864205374E+02 0.  0.
         23    2    1    2    0    0 -0.15594542368E+02 -0.56288255436E+02 -0.15024546231E+03  0.20404402214E+03  0.12509479037E+03 0.  0.
          5    1    4    4  502    0  0.21556254477E+02  0.11852405572E+02  0.92558690363E+01  0.26613814769E+02  0.41800000000E+01 0.  1.
         -5    1    4    4    0  502 -0.37150796845E+02 -0.68140661009E+02 -0.15950133134E+03  0.17743020737E+03  0.41800000000E+01 0.  1.
        -11    1    3    3    0    0 -0.39890851325E+02  0.22120540912E+02  0.41628720626E+02  0.61753936964E+02  0.00000000000E+00 0.  1.
         11    1    3    3    0    0  0.55485393693E+02  0.34167714524E+02  0.41635639063E+02  0.77327796226E+02  0.00000000000E+00 0. -1.
</event>
<event>
 8    1  0.5900800E-006  0.1075552E+03  0.7561462E-02  0.1265165E+00
          1   -1    0    0  501    0  0.00000000000E+00  0.00000000000E+00  0.58671482560E+03  0.58671482560E+03  0.00000000000E+00 0. -1.
         -1   -1    0    0    0  501 -0.00000000000E+00 -0.00000000000E+00 -0.23989505306E+02  0.23989505306E+02  0.00000000000E+00 0.  1.
         23    2    1    2    0    0 -0.29726888213E+02  0.25426477402E+02  0.15673646084E+03  0.18408577127E+03  0.88266977938E+02 0.  0.
         23    2    1    2    0    0  0.29726888213E+02 -0.25426477402E+02  0.40598885946E+03  0.42661855963E+03  0.12508496226E+03 0.  0.
          5    1    4    4  502    0 -0.39841284667E+02 -0.29465937479E+02  0.26103727196E+03  0.26573200633E+03  0.41800000000E+01 0. -1.
         -5    1    4    4    0  502  0.69568172881E+02  0.40394600763E+01  0.14495158750E+03  0.16088655330E+03  0.41800000000E+01 0. -1.
        -11    1    3    3    0    0 -0.57998227136E+02  0.32423181884E+02  0.12039896097E+03  0.13751715121E+03  0.00000000000E+00 0. -1.
         11    1    3    3    0    0  0.28271338923E+02 -0.69967044817E+01  0.36337499865E+02  0.46568620063E+02  0.00000000000E+00 0.  1.
</event>
<event>
 8    1  0.5900800E-006  0.1028703E+03  0.7561462E-02  0.1274373E+00
         -1   -1    0    0    0  501 -0.00000000000E+00  0.00000000000E+00  0.10576294710E+04  0.10576294710E+04  0.00000000000E+00 0.  1.
          1   -1    0    0  501    0  0.00000000000E+00 -0.00000000000E+00 -0.15280047710E+02  0.15280047710E+02  0.00000000000E+00 0. -1.
         23    2    1    2    0    0  0.67559045564E+02  0.30515664232E+01  0.54454725460E+03  0.55623972368E+03  0.91089961057E+02 0.  0.
         23    2    1    2    0    0 -0.67559045564E+02 -0.30515664232E+01  0.49780216868E+03  0.51666979502E+03  0.12069441269E+03 0.  0.
          5    1    4    4  502    0  0.50350821258E+01  0.16116446176E+02  0.49097146152E+01  0.18074003070E+02  0.41800000000E+01 0. -1.
         -5    1    4    4    0  502 -0.72594127690E+02 -0.19168012599E+02  0.49289245406E+03  0.49859579195E+03  0.41800000000E+01 0.  1.
        -11    1    3    3    0    0  0.12191666557E+02  0.43115234466E+02  0.19609497871E+03  0.20114870333E+03  0.00000000000E+00 0.  1.
         11    1    3    3    0    0  0.55367379007E+02 -0.40063668043E+02  0.34845227589E+03  0.35509102035E+03  0.00000000000E+00 0. -1.
</event>
<event>
 8    1  0.5900800E-006  0.1786989E+03  0.7561462E-02  0.1169068E+00
         -2   -1    0    0    0  501 -0.00000000000E+00  0.00000000000E+00  0.54420070216E+02  0.54420070216E+02  0.00000000000E+00 0.  1.
          2   -1    0    0  501    0  0.00000000000E+00 -0.00000000000E+00 -0.11408037505E+04  0.11408037505E+04  0.00000000000E+00 0. -1.
         23    2    1    2    0    0  0.15497357965E+03  0.28530987929E+02 -0.16030501785E+03  0.24754221611E+03  0.10367556292E+03 0.  0.
         23    2    1    2    0    0 -0.15497357965E+03 -0.28530987929E+02 -0.92607866242E+03  0.94768160459E+03  0.12509159458E+03 0.  0.
          5    1    4    4  502    0 -0.11592354141E+03 -0.49938175930E+02 -0.39444262556E+03  0.41416729244E+03  0.41800000000E+01 0. -1.
         -5    1    4    4    0  502 -0.39050038240E+02  0.21407188001E+02 -0.53163603686E+03  0.53351431215E+03  0.41800000000E+01 0. -1.
        -11    1    3    3    0    0  0.14878788859E+03 -0.83111793149E+01 -0.11168262488E+03  0.18622545527E+03  0.00000000000E+00 0. -1.
         11    1    3    3    0    0  0.61856910647E+01  0.36842167244E+02 -0.48622392974E+02  0.61316760838E+02  0.00000000000E+00 0.  1.
</event>
<event>
 8    1  0.5900800E-006  0.1073490E+03  0.7561462E-02  0.1265559E+00
          1   -1    0    0  501    0  0.00000000000E+00  0.00000000000E+00  0.22346230266E+03  0.22346230266E+03  0.00000000000E+00 0. -1.
         -1   -1    0    0    0  501 -0.00000000000E+00 -0.00000000000E+00 -0.83803711263E+02  0.83803711263E+02  0.00000000000E+00 0.  1.
         23    2    1    2    0    0 -0.21080319805E+02 -0.64375540554E+02  0.22344663749E+01  0.10947761336E+03  0.85975373691E+02 0.  0.
         23    2    1    2    0    0  0.21080319805E+02  0.64375540554E+02  0.13742412503E+03  0.19778840057E+03  0.12508505569E+03 0.  0.
          5    1    4    4  502    0  0.61232196624E+02  0.73944161446E+02  0.71031284029E+02  0.11949910722E+03  0.41800000000E+01 0. -1.
         -5    1    4    4    0  502 -0.40151876819E+02 -0.95686208921E+01  0.66392840997E+02  0.78289293351E+02  0.41800000000E+01 0. -1.
        -11    1    3    3    0    0  0.55587111380E+01 -0.41879703925E+02 -0.37588157163E+02  0.56548018792E+02  0.00000000000E+00 0. -1.
         11    1    3    3    0    0 -0.26639030943E+02 -0.22495836629E+02  0.39822623538E+02  0.52929594564E+02  0.00000000000E+00 0.  1.
</event>
<event>
 8    1  0.5900800E-006  0.8969223E+02  0.7561462E-02  0.1303599E+00
          2   -1    0    0  501    0  0.00000000000E+00  0.00000000000E+00  0.44952861928E+03  0.44952861928E+03  0.00000000000E+00 0. -1.
         -2   -1    0    0    0  501 -0.00000000000E+00 -0.00000000000E+00 -0.36716798179E+02  0.36716798179E+02  0.00000000000E+00 0.  1.
         23    2    1    2    0    0 -0.71051252821E+01 -0.31966445156E+02  0.69474243387E+02  0.11936524450E+03  0.91373161704E+02 0.  0.
         23    2    1    2    0    0  0.71051252821E+01  0.31966445156E+02  0.34333757771E+03  0.36688017295E+03  0.12509209654E+03 0.  0.
          5    1    4    4  502    0  0.31717659139E+02  0.54241134507E+02  0.81903679692E+02  0.10331406352E+03  0.41800000000E+01 0.  1.
         -5    1    4    4    0  502 -0.24612533856E+02 -0.22274689351E+02  0.26143389802E+03  0.26356610943E+03  0.41800000000E+01 0.  1.
        -11    1    3    3    0    0  0.94365664196E+01  0.23367217796E+02 -0.44136754284E+01  0.25584295654E+02  0.00000000000E+00 0.  1.
         11    1    3    3    0    0 -0.16541691702E+02 -0.55333662952E+02  0.73887918815E+02  0.93780948848E+02  0.00000000000E+00 0. -1.
</event>
<event>
 7    1  0.5900800E-006  0.9570125E+02  0.7561462E-02  0.1289604E+00
          2   -1    0    0  501    0  0.00000000000E+00  0.00000000000E+00  0.78733210435E+03  0.78733210435E+03  0.00000000000E+00 0. -1.
         -2   -1    0    0    0  501 -0.00000000000E+00 -0.00000000000E+00 -0.71952635104E+02  0.71952635104E+02  0.00000000000E+00 0.  1.
         23    2    1    2    0    0 -0.33261804888E+02  0.14301539428E+02  0.61624055512E+01  0.99468591246E+02  0.92439946494E+02 0.  0.
          5    1    1    2  502    0 -0.23886194100E+02  0.17898406103E+02  0.69093592631E+03  0.69159296546E+03  0.41800000000E+01 0. -1.
         -5    1    1    2    0  502  0.57147998989E+02 -0.32199945531E+02  0.18281137390E+02  0.68223182752E+02  0.41800000000E+01 0.  1.
        -11    1    3    3    0    0 -0.50740381602E+02 -0.21953998026E+02 -0.98404448362E+01  0.56155130745E+02  0.00000000000E+00 0.  1.
         11    1    3    3    0    0  0.17478576714E+02  0.36255537454E+02  0.16002850387E+02  0.43313460500E+02  0.00000000000E+00 0. -1.
</event>
<event>
 8    1  0.5900800E-006  0.1656205E+03  0.7561462E-02  0.1182494E+00
         -2   -1    0    0    0  501 -0.00000000000E+00  0.00000000000E+00  0.29384543641E+02  0.29384543641E+02  0.00000000000E+00 0.  1.
          2   -1    0    0  501    0  0.00000000000E+00 -0.00000000000E+00 -0.10593595014E+04  0.10593595014E+04  0.00000000000E+00 0. -1.
         23    2    1    2    0    0 -0.13159962682E+03  0.24017458460E+02 -0.37584533798E+03  0.40945907169E+03  0.92204735330E+02 0.  0.
         23    2    1    2    0    0  0.13159962682E+03 -0.24017458460E+02 -0.65412961981E+03  0.67928497338E+03  0.12508883027E+03 0.  0.
          5    1    4    4  502    0 -0.28091543429E+00 -0.38948340025E+02 -0.27054351958E+03  0.27336481210E+03  0.41800000000E+01 0. -1.
         -5    1    4    4    0  502  0.13188054226E+03  0.14930881565E+02 -0.38358610022E+03  0.40592016128E+03  0.41800000000E+01 0. -1.
        -11    1    3    3    0    0 -0.72692556628E+02 -0.30672277297E+02 -0.14585824737E+03  0.16583010797E+03  0.00000000000E+00 0.  1.
         11    1    3    3    0    0 -0.58907070196E+02  0.54689735757E+02 -0.22998709060E+03  0.24362896371E+03  0.00000000000E+00 0. -1.
</event>
<event>
 7    1  0.5900800E-006  0.1756030E+03  0.7561462E-02  0.1172128E+00
         -1   -1    0    0    0  501 -0.00000000000E+00  0.00000000000E+00  0.36867344277E+03  0.36867344277E+03  0.00000000000E+00 0.  1.
          1   -1    0    0  501    0  0.00000000000E+00 -0.00000000000E+00 -0.31040236787E+03  0.31040236787E+03  0.00000000000E+00 0. -1.
         23    2    1    2    0    0 -0.59308374907E+02 -0.11562445972E+03  0.30134640190E+03  0.34056252091E+03  0.91031190759E+02 0.  0.
          5    1    1    2  502    0  0.10871930745E+03  0.76295257465E+02 -0.24097733032E+03  0.27518793624E+03  0.41800000000E+01 0. -1.
         -5    1    1    2    0  502 -0.49410932538E+02  0.39329202259E+02 -0.20979966715E+01  0.63325353491E+02  0.41800000000E+01 0.  1.
        -11    1    3    3    0    0 -0.76643881559E+01 -0.10109046345E+03  0.16042608009E+03  0.18977500315E+03  0.00000000000E+00 0.  1.
         11    1    3    3    0    0 -0.51643986752E+02 -0.14533996278E+02  0.14092032180E+03  0.15078751776E+03  0.00000000000E+00 0. -1.
</event>
<event>
 8    1  0.5900800E-006  0.1888454E+03  0.7561462E-02  0.1159507E+00
         -4   -1    0    0    0  501 -0.00000000000E+00  0.00000000000E+00  0.44206858480E+02  0.44206858480E+02  0.00000000000E+00 0.  1.
          4   -1    0    0  501    0  0.00000000000E+00 -0.00000000000E+00 -0.90479324076E+03  0.90479324076E+03  0.00000000000E+00 0. -1.
         23    2    1    2    0    0 -0.55353227251E+02 -0.15821104401E+03 -0.40224235629E+03  0.44519358575E+03  0.91124647523E+02 0.  0.
         23    2    1    2    0    0  0.55353227251E+02  0.15821104401E+03 -0.45834402599E+03  0.50380651349E+03  0.12508813956E+03 0.  0.
          5    1    4    4  502    0  0.60463320362E+02  0.16742640328E+03 -0.33008928963E+03  0.37505176330E+03  0.41800000000E+01 0. -1.
         -5    1    4    4    0  502 -0.51100931107E+01 -0.92153592670E+01 -0.12825473636E+03  0.12875475019E+03  0.41800000000E+01 0. -1.
        -11    1    3    3    0    0 -0.41993100440E+01 -0.12963190078E+03 -0.24185152763E+03  0.27443437343E+03  0.00000000000E+00 0.  1.
         11    1    3    3    0    0 -0.51153917207E+02 -0.28579143233E+02 -0.16039082866E+03  0.17075921232E+03  0.00000000000E+00 0. -1.
</event>
<event>
 8    1  0.5900800E-006  0.2013334E+03  0.7561462E-02  0.1148619E+00
          1   -1    0    0  501    0  0.00000000000E+00  0.00000000000E+00  0.19136674888E+03  0.19136674888E+03  0.00000000000E+00 0. -1.
         -1   -1    0    0    0  501 -0.00000000000E+00 -0.00000000000E+00 -0.24094037677E+03  0.24094037677E+03  0.00000000000E+00 0.  1.
         23    2    1    2    0    0  0.15652323337E+03 -0.88584119210E+02 -0.66651054159E+02  0.21253972104E+03  0.91564737977E+02 0.  0.
         23    2    1    2    0    0 -0.15652323337E+03  0.88584119210E+02  0.17077426271E+02  0.21976740460E+03  0.12513754384E+03 0.  0.
          5    1    4    4  502    0 -0.11716181086E+03  0.46854243357E+01  0.40439673287E+02  0.12410351607E+03  0.41800000000E+01 0.  1.
         -5    1    4    4    0  502 -0.39361422502E+02  0.83898694875E+02 -0.23362247016E+02  0.95663888530E+02  0.41800000000E+01 0.  1.
        -11    1    3    3    0    0  0.19804233817E+02  0.11711073640E+02  0.11630061932E+02  0.25780133115E+02  0.00000000000E+00 0. -1.
         11    1    3    3    0    0  0.13671899955E+03 -0.10029519285E+03 -0.78281116091E+02  0.18675958793E+03  0.00000000000E+00 0.  1.
</event>
<event>
 8    1  0.5900800E-006  0.1181871E+03  0.7561462E-02  0.1246118E+00
          1   -1    0    0  501    0  0.00000000000E+00  0.00000000000E+00  0.30535622899E+03  0.30535622899E+03  0.00000000000E+00 0. -1.
         -1   -1    0    0    0  501 -0.00000000000E+00 -0.00000000000E+00 -0.72938841674E+02  0.72938841674E+02  0.00000000000E+00 0.  1.
         23    2    1    2    0    0 -0.28958228429E+02  0.83658370226E+02  0.43967903120E+02  0.13539615200E+03  0.92529128216E+02 0.  0.
         23    2    1    2    0    0  0.28958228429E+02 -0.83658370226E+02  0.18844948419E+03  0.24289891866E+03  0.12509746078E+03 0.  0.
          5    1    4    4  502    0 -0.39206780218E+02 -0.59823569100E+02  0.13543245759E+03  0.15321701604E+03  0.41800000000E+01 0.  1.
         -5    1    4    4    0  502  0.68165008648E+02 -0.23834801125E+02  0.53017026604E+02  0.89681902626E+02  0.41800000000E+01 0.  1.
        -11    1    3    3    0    0 -0.21338507278E+02  0.23454458491E+02 -0.27264988596E+02  0.41818932544E+02  0.00000000000E+00 0.  1.
         11    1    3    3    0    0 -0.76197211514E+01  0.60203911734E+02  0.71232891716E+02  0.93577219454E+02  0.00000000000E+00 0. -1.
</event>
<event>
 8    1  0.5900800E-006  0.1861043E+03  0.7561462E-02  0.1162023E+00
          1   -1    0    0  501    0  0.00000000000E+00  0.00000000000E+00  0.33866169044E+02  0.33866169044E+02  0.00000000000E+00 0. -1.
         -1   -1    0    0    0  501 -0.00000000000E+00 -0.00000000000E+00 -0.11583598825E+04  0.11583598825E+04  0.00000000000E+00 0.  1.
         23    2    1    2    0    0  0.15615021475E+03  0.50777396843E+02 -0.46116605373E+03  0.49752197482E+03  0.88841165674E+02 0.  0.
         23    2    1    2    0    0 -0.15615021475E+03 -0.50777396843E+02 -0.66332765972E+03  0.69470407672E+03  0.12509570920E+03 0.  0.
          5    1    4    4  502    0 -0.21400107883E+02 -0.45671759196E+02 -0.70905785013E+02  0.87114734424E+02  0.41800000000E+01 0.  1.
         -5    1    4    4    0  502 -0.13475010687E+03 -0.51056376466E+01 -0.59242187470E+03  0.60758934229E+03  0.41800000000E+01 0.  1.
        -11    1    3    3    0    0 -0.47878068421E+01 -0.12784910413E+02 -0.34675770242E+02  0.37266420146E+02  0.00000000000E+00 0. -1.
         11    1    3    3    0    0  0.16093802160E+03  0.63562307256E+02 -0.42649028349E+03  0.46025555467E+03  0.00000000000E+00 0.  1.
</event>
<event>
 8    1  0.5900800E-006  0.1362847E+03  0.7561462E-02  0.1218417E+00
          2   -1    0    0  501    0  0.00000000000E+00  0.00000000000E+00  0.56550854261E+03  0.56550854261E+03  0.00000000000E+00 0. -1.
         -2   -1    0    0    0  501 -0.00000000000E+00 -0.00000000000E+00 -0.56977330419E+02  0.56977330419E+02  0.00000000000E+00 0.  1.
         23    2    1    2    0    0 -0.90381820936E+02 -0.41097039788E+02  0.61505430116E+02  0.14778704900E+03  0.90555252107E+02 0.  0.
         23    2    1    2    0    0  0.90381820936E+02  0.41097039788E+02  0.44702578207E+03  0.47469882402E+03  0.12509629673E+03 0.  0.
          5    1    4    4  502    0  0.12191429465E+03  0.35499376719E+02  0.36872901753E+03  0.39000238686E+03  0.41800000000E+01 0.  1.
         -5    1    4    4    0  502 -0.31532473714E+02  0.55976630692E+01  0.78296764543E+02  0.84696437164E+02  0.41800000000E+01 0.  1.
        -11    1    3    3    0    0 -0.14688545067E+02 -0.34197838777E+02 -0.14829789453E+02  0.40064550271E+02  0.00000000000E+00 0.  1.
         11    1    3    3    0    0 -0.75693275870E+02 -0.68992010115E+01  0.76335219569E+02  0.10772249873E+03  0.00000000000E+00 0. -1.
</event>
<event>
 8    1  0.5900800E-006  0.1113147E+03  0.7561462E-02  0.1258154E+00
          1   -1    0    0  501    0  0.00000000000E+00  0.00000000000E+00  0.42019116028E+03  0.42019116028E+03  0.00000000000E+00 0. -1.
         -1   -1    0    0    0  501 -0.00000000000E+00 -0.00000000000E+00 -0.33761556842E+02  0.33761556842E+02  0.00000000000E+00 0.  1.
         23    2    1    2    0    0  0.25495052746E+02 -0.14313311360E+02  0.10413458025E+03  0.14380318936E+03  0.94765383294E+02 0.  0.
         23    2    1    2    0    0 -0.25495052746E+02  0.14313311360E+02  0.28229502319E+03  0.31014952776E+03  0.12508949139E+03 0.  0.
          5    1    4    4  502    0 -0.46430599580E+02  0.60713729142E+02  0.18628483981E+03  0.20139878705E+03  0.41800000000E+01 0.  1.
         -5    1    4    4    0  502  0.20935546834E+02 -0.46400417782E+02  0.96010183381E+02  0.10875074071E+03  0.41800000000E+01 0.  1.
        -11    1    3    3    0    0  0.17450884100E+02  0.38138477586E+02  0.66965517357E+02  0.79015551275E+02  0.00000000000E+00 0. -1.
         11    1    3    3    0    0  0.80441686454E+01 -0.52451788946E+02  0.37169062894E+02  0.64787638089E+02  0.00000000000E+00 0.  1.
</event>
<event>
 8    1  0.5900800E-006  0.1083110E+03  0.7561462E-02  0.1263730E+00
         -2   -1    0    0    0  501 -0.00000000000E+00  0.00000000000E+00  0.25547415604E+02  0.25547415604E+02  0.00000000000E+00 0. -1.
          2   -1    0    0  501    0  0.00000000000E+00 -0.00000000000E+00 -0.88582116113E+03  0.88582116113E+03  0.00000000000E+00 0.  1.
         23    2    1    2    0    0 -0.11741801775E+01 -0.69554733415E+02 -0.15838639161E+03  0.19503559870E+03  0.90074391881E+02 0.  0.
         23    2    1    2    0    0  0.11741801775E+01  0.69554733415E+02 -0.70188735391E+03  0.71633297803E+03  0.12509131943E+03 0.  0.
          5    1    4    4  502    0  0.25127585142E+02  0.77217322799E+02 -0.23349718499E+03  0.24724950611E+03  0.41800000000E+01 0.  1.
         -5    1    4    4    0  502 -0.23953404965E+02 -0.76625893840E+01 -0.46839016893E+03  0.46908347193E+03  0.41800000000E+01 0.  1.
        -11    1    3    3    0    0  0.36219162029E+02 -0.61795476675E+02 -0.77172289159E+02  0.10529041195E+03  0.00000000000E+00 0. -1.
         11    1    3    3    0    0 -0.37393342206E+02 -0.77592567395E+01 -0.81214102455E+02  0.89745186746E+02  0.00000000000E+00 0.  1.
</event>
<event>
 8    1  0.5900800E-006  0.1094445E+03  0.7561462E-02  0.1261602E+00
         -2   -1    0    0    0  501 -0.00000000000E+00  0.00000000000E+00  0.89682065745E+02  0.89682065745E+02  0.00000000000E+00 0.  1.
          2   -1    0    0  501    0  0.00000000000E+00 -0.00000000000E+00 -0.19621892442E+03  0.19621892442E+03  0.00000000000E+00 0. -1.
         23    2    1    2    0    0 -0.50806938035E+02 -0.77632012983E+01  0.97889511165E+01  0.10751630570E+03  0.93927206814E+02 0.  0.
         23    2    1    2    0    0  0.50806938035E+02  0.77632012983E+01 -0.11632580979E+03  0.17838468447E+03  0.12509112431E+03 0.  0.
          5    1    4    4  502    0  0.90559551190E+02  0.20954066751E+02 -0.76881856080E+02  0.12069961648E+03  0.41800000000E+01 0. -1.
         -5    1    4    4    0  502 -0.39752613154E+02 -0.13190865452E+02 -0.39443953712E+02  0.57685067985E+02  0.41800000000E+01 0. -1.
        -11    1    3    3    0    0  0.19100822919E+01  0.22756559104E+02 -0.27769807956E+02  0.35953742927E+02  0.00000000000E+00 0. -1.
         11    1    3    3    0    0 -0.52717020327E+02 -0.30519760402E+02  0.37558759072E+02  0.71562562770E+02  0.00000000000E+00 0.  1.
</event>
<event>
 8    1  0.5900800E-006  0.1031953E+03  0.7561462E-02  0.1273717E+00
          4   -1    0    0  501    0  0.00000000000E+00  0.00000000000E+00  0.13791101183E+03  0.13791101183E+03  0.00000000000E+00 0. -1.
         -4   -1    0    0    0  501 -0.00000000000E+00 -0.00000000000E+00 -0.11114777310E+03  0.11114777310E+03  0.00000000000E+00 0.  1.
         23    2    1    2    0    0 -0.46978950227E+02 -0.18020565602E+02 -0.20660866061E+02  0.10612705189E+03  0.91128026460E+02 0.  0.
         23    2    1    2    0    0  0.46978950227E+02  0.18020565602E+02  0.47424104789E+02  0.14293173304E+03  0.12509465235E+03 0.  0.
          5    1    4    4  502    0  0.33291154817E+02 -0.35994993048E+02 -0.21924768341E+02  0.53871220335E+02  0.41800000000E+01 0.  1.
         -5    1    4    4    0  502  0.13687795411E+02  0.54015558650E+02  0.69348873130E+02  0.89060512708E+02  0.41800000000E+01 0.  1.
        -11    1    3    3    0    0 -0.16624585935E+01  0.33012332761E+02 -0.18422309090E+02  0.37841238816E+02  0.00000000000E+00 0. -1.
         11    1    3    3    0    0 -0.45316491634E+02 -0.51032898363E+02 -0.22385569711E+01  0.68285813070E+02  0.00000000000E+00 0.  1.
</event>
<event>
 8    1  0.5900800E-006  0.1018845E+03  0.7561462E-02  0.1276382E+00
          1   -1    0    0  501    0  0.00000000000E+00  0.00000000000E+00  0.62665706375E+02  0.62665706375E+02  0.00000000000E+00 0. -1.
         -1   -1    0    0    0  501 -0.00000000000E+00 -0.00000000000E+00 -0.22996324278E+03  0.22996324278E+03  0.00000000000E+00 0.  1.
         23    2    1    2    0    0  0.82590906235E+01  0.36251178876E+02 -0.11794387536E+03  0.15310584629E+03  0.90267834159E+02 0.  0.
         23    2    1    2    0    0 -0.82590906235E+01 -0.36251178876E+02 -0.49353661045E+02  0.13952310287E+03  0.12509417184E+03 0.  0.
          5    1    4    4  502    0  0.11515810746E+02 -0.76615607792E+02 -0.53416590850E+02  0.94198565979E+02  0.41800000000E+01 0.  1.
         -5    1    4    4    0  502 -0.19774901369E+02  0.40364428915E+02  0.40629298051E+01  0.45324536892E+02  0.41800000000E+01 0.  1.
        -11    1    3    3    0    0 -0.30631245173E+02  0.47651705347E+01 -0.75572999474E+01  0.31907566713E+02  0.00000000000E+00 0. -1.
         11    1    3    3    0    0  0.38890335796E+02  0.31486008342E+02 -0.11038657542E+03  0.12119827957E+03  0.00000000000E+00 0.  1.
</event>
<event>
 8    1  0.5900800E-006  0.1809490E+03  0.7561462E-02  0.1166888E+00
          4   -1    0    0  501    0  0.00000000000E+00  0.00000000000E+00  0.76184644353E+03  0.76184644353E+03  0.00000000000E+00 0. -1.
         -4   -1    0    0    0  501 -0.00000000000E+00 -0.00000000000E+00 -0.53341417272E+02  0.53341417272E+02  0.00000000000E+00 0.  1.
         23    2    1    2    0    0 -0.11906979675E+03  0.11025214230E+03  0.24729011034E+03  0.31050955255E+03  0.94502022048E+02 0.  0.
         23    2    1    2    0    0  0.11906979675E+03 -0.11025214230E+03  0.46121491591E+03  0.50467830825E+03  0.12509134573E+03 0.  0.
          5    1    4    4  502    0  0.28837753150E+02  0.17249476895E+02  0.27331905237E+02  0.43516271713E+02  0.41800000000E+01 0. -1.
         -5    1    4    4    0  502  0.90232043602E+02 -0.12750161919E+03  0.43388301068E+03  0.46116203654E+03  0.41800000000E+01 0. -1.
        -11    1    3    3    0    0 -0.11533551425E+03  0.77820695195E+02  0.23944621517E+03  0.27693470604E+03  0.00000000000E+00 0. -1.
         11    1    3    3    0    0 -0.37342825000E+01  0.32431447103E+02  0.78438951763E+01  0.33574846516E+02  0.00000000000E+00 0.  1.
</event>
<event>
 8    1  0.5900800E-006  0.1058567E+03  0.7561462E-02  0.1268441E+00
         -1   -1    0    0    0  501 -0.00000000000E+00  0.00000000000E+00  0.18704622207E+03  0.18704622207E+03  0.00000000000E+00 0.  1.
          1   -1    0    0  501    0  0.00000000000E+00 -0.00000000000E+00 -0.10336446357E+03  0.10336446357E+03  0.00000000000E+00 0. -1.
         23    2    1    2    0    0  0.50419038499E+02 -0.19757478700E+02  0.10751543626E+03  0.15203633139E+03  0.92860323164E+02 0.  0.
         23    2    1    2    0    0 -0.50419038499E+02  0.19757478700E+02 -0.23833677766E+02  0.13837435426E+03  0.12508789035E+03 0.  0.
          5    1    4    4  502    0 -0.69367555392E+02 -0.84846885376E+01  0.28691404349E+02  0.75660536372E+02  0.41800000000E+01 0.  1.
         -5    1    4    4    0  502  0.18948516893E+02  0.28242167238E+02 -0.52525082115E+02  0.62713817887E+02  0.41800000000E+01 0.  1.
        -11    1    3    3    0    0 -0.50459596346E+01  0.31508292349E+02  0.34241967901E+02  0.46805411665E+02  0.00000000000E+00 0.  1.
         11    1    3    3    0    0  0.55464998133E+02 -0.51265771049E+02  0.73273468363E+02  0.10523091972E+03  0.00000000000E+00 0. -1.
</event>
<event>
 8    1  0.5900800E-006  0.1433659E+03  0.7561462E-02  0.1208870E+00
          2   -1    0    0  501    0  0.00000000000E+00  0.00000000000E+00  0.13636039333E+04  0.13636039333E+04  0.00000000000E+00 0. -1.
         -2   -1    0    0    0  501 -0.00000000000E+00 -0.00000000000E+00 -0.26751094598E+02  0.26751094598E+02  0.00000000000E+00 0.  1.
         23    2    1    2    0    0  0.14818797837E+02  0.12470723690E+03  0.29438377464E+03  0.33292382844E+03  0.91678662013E+02 0.  0.
         23    2    1    2    0    0 -0.14818797837E+02 -0.12470723690E+03  0.10424690641E+04  0.10574311995E+04  0.12508996903E+03 0.  0.
          5    1    4    4  502    0  0.37456703141E+02 -0.22441548302E+02  0.11879658975E+03  0.12663621061E+03  0.41800000000E+01 0. -1.
         -5    1    4    4    0  502 -0.52275500978E+02 -0.10226568860E+03  0.92367247432E+03  0.93079498886E+03  0.41800000000E+01 0. -1.
        -11    1    3    3    0    0 -0.26770083047E+01  0.78262502983E+02  0.76552541025E+02  0.10951016977E+03  0.00000000000E+00 0.  1.
         11    1    3    3    0    0  0.17495806142E+02  0.46444733919E+02  0.21783123361E+03  0.22341365867E+03  0.00000000000E+00 0. -1.
</event>
<event>
 8    1  0.5900800E-006  0.7680770E+02  0.7561462E-02  0.1338363E+00
         -1   -1    0    0    0  501 -0.00000000000E+00  0.00000000000E+00  0.12554722252E+03  0.12554722252E+03  0.00000000000E+00 0.  1.
          1   -1    0    0  501    0  0.00000000000E+00 -0.00000000000E+00 -0.96572002906E+02  0.96572002906E+02  0.00000000000E+00 0. -1.
         23    2    1    2    0    0  0.13790881049E+02 -0.14181493292E+02  0.16496257014E+02  0.94859625038E+02  0.91295776544E+02 0.  0.
         23    2    1    2    0    0 -0.13790881049E+02  0.14181493292E+02  0.12478962597E+02  0.12725960038E+03  0.12509187915E+03 0.  0.
          5    1    4    4  502    0 -0.32662846743E+02 -0.79040594046E+01 -0.48751060385E+02  0.59358857815E+02  0.41800000000E+01 0.  1.
         -5    1    4    4    0  502  0.18871965693E+02  0.22085552697E+02  0.61230022982E+02  0.67900742569E+02  0.41800000000E+01 0.  1.
        -11    1    3    3    0    0  0.15145841953E+02 -0.51182015363E+02 -0.21190956192E+01  0.53418028710E+02  0.00000000000E+00 0. -1.
         11    1    3    3    0    0 -0.13549609043E+01  0.37000522071E+02  0.18615352633E+02  0.41441596328E+02  0.00000000000E+00 0.  1.
</event>
<event>
 8    1  0.5900800E-006  0.1777338E+03  0.7561462E-02  0.1170015E+00
          2   -1    0    0  501    0  0.00000000000E+00  0.00000000000E+00  0.18016847475E+04  0.18016847475E+04  0.00000000000E+00 0. -1.
         -2   -1    0    0    0  501 -0.00000000000E+00 -0.00000000000E+00 -0.31024186937E+02  0.31024186937E+02  0.00000000000E+00 0.  1.
         23    2    1    2    0    0  0.89264959363E+02 -0.14433166577E+03  0.37528363298E+03  0.42149981772E+03  0.89579174145E+02 0.  0.
         23    2    1    2    0    0 -0.89264959363E+02  0.14433166577E+03  0.13953769276E+04  0.14112091168E+04  0.12503814764E+03 0.  0.
          5    1    4    4  502    0 -0.80517003512E+02  0.15268732161E+03  0.13818154503E+04  0.13925616026E+04  0.41800000000E+01 0. -1.
         -5    1    4    4    0  502 -0.87479558505E+01 -0.83556558378E+01  0.13561477333E+02  0.18647514137E+02  0.41800000000E+01 0.  1.
        -11    1    3    3    0    0  0.54388633425E+02 -0.97010275065E+02  0.13901985821E+03  0.17803268770E+03  0.00000000000E+00 0.  1.
         11    1    3    3    0    0  0.34876325937E+02 -0.47321390703E+02  0.23626377477E+03  0.24346713002E+03  0.00000000000E+00 0. -1.
</event>
<event>
 8    1  0.5900800E-006  0.8942831E+02  0.7561462E-02  0.1304242E+00
         -1   -1    0    0    0  501 -0.00000000000E+00  0.00000000000E+00  0.33133029196E+02  0.33133029196E+02  0.00000000000E+00 0.  1.
          1   -1    0    0  501    0  0.00000000000E+00 -0.00000000000E+00 -0.42790171279E+03  0.42790171279E+03  0.00000000000E+00 0. -1.
         23    2    1    2    0    0  0.40921885733E+01  0.25519186776E+02 -0.91666624464E+02  0.13211901306E+03  0.91567945655E+02 0.  0.
         23    2    1    2    0    0 -0.40921885733E+01 -0.25519186776E+02 -0.30310205913E+03  0.32891572892E+03  0.12508686414E+03 0.  0.
          5    1    4    4  502    0 -0.25012342882E+02 -0.55489902537E+02 -0.69690329652E+02  0.92622680954E+02  0.41800000000E+01 0. -1.
         -5    1    4    4    0  502  0.20920154309E+02  0.29970715762E+02 -0.23341172948E+03  0.23629304797E+03  0.41800000000E+01 0. -1.
        -11    1    3    3    0    0 -0.22995520547E+02 -0.18404627311E+02 -0.70383265766E+02  0.76297630183E+02  0.00000000000E+00 0. -1.
         11    1    3    3    0    0  0.27087709120E+02  0.43923814087E+02 -0.21283358697E+02  0.55821382881E+02  0.00000000000E+00 0.  1.
</event>
<event>
 8    1  0.5900800E-006  0.1015295E+03  0.7561462E-02  0.1277112E+00
          1   -1    0    0  501    0  0.00000000000E+00  0.00000000000E+00  0.17661091484E+03  0.17661091484E+03  0.00000000000E+00 0. -1.
         -1   -1    0    0    0  501 -0.00000000000E+00 -0.00000000000E+00 -0.68238083133E+02  0.68238083133E+02  0.00000000000E+00 0.  1.
         23    2    1    2    0    0 -0.21144765710E+01  0.47422438122E+01  0.24554124335E+02  0.94187230393E+02  0.90781988630E+02 0.  0.
         23    2    1    2    0    0  0.21144765710E+01 -0.47422438122E+01  0.83818707376E+02  0.15066176758E+03  0.12508570109E+03 0.  0.
          5    1    4    4  502    0 -0.61254737658E+02 -0.45586829732E+01  0.37962715115E+02  0.72329555611E+02  0.41800000000E+01 0.  1.
         -5    1    4    4    0  502  0.63369214229E+02 -0.18356083895E+00  0.45855992261E+02  0.78332211974E+02  0.41800000000E+01 0.  1.
        -11    1    3    3    0    0  0.37452008245E+02  0.79598926915E+01  0.36328848201E+02  0.52780659572E+02  0.00000000000E+00 0. -1.
         11    1    3    3    0    0 -0.39566484816E+02 -0.32176488793E+01 -0.11774723866E+02  0.41406570821E+02  0.00000000000E+00 0.  1.
</event>
<event>
 8    1  0.5900800E-006  0.1055629E+03  0.7561462E-02  0.1269015E+00
          2   -1    0    0  501    0  0.00000000000E+00  0.00000000000E+00  0.60000847308E+02  0.60000847308E+02  0.00000000000E+00 0. -1.
         -2   -1    0    0    0  501 -0.00000000000E+00 -0.00000000000E+00 -0.30323093585E+03  0.30323093585E+03  0.00000000000E+00 0.  1.
         23    2    1    2    0    0  0.35724686503E+02  0.68527401000E+02 -0.13565225634E+03  0.18104304320E+03  0.91666738384E+02 0.  0.
         23    2    1    2    0    0 -0.35724686503E+02 -0.68527401000E+02 -0.10757783220E+03  0.18218873996E+03  0.12508992395E+03 0.  0.
          5    1    4    4  502    0  0.17848584997E+01 -0.48439462593E+02 -0.12642565905E+03  0.13546396910E+03  0.41800000000E+01 0. -1.
         -5    1    4    4    0  502 -0.37509545003E+02 -0.20087938406E+02  0.18847826849E+02  0.46724770868E+02  0.41800000000E+01 0. -1.
        -11    1    3    3    0    0 -0.19485994886E+01  0.80242432676E+02 -0.95505867006E+02  0.12475582421E+03  0.00000000000E+00 0.  1.
         11    1    3    3    0    0  0.37673285992E+02 -0.11715031676E+02 -0.40146389335E+02  0.56287218986E+02  0.00000000000E+00 0. -1.
</event>
<event>
 8    1  0.5900800E-006  0.1270872E+03  0.7561462E-02  0.1231843E+00
         -4   -1    0    0    0  501 -0.00000000000E+00  0.00000000000E+00  0.98943759452E+02  0.98943759452E+02  0.00000000000E+00 0.  1.
          4   -1    0    0  501    0  0.00000000000E+00 -0.00000000000E+00 -0.37031200430E+03  0.37031200430E+03  0.00000000000E+00 0. -1.
         23    2    1    2    0    0 -0.60294538389E+02  0.92233047193E+02  0.95815789095E+01  0.14255958760E+03  0.89939218403E+02 0.  0.
         23    2    1    2    0    0  0.60294538389E+02 -0.92233047193E+02 -0.28094982376E+03  0.32669617616E+03  0.12512082837E+03 0.  0.
          5    1    4    4  502    0  0.47557017950E+02 -0.10333159039E+03 -0.28661738158E+03  0.30839274206E+03  0.41800000000E+01 0. -1.
         -5    1    4    4    0  502  0.12737520438E+02  0.11098543200E+02  0.56675578244E+01  0.18303434098E+02  0.41800000000E+01 0. -1.
        -11    1    3    3    0    0 -0.61872493231E+02  0.47041332529E+02  0.40633666311E+02  0.87705115145E+02  0.00000000000E+00 0.  1.
         11    1    3    3    0    0  0.15779548420E+01  0.45191714664E+02 -0.31052087402E+02  0.54854472450E+02  0.00000000000E+00 0. -1.
</event>
<event>
 7    1  0.5900800E-006  0.1136569E+03  0.7561462E-02  0.1253944E+00
         -2   -1    0    0    0  501 -0.00000000000E+00  0.00000000000E+00  0.14095569167E+02  0.14095569167E+02  0.00000000000E+00 0.  1.
          2   -1    0    0  501    0  0.00000000000E+00 -0.00000000000E+00 -0.13605968941E+04  0.13605968941E+04  0.00000000000E+00 0. -1.
         23    2    1    2    0    0 -0.12631822728E+02  0.22307623196E+02 -0.22997837003E+03  0.24889875312E+03  0.91669763973E+02 0.  0.
          5    1    1    2  502    0 -0.11161183997E+02 -0.74127212239E+02 -0.84429556130E+03  0.84762720748E+03  0.41800000000E+01 0. -1.
         -5    1    1    2    0  502  0.23793006725E+02  0.51819589043E+02 -0.27222739357E+03  0.27816650263E+03  0.41800000000E+01 0.  1.
        -11    1    3    3    0    0 -0.34526684014E+01  0.58053039654E+02 -0.14686783007E+03  0.15796276726E+03  0.00000000000E+00 0.  1.
         11    1    3    3    0    0 -0.91791543264E+01 -0.35745416458E+02 -0.83110539956E+02  0.90935985857E+02  0.00000000000E+00 0. -1.
</event>
<event>
 8    1  0.5900800E-006  0.1473578E+03  0.7561462E-02  0.1203758E+00
         -1   -1    0    0    0  501 -0.00000000000E+00  0.00000000000E+00  0.48596185263E+02  0.48596185263E+02  0.00000000000E+00 0.  1.
          1   -1    0    0  501    0  0.00000000000E+00 -0.00000000000E+00 -0.81639967155E+03  0.81639967155E+03  0.00000000000E+00 0. -1.
         23    2    1    2    0    0  0.11218946300E+03  0.44669265251E+02 -0.11969208314E+03  0.19396828801E+03  0.93357823046E+02 0.  0.
         23    2    1    2    0    0 -0.11218946300E+03 -0.44669265251E+02 -0.64811140315E+03  0.67102756880E+03  0.12509112010E+03 0.  0.
          5    1    4    4  502    0 -0.23562434165E+01  0.16565321731E+02 -0.86279399848E+01  0.19284074141E+02  0.41800000000E+01 0.  1.
         -5    1    4    4    0  502 -0.10983321958E+03 -0.61234586982E+02 -0.63948346316E+03  0.65174349465E+03  0.41800000000E+01 0.  1.
        -11    1    3    3    0    0  0.63448668166E+02  0.71840248746E+02 -0.64830492175E+02  0.11571407670E+03  0.00000000000E+00 0.  1.
         11    1    3    3    0    0  0.48740794831E+02 -0.27170983495E+02 -0.54861590962E+02  0.78254211310E+02  0.00000000000E+00 0. -1.
</event>
<event>
 7    1  0.5900800E-006  0.1114130E+03  0.7561462E-02  0.1257975E+00
          1   -1    0    0  501    0  0.00000000000E+00  0.00000000000E+00  0.20511663265E+04  0.20511663265E+04  0.00000000000E+00 0. -1.
         -1   -1    0    0    0  501 -0.00000000000E+00 -0.00000000000E+00 -0.40949529730E+02  0.40949529730E+02  0.00000000000E+00 0.  1.
         23    2    1    2    0    0 -0.13324618410E+02 -0.60076388335E+02  0.41179285562E+02  0.11763267453E+03  0.91405659929E+02 0.  0.
          5    1    1    2  502    0 -0.11329961465E+01  0.10116802866E+03  0.14973516987E+04  0.15007717467E+04  0.41800000000E+01 0. -1.
         -5    1    1    2    0  502  0.14457614557E+02 -0.41091640322E+02  0.47168581247E+03  0.47371143496E+03  0.41800000000E+01 0.  1.
        -11    1    3    3    0    0 -0.31377725951E+02 -0.37400847037E+02  0.64175154750E+02  0.80633960167E+02  0.00000000000E+00 0. -1.
         11    1    3    3    0    0  0.18053107541E+02 -0.22675541298E+02 -0.22995869188E+02  0.36998714366E+02  0.00000000000E+00 0.  1.
</event>
<event>
 8    1  0.5900800E-006  0.1018766E+03  0.7561462E-02  0.1276399E+00
         -1   -1    0    0    0  501 -0.00000000000E+00  0.00000000000E+00  0.41372652059E+02  0.41372652059E+02  0.00000000000E+00 0.  1.
          1   -1    0    0  501    0  0.00000000000E+00 -0.00000000000E+00 -0.44197513773E+03  0.44197513773E+03  0.00000000000E+00 0. -1.
         23    2    1    2    0    0 -0.60154205342E+02  0.40252713426E+02 -0.92299775786E+02  0.14285338335E+03  0.81541591631E+02 0.  0.
         23    2    1    2    0    0  0.60154205342E+02 -0.40252713426E+02 -0.30830270989E+03  0.34049440644E+03  0.12508825099E+03 0.  0.
          5    1    4    4  502    0 -0.39154708962E+01  0.17560534401E+02  0.18209485672E+01  0.18560483142E+02  0.41800000000E+01 0.  1.
         -5    1    4    4    0  502  0.64069676238E+02 -0.57813247827E+02 -0.31012365846E+03  0.32193392330E+03  0.41800000000E+01 0.  1.
        -11    1    3    3    0    0 -0.64236516700E+02  0.61423130259E+01 -0.28817590890E+02  0.70671858839E+02  0.00000000000E+00 0.  1.
         11    1    3    3    0    0  0.40823113581E+01  0.34110400400E+02 -0.63482184895E+02  0.72181524510E+02  0.00000000000E+00 0. -1.
</event>
<event>
 8    1  0.5900800E-006  0.8668557E+02  0.7561462E-02  0.1311083E+00
         -2   -1    0    0    0  501 -0.00000000000E+00  0.00000000000E+00  0.14875492775E+02  0.14875492775E+02  0.00000000000E+00 0.  1.
          2   -1    0    0  501    0  0.00000000000E+00 -0.00000000000E+00 -0.15143207965E+04  0.15143207965E+04  0.00000000000E+00 0. -1.
         23    2    1    2    0    0  0.17471946219E+02 -0.27977176629E+01 -0.15863422288E+03  0.18318080511E+03  0.89873770162E+02 0.  0.
         23    2    1    2    0    0 -0.17471946219E+02  0.27977176629E+01 -0.13408110808E+04  0.13460154842E+04  0.11691977150E+03 0.  0.
          5    1    4    4  502    0 -0.52036418902E+02  0.10403361603E+02 -0.11844132894E+04  0.11856088441E+04  0.41800000000E+01 0. -1.
         -5    1    4    4    0  502  0.34564472684E+02 -0.76056439400E+01 -0.15639779147E+03  0.16040664004E+03  0.41800000000E+01 0.  1.
        -11    1    3    3    0    0  0.50859095355E+02 -0.46054793674E+01 -0.58716243286E+02  0.77816805679E+02  0.00000000000E+00 0.  1.
         11    1    3    3    0    0 -0.33387149136E+02  0.18077617045E+01 -0.99917979593E+02  0.10536399943E+03  0.00000000000E+00 0. -1.
</event>
<event>
 8    1  0.5900800E-006  0.1289987E+03  0.7561462E-02  0.1228949E+00
         -1   -1    0    0    0  501 -0.00000000000E+00  0.00000000000E+00  0.18233849714E+03  0.18233849714E+03  0.00000000000E+00 0.  1.
          1   -1    0    0  501    0  0.00000000000E+00 -0.00000000000E+00 -0.10764044323E+03  0.10764044323E+03  0.00000000000E+00 0. -1.
         23    2    1    2    0    0 -0.47712617942E+00 -0.70647366155E+02  0.86748079358E+02  0.14580032524E+03  0.93494532317E+02 0.  0.
         23    2    1    2    0    0  0.47712617942E+00  0.70647366155E+02 -0.12050025440E+02  0.14417861513E+03  0.12510392462E+03 0.  0.
          5    1    4    4  502    0  0.51496217669E+02 -0.23692259952E+01  0.91427683981E+01  0.52521769582E+02  0.41800000000E+01 0.  1.
         -5    1    4    4    0  502 -0.51019091490E+02  0.73016592150E+02 -0.21192793838E+02  0.91656845551E+02  0.41800000000E+01 0.  1.
        -11    1    3    3    0    0 -0.90652980639E+00  0.23219193351E+02  0.15082503536E+02  0.27702610871E+02  0.00000000000E+00 0.  1.
         11    1    3    3    0    0  0.42940362697E+00 -0.93866559506E+02  0.71665575822E+02  0.11809771437E+03  0.00000000000E+00 0. -1.
</event>
<event>
 8    1  0.5900800E-006  0.1323288E+03  0.7561462E-02  0.1224041E+00
         -4   -1    0    0    0  501 -0.00000000000E+00  0.00000000000E+00  0.43114588548E+03  0.43114588548E+03  0.00000000000E+00 0.  1.
          4   -1    0    0  501    0  0.00000000000E+00 -0.00000000000E+00 -0.63990329289E+02  0.63990329289E+02  0.00000000000E+00 0. -1.
         23    2    1    2    0    0  0.72859459070E+02  0.85107010801E+02  0.25647902230E+03  0.29402100775E+03  0.90084183157E+02 0.  0.
         23    2    1    2    0    0 -0.72859459070E+02 -0.85107010801E+02  0.11067653390E+03  0.20111520702E+03  0.12508528002E+03 0.  0.
          5    1    4    4  502    0 -0.86959802170E+02 -0.85894520693E+02  0.12889841913E+03  0.17768553889E+03  0.41800000000E+01 0. -1.
         -5    1    4    4    0  502  0.14100343100E+02  0.78750989225E+00 -0.18221885230E+02  0.23429668131E+02  0.41800000000E+01 0. -1.
        -11    1    3    3    0    0  0.71765374379E+02  0.39323292405E+02  0.91278944852E+02  0.12259052190E+03  0.00000000000E+00 0. -1.
         11    1    3    3    0    0  0.10940846906E+01  0.45783718396E+02  0.16520007745E+03  0.17143048585E+03  0.00000000000E+00 0.  1.
</event>
<event>
 8    1  0.5900800E-006  0.8499011E+02  0.7561462E-02  0.1315458E+00
         -1   -1    0    0    0  501 -0.00000000000E+00  0.00000000000E+00  0.18458417665E+03  0.18458417665E+03  0.00000000000E+00 0.  1.
          1   -1    0    0  501    0  0.00000000000E+00 -0.00000000000E+00 -0.66562487445E+02  0.66562487445E+02  0.00000000000E+00 0. -1.
         23    2    1    2    0    0 -0.11630977085E+02  0.13828723589E+02  0.37711394423E+02  0.10140116994E+03  0.92377133380E+02 0.  0.
         23    2    1    2    0    0  0.11630977085E+02 -0.13828723589E+02  0.80310294782E+02  0.14974549416E+03  0.12508979314E+03 0.  0.
          5    1    4    4  502    0 -0.29589603414E+02  0.10225224943E+02 -0.20828388605E+02  0.37833768345E+02  0.41800000000E+01 0. -1.
         -5    1    4    4    0  502  0.41220580498E+02 -0.24053948533E+02  0.10113868339E+03  0.11191172581E+03  0.41800000000E+01 0. -1.
        -11    1    3    3    0    0  0.38172153097E+02 -0.20142426117E+01  0.23451937192E+01  0.38297132777E+02  0.00000000000E+00 0. -1.
         11    1    3    3    0    0 -0.49803130182E+02  0.15842966201E+02  0.35366200704E+02  0.63104037162E+02  0.00000000000E+00 0.  1.
</event>
<event>
 8    1  0.5900800E-006  0.1381941E+03  0.7561462E-02  0.1215780E+00
         -3   -1    0    0    0  501 -0.00000000000E+00  0.00000000000E+00  0.18932515048E+03  0.18932515048E+03  0.00000000000E+00 0.  1.
          3   -1    0    0  501    0  0.00000000000E+00 -0.00000000000E+00 -0.15863343311E+03  0.15863343311E+03  0.00000000000E+00 0. -1.
         23    2    1    2    0    0 -0.88766814839E+01  0.10167713003E+03  0.10304283576E+03  0.17104260654E+03  0.90668147681E+02 0.  0.
         23    2    1    2    0    0  0.88766814839E+01 -0.10167713003E+03 -0.72351118397E+02  0.17691597706E+03  0.12509014493E+03 0.  0.
          5    1    4    4  502    0  0.60642685967E+02 -0.81861451760E+02 -0.64819385264E+02  0.12082159472E+03  0.41800000000E+01 0.  1.
         -5    1    4    4    0  502 -0.51766004483E+02 -0.19815678267E+02 -0.75317331329E+01  0.56094382333E+02  0.41800000000E+01 0.  1.
        -11    1    3    3    0    0 -0.35175828208E+02  0.60394613667E+02  0.99995776178E+02  0.12200001436E+03  0.00000000000E+00 0.  1.
         11    1    3    3    0    0  0.26299146724E+02  0.41282516360E+02  0.30470595860E+01  0.49042592178E+02  0.00000000000E+00 0. -1.
</event>
<event>
 8    1  0.5900800E-006  0.1229050E+03  0.7561462E-02  0.1238380E+00
         -2   -1    0    0    0  501 -0.00000000000E+00  0.00000000000E+00  0.47929357737E+02  0.47929357737E+02  0.00000000000E+00 0. -1.
          2   -1    0    0  501    0  0.00000000000E+00 -0.00000000000E+00 -0.50530007823E+03  0.50530007823E+03  0.00000000000E+00 0.  1.
         23    2    1    2    0    0 -0.51807364113E+01  0.10704505116E+03 -0.15918047186E+03  0.21256741891E+03  0.91438514596E+02 0.  0.
         23    2    1    2    0    0  0.51807364113E+01 -0.10704505116E+03 -0.29819024863E+03  0.34066201706E+03  0.12509077696E+03 0.  0.
          5    1    4    4  502    0  0.38775974147E+02 -0.92312769421E+02 -0.10967022965E+03  0.14856061134E+03  0.41800000000E+01 0.  1.
         -5    1    4    4    0  502 -0.33595237736E+02 -0.14732281739E+02 -0.18852001898E+03  0.19210140572E+03  0.41800000000E+01 0.  1.
        -11    1    3    3    0    0  0.66592450145E+01  0.47549321604E+02 -0.67195629074E+01  0.48481295928E+02  0.00000000000E+00 0. -1.
         11    1    3    3    0    0 -0.11839981426E+02  0.59495729556E+02 -0.15246090895E+03  0.16408612298E+03  0.00000000000E+00 0.  1.
</event>
<event>
 8    1  0.5900800E-006  0.8168615E+02  0.7561462E-02  0.1324333E+00
          1   -1    0    0  501    0  0.00000000000E+00  0.00000000000E+00  0.22752850290E+03  0.22752850290E+03  0.00000000000E+00 0. -1.
         -1   -1    0    0    0  501 -0.00000000000E+00 -0.00000000000E+00 -0.65685150752E+02  0.65685150752E+02  0.00000000000E+00 0.  1.
         23    2    1    2    0    0 -0.42309424829E+02  0.25539907401E+01  0.25766081861E+02  0.10357880405E+03  0.90928913860E+02 0.  0.
         23    2    1    2    0    0  0.42309424829E+02 -0.25539907401E+01  0.13607727029E+03  0.18963484961E+03  0.12509093651E+03 0.  0.
          5    1    4    4  502    0  0.15891856331E+01 -0.22732109959E+02  0.14176395149E+03  0.14364457761E+03  0.41800000000E+01 0.  1.
         -5    1    4    4    0  502  0.40720239196E+02  0.20178119219E+02 -0.56866811994E+01  0.45990271998E+02  0.41800000000E+01 0.  1.
        -11    1    3    3    0    0 -0.20200661774E+02  0.43540272367E+02 -0.42318221883E+01  0.48184337423E+02  0.00000000000E+00 0.  1.
         11    1    3    3    0    0 -0.22108763055E+02 -0.40986281627E+02  0.29997904049E+02  0.55394466626E+02  0.00000000000E+00 0. -1.
</event>
<event>
 8    1  0.5900800E-006  0.9993157E+02  0.7561462E-02  0.1280440E+00
         -1   -1    0    0    0  501 -0.00000000000E+00  0.00000000000E+00  0.10125837748E+03  0.10125837748E+03  0.00000000000E+00 0.  1.
          1   -1    0    0  501    0  0.00000000000E+00 -0.00000000000E+00 -0.19973725321E+03  0.19973725321E+03  0.00000000000E+00 0. -1.
         23    2    1    2    0    0  0.81408357127E+02 -0.40505096767E+02 -0.32263912521E+02  0.13282948516E+03  0.91294734797E+02 0.  0.
         23    2    1    2    0    0 -0.81408357127E+02  0.40505096767E+02 -0.66214963209E+02  0.16816614554E+03  0.12500979033E+03 0.  0.
          5    1    4    4  502    0 -0.54076468125E+02  0.14832856799E+02 -0.10180336923E+03  0.11629994167E+03  0.41800000000E+01 0. -1.
         -5    1    4    4    0  502 -0.27331889002E+02  0.25672239968E+02  0.35588406019E+02  0.51866203874E+02  0.41800000000E+01 0. -1.
        -11    1    3    3    0    0  0.78440899618E+02 -0.51947533368E+02 -0.53715243606E+02  0.10833673593E+03  0.00000000000E+00 0. -1.
         11    1    3    3    0    0  0.29674575090E+01  0.11442436601E+02  0.21451331085E+02  0.24492749229E+02  0.00000000000E+00 0.  1.
</event>
<event>
 8    1  0.5900800E-006  0.1214826E+03  0.7561462E-02  0.1240671E+00
          1   -1    0    0  501    0  0.00000000000E+00  0.00000000000E+00  0.10706917188E+03  0.10706917188E+03  0.00000000000E+00 0. -1.
         -1   -1    0    0    0  501 -0.00000000000E+00 -0.00000000000E+00 -0.19131483649E+03  0.19131483649E+03  0.00000000000E+00 0.  1.
         23    2    1    2    0    0  0.60725434740E+02  0.41434508634E+02 -0.98302417122E+02  0.15422532667E+03  0.93368566688E+02 0.  0.
         23    2    1    2    0    0 -0.60725434740E+02 -0.41434508634E+02  0.14056752513E+02  0.14415868170E+03  0.12320607244E+03 0.  0.
          5    1    4    4  502    0 -0.95328707903E+02 -0.32816785149E+02  0.29417504468E+02  0.10510645036E+03  0.41800000000E+01 0. -1.
         -5    1    4    4    0  502  0.34603273163E+02 -0.86177234850E+01 -0.15360751955E+02  0.39052231336E+02  0.41800000000E+01 0.  1.
        -11    1    3    3    0    0  0.53863501355E+02 -0.95561688317E+01 -0.85001746982E+02  0.10108359971E+03  0.00000000000E+00 0.  1.
         11    1    3    3    0    0  0.68619333851E+01  0.50990677465E+02 -0.13300670140E+02  0.53141726960E+02  0.00000000000E+00 0. -1.
</event>
<event>
 8    1  0.5900800E-006  0.1262800E+03  0.7561462E-02  0.1233082E+00
          4   -1    0    0  501    0  0.00000000000E+00  0.00000000000E+00  0.20730175645E+02  0.20730175645E+02  0.00000000000E+00 0.  1.
         -4   -1    0    0    0  501 -0.00000000000E+00 -0.00000000000E+00 -0.93229972438E+03  0.93229972438E+03  0.00000000000E+00 0. -1.
         23    2    1    2    0    0 -0.18843418679E+02  0.82064359321E+02 -0.31780183475E+03  0.34041472151E+03  0.88286708814E+02 0.  0.
         23    2    1    2    0    0  0.18843418679E+02 -0.82064359321E+02 -0.59376771398E+03  0.61261517851E+03  0.12509046837E+03 0.  0.
          5    1    4    4  502    0 -0.40208567722E+02 -0.46482392325E+02 -0.13147602842E+03  0.14519214911E+03  0.41800000000E+01 0. -1.
         -5    1    4    4    0  502  0.59051986401E+02 -0.35581966996E+02 -0.46229168556E+03  0.46742302940E+03  0.41800000000E+01 0. -1.
        -11    1    3    3    0    0  0.13261818547E+02 -0.14781713470E+02 -0.57387908739E+02  0.60726822358E+02  0.00000000000E+00 0. -1.
         11    1    3    3    0    0 -0.32105237226E+02  0.96846072791E+02 -0.26041392601E+03  0.27968789915E+03  0.00000000000E+00 0.  1.
</event>
<event>
 8    1  0.5900800E-006  0.1052819E+03  0.7561462E-02  0.1269565E+00
         -2   -1    0    0    0  501 -0.00000000000E+00  0.00000000000E+00  0.38837057211E+03  0.38837057211E+03  0.00000000000E+00 0.  1.
          2   -1    0    0  501    0  0.00000000000E+00 -0.00000000000E+00 -0.40377252403E+02  0.40377252403E+02  0.00000000000E+00 0. -1.
         23    2    1    2    0    0 -0.35372548308E+02  0.38405359191E+02  0.21296471729E+03  0.23741098831E+03  0.91015480928E+02 0.  0.
         23    2    1    2    0    0  0.35372548308E+02 -0.38405359191E+02  0.13502860242E+03  0.19133683621E+03  0.12510344772E+03 0.  0.
          5    1    4    4  502    0 -0.39691727703E+02  0.30861386963E+01  0.12931208898E+02  0.42067161346E+02  0.41800000000E+01 0.  1.
         -5    1    4    4    0  502  0.75064276011E+02 -0.41491497887E+02  0.12209739352E+03  0.14926967486E+03  0.41800000000E+01 0.  1.
        -11    1    3    3    0    0 -0.38780557708E+02  0.55236497766E+02  0.20921784506E+03  0.21983427629E+03  0.00000000000E+00 0.  1.
         11    1    3    3    0    0  0.34080094005E+01 -0.16831138575E+02  0.37468722382E+01  0.17576712018E+02  0.00000000000E+00 0. -1.
</event>
<event>
 8    1  0.5900800E-006  0.1315688E+03  0.7561462E-02  0.1225146E+00
          1   -1    0    0  501    0  0.00000000000E+00  0.00000000000E+00  0.10823638370E+03  0.10823638370E+03  0.00000000000E+00 0. -1.
         -1   -1    0    0    0  501 -0.00000000000E+00 -0.00000000000E+00 -0.23094339731E+03  0.23094339731E+03  0.00000000000E+00 0.  1.
         23    2    1    2    0    0  0.35499425945E+02  0.10930851205E+03 -0.73170118133E+02  0.16224116667E+03  0.88089556276E+02 0.  0.
         23    2    1    2    0    0 -0.35499425945E+02 -0.10930851205E+03 -0.49536895477E+02  0.17693861435E+03  0.12507921164E+03 0.  0.
          5    1    4    4  502    0 -0.86546792405E+01 -0.72626533923E+02 -0.89924723657E+02  0.11598898753E+03  0.41800000000E+01 0. -1.
         -5    1    4    4    0  502 -0.26844746704E+02 -0.36681978126E+02  0.40387828180E+02  0.60949626824E+02  0.41800000000E+01 0. -1.
        -11    1    3    3    0    0  0.51156570670E+02  0.22268026006E+02 -0.35399685996E+02  0.66075695029E+02  0.00000000000E+00 0.  1.
         11    1    3    3    0    0 -0.15657144725E+02  0.87040486043E+02 -0.37770432137E+02  0.96165471638E+02  0.00000000000E+00 0. -1.
</event>
<event>
 8    1  0.5900800E-006  0.2429725E+03  0.7561462E-02  0.1117828E+00
         -2   -1    0    0    0  501 -0.00000000000E+00  0.00000000000E+00  0.60636081098E+03  0.60636081098E+03  0.00000000000E+00 0.  1.
          2   -1    0    0  501    0  0.00000000000E+00 -0.00000000000E+00 -0.10601995640E+03  0.10601995640E+03  0.00000000000E+00 0. -1.
         23    2    1    2    0    0 -0.15486028536E+02 -0.22445344703E+03  0.29897094428E+03  0.38555347610E+03  0.92998335742E+02 0.  0.
         23    2    1    2    0    0  0.15486028536E+02  0.22445344703E+03  0.20136991030E+03  0.32682729127E+03  0.12508825119E+03 0.  0.
          5    1    4    4  502    0 -0.44919867169E+02  0.12455601457E+03  0.65940978777E+02  0.14797864817E+03  0.41800000000E+01 0. -1.
         -5    1    4    4    0  502  0.60405895705E+02  0.99897432454E+02  0.13542893152E+03  0.17884864310E+03  0.41800000000E+01 0. -1.
        -11    1    3    3    0    0  0.25407983960E+02 -0.14588852756E+03  0.22886361551E+03  0.27259417203E+03  0.00000000000E+00 0.  1.
         11    1    3    3    0    0 -0.40894012497E+02 -0.78564919468E+02  0.70107328770E+02  0.11295930407E+03  0.00000000000E+00 0. -1.
</event>
<event>
 8    1  0.5900800E-006  0.8762227E+02  0.7561462E-02  0.1308714E+00
          1   -1    0    0  501    0  0.00000000000E+00  0.00000000000E+00  0.84601022269E+02  0.84601022269E+02  0.00000000000E+00 0. -1.
         -1   -1    0    0    0  501 -0.00000000000E+00 -0.00000000000E+00 -0.22005707328E+03  0.22005707328E+03  0.00000000000E+00 0.  1.
         23    2    1    2    0    0  0.60232435408E+02 -0.74995670098E+01 -0.12501615529E+03  0.16522969640E+03  0.89373506744E+02 0.  0.
         23    2    1    2    0    0 -0.60232435408E+02  0.74995670098E+01 -0.10439895720E+02  0.13942839915E+03  0.12508835792E+03 0.  0.
          5    1    4    4  502    0 -0.34685120274E+02  0.52053815913E+02  0.34058637613E+02  0.71345080528E+02  0.41800000000E+01 0. -1.
         -5    1    4    4    0  502 -0.25547315134E+02 -0.44554248903E+02 -0.44498533333E+02  0.68083318622E+02  0.41800000000E+01 0. -1.
        -11    1    3    3    0    0  0.19320018083E+02  0.55156351259E+00  0.11498101128E+02  0.22489411966E+02  0.00000000000E+00 0. -1.
         11    1    3    3    0    0  0.40912417325E+02 -0.80511305224E+01 -0.13651425642E+03  0.14274028443E+03  0.00000000000E+00 0.  1.
</event>
<event>
 8    1  0.5900800E-006  0.1197395E+03  0.7561462E-02  0.1243527E+00
         -2   -1    0    0    0  501 -0.00000000000E+00  0.00000000000E+00  0.16676817113E+02  0.16676817113E+02  0.00000000000E+00 0.  1.
          2   -1    0    0  501    0  0.00000000000E+00 -0.00000000000E+00 -0.97438852618E+03  0.97438852618E+03  0.00000000000E+00 0. -1.
         23    2    1    2    0    0  0.59383301847E+02 -0.26586188732E+02 -0.24816637910E+03  0.26764660429E+03  0.76255826670E+02 0.  0.
         23    2    1    2    0    0 -0.59383301847E+02  0.26586188732E+02 -0.70954532996E+03  0.72341873900E+03  0.12508754813E+03 0.  0.
          5    1    4    4  502    0 -0.75987911096E+02  0.63810935424E+02 -0.53378570331E+03  0.54294626582E+03  0.41800000000E+01 0. -1.
         -5    1    4    4    0  502  0.16604609249E+02 -0.37224746691E+02 -0.17575962665E+03  0.18047247318E+03  0.41800000000E+01 0. -1.
        -11    1    3    3    0    0  0.75123820344E+02 -0.33179183784E+02 -0.18907329018E+03  0.20613868070E+03  0.00000000000E+00 0.  1.
         11    1    3    3    0    0 -0.15740518497E+02  0.65929950518E+01 -0.59093088925E+02  0.61507923595E+02  0.00000000000E+00 0. -1.
</event>
<event>
 8    1  0.5900800E-006  0.9868346E+02  0.7561462E-02  0.1283089E+00
         -1   -1    0    0    0  501 -0.00000000000E+00  0.00000000000E+00  0.47515866013E+02  0.47515866013E+02  0.00000000000E+00 0.  1.
          1   -1    0    0  501    0  0.00000000000E+00 -0.00000000000E+00 -0.39483376651E+03  0.39483376651E+03  0.00000000000E+00 0. -1.
         23    2    1    2    0    0  0.52305979840E+02  0.51989580986E+02 -0.93071004369E+02  0.14955578350E+03  0.90916931681E+02 0.  0.
         23    2    1    2    0    0 -0.52305979840E+02 -0.51989580986E+02 -0.25424689613E+03  0.29279384903E+03  0.12509165351E+03 0.  0.
          5    1    4    4  502    0 -0.17890212283E+02 -0.13043750485E+00  0.10251464099E+02  0.21039050018E+02  0.41800000000E+01 0.  1.
         -5    1    4    4    0  502 -0.34415767557E+02 -0.51859143481E+02 -0.26449836023E+03  0.27175479901E+03  0.41800000000E+01 0.  1.
        -11    1    3    3    0    0 -0.25952373667E+02  0.10086762796E+02 -0.28021509743E+02  0.39502828898E+02  0.00000000000E+00 0. -1.
         11    1    3    3    0    0  0.78258353507E+02  0.41902818190E+02 -0.65049494626E+02  0.11005295460E+03  0.00000000000E+00 0.  1.
</event>
<event>
 8    1  0.5900800E-006  0.1043225E+03  0.7561462E-02  0.1271460E+00
         -2   -1    0    0    0  501 -0.00000000000E+00  0.00000000000E+00  0.20527244475E+02  0.20527244475E+02  0.00000000000E+00 0.  1.
          2   -1    0    0  501    0  0.00000000000E+00 -0.00000000000E+00 -0.12042021436E+04  0.12042021436E+04  0.00000000000E+00 0. -1.
         23    2    1    2    0    0 -0.11802397632E+01 -0.66177704304E+02 -0.19181101189E+03  0.22281997557E+03  0.92067343377E+02 0.  0.
         23    2    1    2    0    0  0.11802397632E+01  0.66177704304E+02 -0.99186388727E+03  0.10019094125E+04  0.12509044152E+03 0.  0.
          5    1    4    4  502    0 -0.25689189932E+02  0.96937170453E+02 -0.68691279294E+03  0.69420703468E+03  0.41800000000E+01 0. -1.
         -5    1    4    4    0  502  0.26869429695E+02 -0.30759466149E+02 -0.30495109433E+03  0.30770237787E+03  0.41800000000E+01 0. -1.
        -11    1    3    3    0    0  0.42092823967E+01 -0.10989847534E+02  0.87947686096E+01  0.14691588138E+02  0.00000000000E+00 0.  1.
         11    1    3    3    0    0 -0.53895221599E+01 -0.55187856771E+02 -0.20060578050E+03  0.20812838743E+03  0.00000000000E+00 0. -1.
</event>
<event>
 8    1  0.5900800E-006  0.1147864E+03  0.7561462E-02  0.1251954E+00
         -2   -1    0    0    0  501 -0.00000000000E+00  0.00000000000E+00  0.10778158859E+03  0.10778158859E+03  0.00000000000E+00 0.  1.
          2   -1    0    0  501    0  0.00000000000E+00 -0.00000000000E+00 -0.76887659418E+03  0.76887659418E+03  0.00000000000E+00 0. -1.
         23    2    1    2    0    0 -0.57065492100E+02  0.54699572059E+02  0.64120392590E+02  0.13655285255E+03  0.91031550686E+02 0.  0.
         23    2    1    2    0    0  0.57065492100E+02 -0.54699572059E+02 -0.72521539818E+03  0.74010533023E+03  0.12477985614E+03 0.  0.
          5    1    4    4  502    0  0.57136254458E+02  0.25684804526E+02 -0.23109182033E+03  0.23946850019E+03  0.41800000000E+01 0. -1.
         -5    1    4    4    0  502 -0.70762358482E-01 -0.80384376585E+02 -0.49412357785E+03  0.50063683004E+03  0.41800000000E+01 0.  1.
        -11    1    3    3    0    0 -0.20116271355E+02 -0.20434421324E+00  0.67354558927E+02  0.70294684992E+02  0.00000000000E+00 0.  1.
         11    1    3    3    0    0 -0.36949220744E+02  0.54903916272E+02 -0.32341663371E+01  0.66258167553E+02  0.00000000000E+00 0. -1.
</event>
<event>
 8    1  0.5900800E-006  0.9573302E+02  0.7561462E-02  0.1289534E+00
          1   -1    0    0  501    0  0.00000000000E+00  0.00000000000E+00  0.47382359653E+02  0.47382359653E+02  0.00000000000E+00 0. -1.
         -1   -1    0    0    0  501 -0.00000000000E+00 -0.00000000000E+00 -0.26319143661E+03  0.26319143661E+03  0.00000000000E+00 0.  1.
         23    2    1    2    0    0  0.19745553288E+02 -0.11427125854E+02 -0.10328269785E+03  0.14077983685E+03  0.92904147964E+02 0.  0.
         23    2    1    2    0    0 -0.19745553288E+02  0.11427125854E+02 -0.11252637911E+03  0.16979395942E+03  0.12508931440E+03 0.  0.
          5    1    4    4  502    0 -0.57900703772E+02  0.41574331300E+02 -0.92944074930E+02  0.11720490598E+03  0.41800000000E+01 0.  1.
         -5    1    4    4    0  502  0.38155150483E+02 -0.30147205446E+02 -0.19582304181E+02  0.52589053439E+02  0.41800000000E+01 0.  1.
        -11    1    3    3    0    0  0.22005946329E+01  0.28007770061E+02 -0.91962761351E+02  0.96158344806E+02  0.00000000000E+00 0.  1.
         11    1    3    3    0    0  0.17544958655E+02 -0.39434895915E+02 -0.11319936499E+02  0.44621492046E+02  0.00000000000E+00 0. -1.
</event>
<event>
 8    1  0.5900800E-006  0.1076781E+03  0.7561462E-02  0.1264931E+00
          1   -1    0    0  501    0  0.00000000000E+00  0.00000000000E+00  0.16590653332E+03  0.16590653332E+03  0.00000000000E+00 0. -1.
         -1   -1    0    0    0  501 -0.00000000000E+00 -0.00000000000E+00 -0.11164645478E+03  0.11164645478E+03  0.00000000000E+00 0.  1.
         23    2    1    2    0    0 -0.43552951912E+01  0.72874586280E+02 -0.13799076631E+02  0.11752590311E+03  0.91061789266E+02 0.  0.
         23    2    1    2    0    0  0.43552951912E+01 -0.72874586280E+02  0.68059155171E+02  0.16002708500E+03  0.12508775083E+03 0.  0.
          5    1    4    4  502    0 -0.31947942565E+02 -0.74086548510E+01 -0.24326804022E+02  0.41046619772E+02  0.41800000000E+01 0. -1.
         -5    1    4    4    0  502  0.36303237756E+02 -0.65465931429E+02  0.92385959193E+02  0.11898046523E+03  0.41800000000E+01 0. -1.
        -11    1    3    3    0    0  0.22367535131E+02  0.77088102317E+02  0.10763154471E+02  0.80985971877E+02  0.00000000000E+00 0. -1.
         11    1    3    3    0    0 -0.26722830322E+02 -0.42135160372E+01 -0.24562231102E+02  0.36539931233E+02  0.00000000000E+00 0.  1.
</event>
<event>
 8    1  0.5900800E-006  0.1412677E+03  0.7561462E-02  0.1211633E+00
          1   -1    0    0  501    0  0.00000000000E+00  0.00000000000E+00  0.20692704344E+04  0.20692704344E+04  0.00000000000E+00 0. -1.
         -1   -1    0    0    0  501 -0.00000000000E+00 -0.00000000000E+00 -0.13550183953E+02  0.13550183953E+02  0.00000000000E+00 0.  1.
         23    2    1    2    0    0 -0.63566078190E+02  0.73136653244E+02  0.44327028231E+03  0.46262553802E+03  0.90245381616E+02 0.  0.
         23    2    1    2    0    0  0.63566078190E+02 -0.73136653244E+02  0.16124499681E+04  0.16201950803E+04  0.12509029641E+03 0.  0.
          5    1    4    4  502    0  0.79512157305E+02 -0.96325922093E+02  0.14401014951E+04  0.14455139761E+04  0.41800000000E+01 0.  1.
         -5    1    4    4    0  502 -0.15946079115E+02  0.23189268849E+02  0.17234847299E+03  0.17468110422E+03  0.41800000000E+01 0.  1.
        -11    1    3    3    0    0 -0.24044128963E+02  0.84607361911E+02  0.34606294718E+03  0.35706594522E+03  0.00000000000E+00 0. -1.
         11    1    3    3    0    0 -0.39521949227E+02 -0.11470708666E+02  0.97207335129E+02  0.10555959279E+03  0.00000000000E+00 0.  1.
</event>
<event>
 8    1  0.5900800E-006  0.9524138E+02  0.7561462E-02  0.1290633E+00
         -2   -1    0    0    0  501 -0.00000000000E+00  0.00000000000E+00  0.47455872602E+02  0.47455872602E+02  0.00000000000E+00 0. -1.
          2   -1    0    0  501    0  0.00000000000E+00 -0.00000000000E+00 -0.13845170802E+04  0.13845170802E+04  0.00000000000E+00 0.  1.
         23    2    1    2    0    0  0.47119070016E+02 -0.65340614368E+02 -0.42716292347E+02  0.12910193256E+03  0.91394883406E+02 0.  0.
         23    2    1    2    0    0 -0.47119070016E+02  0.65340614368E+02 -0.12943449152E+04  0.13028710202E+04  0.12511807668E+03 0.  0.
          5    1    4    4  502    0  0.10879505801E+02  0.17759641043E+02 -0.32719807408E+02  0.39010597192E+02  0.41800000000E+01 0.  1.
         -5    1    4    4    0  502 -0.57998575817E+02  0.47580973325E+02 -0.12616251078E+04  0.12638604230E+04  0.41800000000E+01 0.  1.
        -11    1    3    3    0    0  0.48087484557E+02 -0.25835210943E+02 -0.64080392247E+02  0.84179338118E+02  0.00000000000E+00 0.  1.
         11    1    3    3    0    0 -0.96841454082E+00 -0.39505403425E+02  0.21364099901E+02  0.44922594438E+02  0.00000000000E+00 0. -1.
</event>
<event>
 8    1  0.5900800E-006  0.1146350E+03  0.7561462E-02  0.1252220E+00
          2   -1    0    0  501    0  0.00000000000E+00  0.00000000000E+00  0.19968998459E+02  0.19968998459E+02  0.00000000000E+00 0. -1.
         -2   -1    0    0    0  501 -0.00000000000E+00 -0.00000000000E+00 -0.76390535528E+03  0.76390535528E+03  0.00000000000E+00 0.  1.
         23    2    1    2    0    0 -0.38707128100E+02 -0.41722673057E+02 -0.30228350096E+03  0.32133399786E+03  0.92958055141E+02 0.  0.
         23    2    1    2    0    0  0.38707128100E+02  0.41722673057E+02 -0.44165285587E+03  0.46254035589E+03  0.12508921821E+03 0.  0.
          5    1    4    4  502    0 -0.34661794516E+02 -0.16570530438E+01 -0.25401915541E+03  0.25641253780E+03  0.41800000000E+01 0.  1.
         -5    1    4    4    0  502  0.73368922615E+02  0.43379726101E+02 -0.18763370045E+03  0.20612781808E+03  0.41800000000E+01 0.  1.
        -11    1    3    3    0    0 -0.69368590830E+02 -0.34530592844E+02 -0.21249998101E+03  0.22618710212E+03  0.00000000000E+00 0.  1.
         11    1    3    3    0    0  0.30661462730E+02 -0.71920802128E+01 -0.89783519943E+02  0.95146895735E+02  0.00000000000E+00 0. -1.
</event>
<event>
 8    1  0.5900800E-006  0.1096301E+03  0.7561462E-02  0.1261256E+00
         -1   -1    0    0    0  501 -0.00000000000E+00  0.00000000000E+00  0.86516834256E+01  0.86516834256E+01  0.00000000000E+00 0.  1.
          1   -1    0    0  501    0  0.00000000000E+00 -0.00000000000E+00 -0.16030805512E+04  0.16030805512E+04  0.00000000000E+00 0. -1.
         23    2    1    2    0    0 -0.17983136456E+02  0.80116540695E+00 -0.43183609725E+03  0.44229070622E+03  0.93886201643E+02 0.  0.
         23    2    1    2    0    0  0.17983136456E+02 -0.80116540695E+00 -0.11625927705E+04  0.11694415284E+04  0.12508998048E+03 0.  0.
          5    1    4    4  502    0  0.31584900815E+02  0.57557263271E+02 -0.55438172125E+03  0.55827144811E+03  0.41800000000E+01 0. -1.
         -5    1    4    4    0  502 -0.13601764359E+02 -0.58358428678E+02 -0.60821104923E+03  0.61117008025E+03  0.41800000000E+01 0. -1.
        -11    1    3    3    0    0 -0.40034347472E+02  0.34690351625E+02 -0.29026559808E+03  0.29505980225E+03  0.00000000000E+00 0. -1.
         11    1    3    3    0    0  0.22051211016E+02 -0.33889186218E+02 -0.14157049917E+03  0.14723090397E+03  0.00000000000E+00 0.  1.
</event>
<event>
 8    1  0.5900800E-006  0.8929420E+02  0.7561462E-02  0.1304570E+00
          1   -1    0    0  501    0  0.00000000000E+00  0.00000000000E+00  0.67133799355E+02  0.67133799355E+02  0.00000000000E+00 0. -1.
         -1   -1    0    0    0  501 -0.00000000000E+00 -0.00000000000E+00 -0.23489759585E+03  0.23489759585E+03  0.00000000000E+00 0.  1.
         23    2    1    2    0    0 -0.20173254069E+01 -0.57576781450E+02 -0.96043693480E+02  0.14676072129E+03  0.94842832581E+02 0.  0.
         23    2    1    2    0    0  0.20173254069E+01  0.57576781450E+02 -0.71720103010E+02  0.15527067391E+03  0.12508418620E+03 0.  0.
          5    1    4    4  502    0  0.36664165217E+02  0.52776741908E+02 -0.93739210749E+02  0.11372843765E+03  0.41800000000E+01 0. -1.
         -5    1    4    4    0  502 -0.34646839810E+02  0.48000395423E+01  0.22019107738E+02  0.41542236267E+02  0.41800000000E+01 0. -1.
        -11    1    3    3    0    0  0.23316336982E+02 -0.44995551883E+02 -0.44200633134E+01  0.50870307835E+02  0.00000000000E+00 0.  1.
         11    1    3    3    0    0 -0.25333662389E+02 -0.12581229567E+02 -0.91623630167E+02  0.95890413454E+02  0.00000000000E+00 0. -1.
</event>
<event>
 8    1  0.5900800E-006  0.8163037E+02  0.7561462E-02  0.1324487E+00
         -1   -1    0    0    0  501 -0.00000000000E+00  0.00000000000E+00  0.42302057595E+02  0.42302057595E+02  0.00000000000E+00 0.  1.
          1   -1    0    0  501    0  0.00000000000E+00 -0.00000000000E+00 -0.79691974798E+03  0.79691974798E+03  0.00000000000E+00 0. -1.
         23    2    1    2    0    0  0.39599167383E+00 -0.29559468749E+02 -0.34932123413E+02  0.10815339006E+03  0.97994813802E+02 0.  0.
         23    2    1    2    0    0 -0.39599167383E+00  0.29559468749E+02 -0.71968556697E+03  0.73106841552E+03  0.12505916144E+03 0.  0.
          5    1    4    4  502    0 -0.28922459252E+02  0.46617488092E+02 -0.66259353071E+03  0.66487394157E+03  0.41800000000E+01 0.  1.
         -5    1    4    4    0  502  0.28526467578E+02 -0.17058019343E+02 -0.57092036263E+02  0.66194473946E+02  0.41800000000E+01 0.  1.
        -11    1    3    3    0    0 -0.27643293438E+02 -0.36567048845E+02  0.16860593174E+02  0.48842403048E+02  0.00000000000E+00 0.  1.
         11    1    3    3    0    0  0.28039285111E+02  0.70075800962E+01 -0.51792716587E+02  0.59310987007E+02  0.00000000000E+00 0. -1.
</event>
<event>
 8    1  0.6757331E-006  0.1382175E+03  0.7561462E-02  0.1215748E+00
         -4   -1    0    0    0  501 -0.00000000000E+00  0.00000000000E+00  0.43423647987E+02  0.43423647987E+02  0.00000000000E+00 0.  1.
          4   -1    0    0  501    0  0.00000000000E+00 -0.00000000000E+00 -0.71495334850E+03  0.71495334850E+03  0.00000000000E+00 0. -1.
         23    2    1    2    0    0 -0.72751148935E+02  0.94171210925E+02 -0.17088665652E+03  0.22879974933E+03  0.94795196484E+02 0.  0.
         23    2    1    2    0    0  0.72751148935E+02 -0.94171210925E+02 -0.50064304399E+03  0.52957724715E+03  0.12509059347E+03 0.  0.
          5    1    4    4  502    0 -0.17925454072E+02 -0.54253142503E+02 -0.86672645917E+02  0.10389583883E+03  0.41800000000E+01 0.  1.
         -5    1    4    4    0  502  0.90676603007E+02 -0.39918068422E+02 -0.41397039807E+03  0.42568140833E+03  0.41800000000E+01 0.  1.
        -11    1    3    3    0    0 -0.49364977873E+02  0.51601292432E+02 -0.26014447143E+02  0.76002275501E+02  0.00000000000E+00 0.  1.
         11    1    3    3    0    0 -0.23386171062E+02  0.42569918493E+02 -0.14487220938E+03  0.15279747383E+03  0.00000000000E+00 0. -1.
</event>
<event>
 8    1  0.5900800E-006  0.1316004E+03  0.7561462E-02  0.1225100E+00
         -1   -1    0    0    0  501 -0.00000000000E+00  0.00000000000E+00  0.26698495029E+02  0.26698495029E+02  0.00000000000E+00 0.  1.
          1   -1    0    0  501    0  0.00000000000E+00 -0.00000000000E+00 -0.10600234005E+04  0.10600234005E+04  0.00000000000E+00 0. -1.
         23    2    1    2    0    0 -0.10088235649E+03  0.41970958358E+02 -0.21937200573E+03  0.25599592961E+03  0.73966396971E+02 0.  0.
         23    2    1    2    0    0  0.10088235649E+03 -0.41970958358E+02 -0.81395289977E+03  0.83072596595E+03  0.12508995269E+03 0.  0.
          5    1    4    4  502    0  0.17516804628E+02  0.24325558171E+02 -0.43851281507E+02  0.53282065599E+02  0.41800000000E+01 0. -1.
         -5    1    4    4    0  502  0.83365551866E+02 -0.66296516530E+02 -0.77010161826E+03  0.77744390035E+03  0.41800000000E+01 0. -1.
        -11    1    3    3    0    0 -0.26378186513E+01 -0.13337891285E+02 -0.55126051463E+02  0.56777979720E+02  0.00000000000E+00 0. -1.
         11    1    3    3    0    0 -0.98244537843E+02  0.55308849644E+02 -0.16424595427E+03  0.19921794989E+03  0.00000000000E+00 0.  1.
</event>
<event>
 7    1  0.5900800E-006  0.1393278E+03  0.7561462E-02  0.1214236E+00
         -1   -1    0    0    0  501 -0.00000000000E+00  0.00000000000E+00  0.15777040439E+03  0.15777040439E+03  0.00000000000E+00 0.  1.
          1   -1    0    0  501    0  0.00000000000E+00 -0.00000000000E+00 -0.18690305614E+03  0.18690305614E+03  0.00000000000E+00 0. -1.
         23    2    1    2    0    0  0.81373808746E+02 -0.77389460706E+02  0.21020415664E+02  0.14799766111E+03  0.94077757419E+02 0.  0.
          5    1    1    2  502    0 -0.10315354567E+03  0.32118812722E+02  0.20336733101E+02  0.11001512272E+03  0.41800000000E+01 0. -1.
         -5    1    1    2    0  502  0.21779736919E+02  0.45270647984E+02 -0.70489800521E+02  0.86660676703E+02  0.41800000000E+01 0.  1.
        -11    1    3    3    0    0  0.48659700911E+02 -0.17181420501E+02 -0.32557432249E+02  0.61016015093E+02  0.00000000000E+00 0. -1.
         11    1    3    3    0    0  0.32714107835E+02 -0.60208040204E+02  0.53577847913E+02  0.86981646016E+02  0.00000000000E+00 0.  1.
</event>
<event>
 8    1  0.5900800E-006  0.1449987E+03  0.7561462E-02  0.1206757E+00
          1   -1    0    0  501    0  0.00000000000E+00  0.00000000000E+00  0.26763348196E+03  0.26763348196E+03  0.00000000000E+00 0. -1.
         -1   -1    0    0    0  501 -0.00000000000E+00 -0.00000000000E+00 -0.98912530971E+02  0.98912530971E+02  0.00000000000E+00 0.  1.
         23    2    1    2    0    0  0.91211416896E+02  0.69128332093E+02  0.28324222707E+02  0.14641494956E+03  0.86814900757E+02 0.  0.
         23    2    1    2    0    0 -0.91211416896E+02 -0.69128332093E+02  0.14039672828E+03  0.22013106336E+03  0.12509274510E+03 0.  0.
          5    1    4    4  502    0  0.11158823755E+02  0.11133980892E+02 -0.11609486670E+02  0.20018427981E+02  0.41800000000E+01 0.  1.
         -5    1    4    4    0  502 -0.10237024065E+03 -0.80262312986E+02  0.15200621495E+03  0.20011263538E+03  0.41800000000E+01 0.  1.
        -11    1    3    3    0    0  0.47351804627E+02 -0.14146392018E+02  0.12488150617E+02  0.50973205848E+02  0.00000000000E+00 0. -1.
         11    1    3    3    0    0  0.43859612269E+02  0.83274724111E+02  0.15836072090E+02  0.95441743715E+02  0.00000000000E+00 0.  1.
</event>
<event>
 8    1  0.5900800E-006  0.1358477E+03  0.7561462E-02  0.1219028E+00
          2   -1    0    0  501    0  0.00000000000E+00  0.00000000000E+00  0.20863702711E+04  0.20863702711E+04  0.00000000000E+00 0.  1.
         -2   -1    0    0    0  501 -0.00000000000E+00 -0.00000000000E+00 -0.11177999125E+02  0.11177999125E+02  0.00000000000E+00 0. -1.
         23    2    1    2    0    0  0.83962107079E+02 -0.61350597414E+02  0.73612807211E+03  0.74863985222E+03  0.88111058074E+02 0.  0.
         23    2    1    2    0    0 -0.83962107079E+02  0.61350597414E+02  0.13390641999E+04  0.13489084180E+04  0.12508979806E+03 0.  0.
          5    1    4    4  502    0 -0.90261000370E+02  0.76944447230E+02  0.13077058426E+04  0.13130801724E+04  0.41800000000E+01 0. -1.
         -5    1    4    4    0  502  0.62988932913E+01 -0.15593849816E+02  0.31358357326E+02  0.35828245603E+02  0.41800000000E+01 0. -1.
        -11    1    3    3    0    0  0.63355336704E+02  0.75183498391E+01  0.38169951005E+03  0.38699475480E+03  0.00000000000E+00 0.  1.
         11    1    3    3    0    0  0.20606770375E+02 -0.68868947253E+02  0.35442856206E+03  0.36164509742E+03  0.00000000000E+00 0. -1.
</event>
<event>
 8    1  0.5900800E-006  0.1251396E+03  0.7561462E-02  0.1234851E+00
          2   -1    0    0  501    0  0.00000000000E+00  0.00000000000E+00  0.97857419710E+03  0.97857419710E+03  0.00000000000E+00 0. -1.
         -2   -1    0    0    0  501 -0.00000000000E+00 -0.00000000000E+00 -0.21662661003E+02  0.21662661003E+02  0.00000000000E+00 0.  1.
         23    2    1    2    0    0 -0.25321020001E+02  0.85814864089E+02  0.32329555870E+03  0.34822297115E+03  0.93455200001E+02 0.  0.
         23    2    1    2    0    0  0.25321020001E+02 -0.85814864089E+02  0.63361597740E+03  0.65201388695E+03  0.12509019553E+03 0.  0.
          5    1    4    4  502    0 -0.20546989763E+02 -0.68923861337E+02  0.15538859496E+03  0.17127686736E+03  0.41800000000E+01 0.  1.
         -5    1    4    4    0  502  0.45868009763E+02 -0.16891002752E+02  0.47822738244E+03  0.48073701959E+03  0.41800000000E+01 0.  1.
        -11    1    3    3    0    0 -0.24144773637E+01 -0.20389658010E+02  0.58837490479E+02  0.62317077440E+02  0.00000000000E+00 0. -1.
         11    1    3    3    0    0 -0.22906542637E+02  0.10620452210E+03  0.26445806822E+03  0.28590589371E+03  0.00000000000E+00 0.  1.
</event>
<event>
 8    1  0.5900800E-006  0.2077565E+03  0.7561462E-02  0.1143355E+00
         -3   -1    0    0    0  501 -0.00000000000E+00  0.00000000000E+00  0.97434995090E+03  0.97434995090E+03  0.00000000000E+00 0. -1.
          3   -1    0    0  501    0  0.00000000000E+00 -0.00000000000E+00 -0.76627972110E+02  0.76627972110E+02  0.00000000000E+00 0.  1.
         23    2    1    2    0    0 -0.14456177422E+03  0.14161940267E+03  0.72235695292E+03  0.75542697496E+03  0.88972946960E+02 0.  0.
         23    2    1    2    0    0  0.14456177422E+03 -0.14161940267E+03  0.17536502587E+03  0.29555094804E+03  0.12507321381E+03 0.  0.
          5    1    4    4  502    0  0.24739137807E+02 -0.43330059421E+02  0.12152176916E+03  0.13143261303E+03  0.41800000000E+01 0.  1.
         -5    1    4    4    0  502  0.11982263642E+03 -0.98289343250E+02  0.53843256710E+02  0.16411833501E+03  0.41800000000E+01 0.  1.
        -11    1    3    3    0    0 -0.12345086476E+02  0.44968752304E+02  0.80756043549E+02  0.93253034340E+02  0.00000000000E+00 0.  1.
         11    1    3    3    0    0 -0.13221668775E+03  0.96650650367E+02  0.64160090937E+03  0.66217394062E+03  0.00000000000E+00 0. -1.
</event>
<event>
 8    1  0.5900800E-006  0.7516344E+02  0.7561462E-02  0.1343366E+00
         -1   -1    0    0    0  501 -0.00000000000E+00  0.00000000000E+00  0.94653376207E+02  0.94653376207E+02  0.00000000000E+00 0.  1.
          1   -1    0    0  501    0  0.00000000000E+00 -0.00000000000E+00 -0.12783067935E+03  0.12783067935E+03  0.00000000000E+00 0. -1.
         23    2    1    2    0    0  0.10175825921E+02 -0.15903317130E+02 -0.54772249681E+01  0.92978813333E+02  0.90876822163E+02 0.  0.
         23    2    1    2    0    0 -0.10175825921E+02  0.15903317130E+02 -0.27700078172E+02  0.12950524222E+03  0.12509136862E+03 0.  0.
          5    1    4    4  502    0  0.26804558339E+02 -0.33379729307E+02  0.23741485470E+02  0.49130654470E+02  0.41800000000E+01 0.  1.
         -5    1    4    4    0  502 -0.36980384260E+02  0.49283046437E+02 -0.51441563641E+02  0.80374587750E+02  0.41800000000E+01 0.  1.
        -11    1    3    3    0    0  0.19412455968E+02 -0.25624529938E+02 -0.42680286908E+02  0.53432825789E+02  0.00000000000E+00 0. -1.
         11    1    3    3    0    0 -0.92366300477E+01  0.97212128077E+01  0.37203061940E+02  0.39545987544E+02  0.00000000000E+00 0.  1.
</event>
<event>
 8    1  0.5900800E-006  0.8633564E+02  0.7561462E-02  0.1311976E+00
         -1   -1    0    0    0  501 -0.00000000000E+00  0.00000000000E+00  0.24266437221E+02  0.24266437221E+02  0.00000000000E+00 0.  1.
          1   -1    0    0  501    0  0.00000000000E+00 -0.00000000000E+00 -0.57651575957E+03  0.57651575957E+03  0.00000000000E+00 0. -1.
         23    2    1    2    0    0 -0.15942562634E+02 -0.37854456184E+02 -0.18113055041E+03  0.20700102718E+03  0.91400349041E+02 0.  0.
         23    2    1    2    0    0  0.15942562634E+02  0.37854456184E+02 -0.37111877194E+03  0.39378116961E+03  0.12508933408E+03 0.  0.
          5    1    4    4  502    0 -0.21515179185E+02  0.25872560142E+01 -0.32487184884E+01  0.22307474104E+02  0.41800000000E+01 0.  1.
         -5    1    4    4    0  502  0.37457741819E+02  0.35267200169E+02 -0.36787005345E+03  0.37147369551E+03  0.41800000000E+01 0.  1.
        -11    1    3    3    0    0 -0.46597917978E+02 -0.47801308630E+02 -0.10626843339E+03  0.12549625892E+03  0.00000000000E+00 0.  1.
         11    1    3    3    0    0  0.30655355344E+02  0.99468524466E+01 -0.74862117021E+02  0.81504768264E+02  0.00000000000E+00 0. -1.
</event>
<event>
 8    1  0.5900800E-006  0.1359153E+03  0.7561462E-02  0.1218933E+00
          2   -1    0    0  501    0  0.00000000000E+00  0.00000000000E+00  0.13349242474E+04  0.13349242474E+04  0.00000000000E+00 0. -1.
         -2   -1    0    0    0  501 -0.00000000000E+00 -0.00000000000E+00 -0.16149086928E+02  0.16149086928E+02  0.00000000000E+00 0.  1.
         23    2    1    2    0    0  0.89041905473E+02 -0.10358824656E-02  0.41413383470E+03  0.43349434872E+03  0.92098080308E+02 0.  0.
         23    2    1    2    0    0 -0.89041905473E+02  0.10358824656E-02  0.90464132572E+03  0.91757898556E+03  0.12508719201E+03 0.  0.
          5    1    4    4  502    0 -0.88675705068E+02 -0.46588727199E+02  0.72706192197E+03  0.73394168770E+03  0.41800000000E+01 0.  1.
         -5    1    4    4    0  502 -0.36620040426E+00  0.46589763082E+02  0.17757940376E+03  0.18363729786E+03  0.41800000000E+01 0.  1.
        -11    1    3    3    0    0  0.10289664529E+03  0.15441791327E+02  0.30106252981E+03  0.31853542250E+03  0.00000000000E+00 0. -1.
         11    1    3    3    0    0 -0.13854739821E+02 -0.15442827210E+02  0.11307130489E+03  0.11495892622E+03  0.00000000000E+00 0.  1.
</event>
<event>
 8    1  0.5900800E-006  0.1050066E+03  0.7561462E-02  0.1270107E+00
          1   -1    0    0  501    0  0.00000000000E+00  0.00000000000E+00  0.55055391186E+03  0.55055391186E+03  0.00000000000E+00 0. -1.
         -1   -1    0    0    0  501 -0.00000000000E+00 -0.00000000000E+00 -0.33054599117E+02  0.33054599117E+02  0.00000000000E+00 0.  1.
         23    2    1    2    0    0 -0.73206592012E+02 -0.22178379135E+02  0.17563961608E+03  0.21163153679E+03  0.89930790115E+02 0.  0.
         23    2    1    2    0    0  0.73206592012E+02  0.22178379135E+02  0.34185969667E+03  0.37197697419E+03  0.12509089300E+03 0.  0.
          5    1    4    4  502    0 -0.93601736828E+01 -0.32343394449E+02  0.17235581837E+03  0.17566362327E+03  0.41800000000E+01 0. -1.
         -5    1    4    4    0  502  0.82566765695E+02  0.54521773583E+02  0.16950387830E+03  0.19631335092E+03  0.41800000000E+01 0. -1.
        -11    1    3    3    0    0 -0.22185653581E+02 -0.23352958817E+01 -0.50146411557E+01  0.22864895748E+02  0.00000000000E+00 0.  1.
         11    1    3    3    0    0 -0.51020938432E+02 -0.19843083253E+02  0.18065425724E+03  0.18876664104E+03  0.00000000000E+00 0. -1.
</event>
<event>
 8    1  0.5900800E-006  0.1788618E+03  0.7561462E-02  0.1168909E+00
         -2   -1    0    0    0  501 -0.00000000000E+00  0.00000000000E+00  0.20769336124E+02  0.20769336124E+02  0.00000000000E+00 0. -1.
          2   -1    0    0  501    0  0.00000000000E+00 -0.00000000000E+00 -0.18717155783E+04  0.18717155783E+04  0.00000000000E+00 0.  1.
         23    2    1    2    0    0  0.21345239168E+02 -0.15172118950E+03 -0.57594391900E+03  0.60223177764E+03  0.86583933756E+02 0.  0.
         23    2    1    2    0    0 -0.21345239168E+02  0.15172118950E+03 -0.12750023232E+04  0.12902531368E+04  0.12508914542E+03 0.  0.
          5    1    4    4  502    0 -0.72432000115E+02  0.10814833247E+03 -0.87311353206E+03  0.88277243314E+03  0.41800000000E+01 0.  1.
         -5    1    4    4    0  502  0.51086760947E+02  0.43572857037E+02 -0.40188879114E+03  0.40748070367E+03  0.41800000000E+01 0.  1.
        -11    1    3    3    0    0  0.20586977150E+02 -0.20698244500E+02 -0.34663858352E+02  0.45319135356E+02  0.00000000000E+00 0. -1.
         11    1    3    3    0    0  0.75826201809E+00 -0.13102294500E+03 -0.54128006065E+03  0.55691264228E+03  0.00000000000E+00 0.  1.
</event>
<event>
 8    1  0.5900800E-006  0.1201138E+03  0.7561462E-02  0.1242909E+00
          1   -1    0    0  501    0  0.00000000000E+00  0.00000000000E+00  0.14288709249E+03  0.14288709249E+03  0.00000000000E+00 0. -1.
         -1   -1    0    0    0  501 -0.00000000000E+00 -0.00000000000E+00 -0.17138646527E+03  0.17138646527E+03  0.00000000000E+00 0.  1.
         23    2    1    2    0    0  0.10520204963E+03 -0.36429934757E+02  0.67194798066E+01  0.14315138816E+03  0.89736041423E+02 0.  0.
         23    2    1    2    0    0 -0.10520204963E+03  0.36429934757E+02 -0.35218852584E+02  0.17112216960E+03  0.12509123854E+03 0.  0.
          5    1    4    4  502    0 -0.44631980278E+02 -0.15838302952E+02  0.39319531386E+02  0.61695732853E+02  0.41800000000E+01 0. -1.
         -5    1    4    4    0  502 -0.60570069354E+02  0.52268237709E+02 -0.74538383969E+02  0.10942643675E+03  0.41800000000E+01 0. -1.
        -11    1    3    3    0    0  0.53997988067E+02 -0.27488995974E+02  0.47575300244E+02  0.77037892029E+02  0.00000000000E+00 0. -1.
         11    1    3    3    0    0  0.51204061565E+02 -0.89409387827E+01 -0.40855820438E+02  0.66113496131E+02  0.00000000000E+00 0.  1.
</event>
<event>
 8    1  0.5900800E-006  0.9313299E+02  0.7561462E-02  0.1295437E+00
         -2   -1    0    0    0  501 -0.00000000000E+00  0.00000000000E+00  0.22764039009E+02  0.22764039009E+02  0.00000000000E+00 0.  1.
          2   -1    0    0  501    0  0.00000000000E+00 -0.00000000000E+00 -0.59620635247E+03  0.59620635247E+03  0.00000000000E+00 0. -1.
         23    2    1    2    0    0  0.11570272431E+02 -0.11223040638E+02 -0.15877155337E+03  0.18554260835E+03  0.94645789700E+02 0.  0.
         23    2    1    2    0    0 -0.11570272431E+02  0.11223040638E+02 -0.41467076009E+03  0.43342778313E+03  0.12509187052E+03 0.  0.
          5    1    4    4  502    0  0.27708155597E+02  0.45486122756E+02 -0.90704588341E+02  0.10526881778E+03  0.41800000000E+01 0. -1.
         -5    1    4    4    0  502 -0.39278428029E+02 -0.34263082118E+02 -0.32396617174E+03  0.32815896535E+03  0.41800000000E+01 0. -1.
        -11    1    3    3    0    0 -0.29291041917E+02 -0.23861611375E+02 -0.12633448606E+03  0.13186259516E+03  0.00000000000E+00 0. -1.
         11    1    3    3    0    0  0.40861314348E+02  0.12638570738E+02 -0.32437067316E+02  0.53680013195E+02  0.00000000000E+00 0.  1.
</event>
<event>
 8    1  0.5900800E-006  0.7834975E+02  0.7561462E-02  0.1333801E+00
         -2   -1    0    0    0  501 -0.00000000000E+00  0.00000000000E+00  0.13120520918E+03  0.13120520918E+03  0.00000000000E+00 0.  1.
          2   -1    0    0  501    0  0.00000000000E+00 -0.00000000000E+00 -0.11643428610E+03  0.11643428610E+03  0.00000000000E+00 0. -1.
         23    2    1    2    0    0  0.55809729077E+02  0.85328542730E+01  0.34888408135E+02  0.10893044697E+03  0.86377692678E+02 0.  0.
         23    2    1    2    0    0 -0.55809729077E+02 -0.85328542730E+01 -0.20117485059E+02  0.13870904832E+03  0.12509177199E+03 0.  0.
          5    1    4    4  502    0 -0.56976011055E+02 -0.21238415701E+02  0.42735029628E+02  0.74438506799E+02  0.41800000000E+01 0.  1.
         -5    1    4    4    0  502  0.11662819777E+01  0.12705561428E+02 -0.62852514687E+02  0.64270541520E+02  0.41800000000E+01 0.  1.
        -11    1    3    3    0    0  0.36529507985E+02  0.34322435298E+02 -0.12479520600E+02  0.51654360443E+02  0.00000000000E+00 0. -1.
         11    1    3    3    0    0  0.19280221092E+02 -0.25789581025E+02  0.47367928735E+02  0.57276086523E+02  0.00000000000E+00 0.  1.
</event>
<event>
 8    1  0.5900800E-006  0.1220313E+03  0.7561462E-02  0.1239783E+00
         -1   -1    0    0    0  501 -0.00000000000E+00  0.00000000000E+00  0.10597295566E+03  0.10597295566E+03  0.00000000000E+00 0.  1.
          1   -1    0    0  501    0  0.00000000000E+00 -0.00000000000E+00 -0.14781816385E+03  0.14781816385E+03  0.00000000000E+00 0. -1.
         23    2    1    2    0    0  0.10995705577E+02  0.62108344785E+02 -0.16113222815E+02  0.11135427865E+03  0.90342611157E+02 0.  0.
         23    2    1    2    0    0 -0.10995705577E+02 -0.62108344785E+02 -0.25731985372E+02  0.14243684087E+03  0.12509103298E+03 0.  0.
          5    1    4    4  502    0  0.55878706312E+02 -0.14858104074E+02 -0.13715557303E+02  0.59571654232E+02  0.41800000000E+01 0.  1.
         -5    1    4    4    0  502 -0.66874411890E+02 -0.47250240711E+02 -0.12016428069E+02  0.82865186637E+02  0.41800000000E+01 0.  1.
        -11    1    3    3    0    0  0.44055120151E+02  0.54678277241E+02  0.66527738299E+01  0.70532453616E+02  0.00000000000E+00 0.  1.
         11    1    3    3    0    0 -0.33059414574E+02  0.74300675439E+01 -0.22765996645E+02  0.40821825032E+02  0.00000000000E+00 0. -1.
</event>
<event>
 8    1  0.5900800E-006  0.1253357E+03  0.7561462E-02  0.1234546E+00
         -2   -1    0    0    0  501 -0.00000000000E+00  0.00000000000E+00  0.25919653998E+03  0.25919653998E+03  0.00000000000E+00 0.  1.
          2   -1    0    0  501    0  0.00000000000E+00 -0.00000000000E+00 -0.86825006530E+02  0.86825006530E+02  0.00000000000E+00 0. -1.
         23    2    1    2    0    0  0.73749868891E+02 -0.59757365010E+02  0.12231758297E+03  0.18120826003E+03  0.94153367244E+02 0.  0.
         23    2    1    2    0    0 -0.73749868891E+02  0.59757365010E+02  0.50053950482E+02  0.16481328649E+03  0.12509210850E+03 0.  0.
          5    1    4    4  502    0 -0.76755383602E+02  0.77505293175E+02 -0.24132992055E+01  0.10918679314E+03  0.41800000000E+01 0. -1.
         -5    1    4    4    0  502  0.30055147118E+01 -0.17747928165E+02  0.52467249688E+02  0.55626493352E+02  0.41800000000E+01 0. -1.
        -11    1    3    3    0    0  0.90224990485E+02 -0.55807247314E+02  0.72258643849E+02  0.12836007702E+03  0.00000000000E+00 0. -1.
         11    1    3    3    0    0 -0.16475121594E+02 -0.39501176961E+01  0.50058939122E+02  0.52848183009E+02  0.00000000000E+00 0.  1.
</event>
<event>
 8    1  0.5900800E-006  0.1265395E+03  0.7561462E-02  0.1232683E+00
          2   -1    0    0  501    0  0.00000000000E+00  0.00000000000E+00  0.51894696578E+03  0.51894696578E+03  0.00000000000E+00 0. -1.
         -2   -1    0    0    0  501 -0.00000000000E+00 -0.00000000000E+00 -0.38822957090E+02  0.38822957090E+02  0.00000000000E+00 0.  1.
         23    2    1    2    0    0 -0.79049285381E+01  0.74061579163E+02  0.11440245810E+03  0.16413669852E+03  0.91133572172E+02 0.  0.
         23    2    1    2    0    0  0.79049285381E+01 -0.74061579163E+02  0.36572155059E+03  0.39363322436E+03  0.12508899771E+03 0.  0.
          5    1    4    4  502    0 -0.20062423457E+02  0.29581794695E+02  0.64987608182E+02  0.74286237148E+02  0.41800000000E+01 0.  1.
         -5    1    4    4    0  502  0.27967351995E+02 -0.10364337386E+03  0.30073394241E+03  0.31934698721E+03  0.41800000000E+01 0.  1.
        -11    1    3    3    0    0 -0.36352385546E+02  0.72827231807E+01  0.12702316412E+02  0.39190341081E+02  0.00000000000E+00 0. -1.
         11    1    3    3    0    0  0.28447457008E+02  0.66778855982E+02  0.10170014169E+03  0.12494635744E+03  0.00000000000E+00 0.  1.
</event>
<event>
 8    1  0.5900800E-006  0.2616094E+03  0.7561462E-02  0.1106180E+00
          1   -1    0    0  501    0  0.00000000000E+00  0.00000000000E+00  0.10824009279E+04  0.10824009279E+04  0.00000000000E+00 0. -1.
         -1   -1    0    0    0  501 -0.00000000000E+00 -0.00000000000E+00 -0.77811597966E+02  0.77811597966E+02  0.00000000000E+00 0.  1.
         23    2    1    2    0    0 -0.83070547594E+02 -0.24309542068E+03  0.33395207573E+03  0.43124174065E+03  0.91920349004E+02 0.  0.
         23    2    1    2    0    0  0.83070547594E+02  0.24309542068E+03  0.67063725417E+03  0.72897078518E+03  0.12509188436E+03 0.  0.
          5    1    4    4  502    0  0.82101115274E+02  0.24114213860E+03  0.67565100171E+03  0.72208854904E+03  0.41800000000E+01 0.  1.
         -5    1    4    4    0  502  0.96943232001E+00  0.19532820811E+01 -0.50137475419E+01  0.68822361428E+01  0.41800000000E+01 0.  1.
        -11    1    3    3    0    0 -0.79558281330E+02 -0.14351113288E+03  0.25879211947E+03  0.30642833825E+03  0.00000000000E+00 0. -1.
         11    1    3    3    0    0 -0.35122662636E+01 -0.99584287804E+02  0.75159956261E+02  0.12481340239E+03  0.00000000000E+00 0.  1.
</event>
<event>
 8    1  0.5900800E-006  0.7916043E+02  0.7561462E-02  0.1331451E+00
         -3   -1    0    0    0  501 -0.00000000000E+00  0.00000000000E+00  0.58175243029E+02  0.58175243029E+02  0.00000000000E+00 0.  1.
          3   -1    0    0  501    0  0.00000000000E+00 -0.00000000000E+00 -0.21911536589E+03  0.21911536589E+03  0.00000000000E+00 0. -1.
         23    2    1    2    0    0 -0.18015086069E+02 -0.79321232197E+01 -0.40698583943E+02  0.10265847590E+03  0.92167923025E+02 0.  0.
         23    2    1    2    0    0  0.18015086069E+02  0.79321232197E+01 -0.12024153892E+03  0.17463213302E+03  0.12510352631E+03 0.  0.
          5    1    4    4  502    0 -0.22425340485E+02  0.48492044748E+01 -0.13051737349E+03  0.13258456872E+03  0.41800000000E+01 0.  1.
         -5    1    4    4    0  502  0.40440426554E+02  0.30829187449E+01  0.10275834565E+02  0.42047564303E+02  0.41800000000E+01 0.  1.
        -11    1    3    3    0    0 -0.42330512291E+02 -0.37075978590E+02 -0.23280078313E+02  0.60897146941E+02  0.00000000000E+00 0. -1.
         11    1    3    3    0    0  0.24315426223E+02  0.29143855371E+02 -0.17418505630E+02  0.41761328961E+02  0.00000000000E+00 0.  1.
</event>
<event>
 8    1  0.5900800E-006  0.1162163E+03  0.7561462E-02  0.1249473E+00
         -1   -1    0    0    0  501 -0.00000000000E+00  0.00000000000E+00  0.30399190397E+02  0.30399190397E+02  0.00000000000E+00 0.  1.
          1   -1    0    0  501    0  0.00000000000E+00 -0.00000000000E+00 -0.62476882804E+03  0.62476882804E+03  0.00000000000E+00 0. -1.
         23    2    1    2    0    0 -0.48254483966E+02  0.31879417967E+02 -0.11747917724E+03  0.15876376891E+03  0.89776303781E+02 0.  0.
         23    2    1    2    0    0  0.48254483966E+02 -0.31879417967E+02 -0.47689046040E+03  0.49640424952E+03  0.12509146739E+03 0.  0.
          5    1    4    4  502    0 -0.30083376881E+02 -0.46388800902E+02 -0.15002352312E+03  0.15994205295E+03  0.41800000000E+01 0.  1.
         -5    1    4    4    0  502  0.78337860847E+02  0.14509382935E+02 -0.32686693728E+03  0.33646219657E+03  0.41800000000E+01 0.  1.
        -11    1    3    3    0    0 -0.69308210596E+02  0.16819122553E+02 -0.11123543205E+03  0.13213565863E+03  0.00000000000E+00 0. -1.
         11    1    3    3    0    0  0.21053726631E+02  0.15060295413E+02 -0.62437451962E+01  0.26628110279E+02  0.00000000000E+00 0.  1.
</event>
<event>
 8    1  0.5900800E-006  0.1334106E+03  0.7561462E-02  0.1222481E+00
          4   -1    0    0  501    0  0.00000000000E+00  0.00000000000E+00  0.32441151263E+02  0.32441151263E+02  0.00000000000E+00 0.  1.
         -4   -1    0    0    0  501 -0.00000000000E+00 -0.00000000000E+00 -0.62421450257E+03  0.62421450257E+03  0.00000000000E+00 0. -1.
         23    2    1    2    0    0 -0.23678897156E+02 -0.48131312698E+02 -0.40054857023E+03  0.42193752291E+03  0.12130458645E+03 0.  0.
         23    2    1    2    0    0  0.23678897156E+02  0.48131312698E+02 -0.19122478107E+03  0.23471813092E+03  0.12509344769E+03 0.  0.
          5    1    4    4  502    0 -0.10455845282E+01 -0.41280108429E+02 -0.77339096348E+02  0.87772141496E+02  0.41800000000E+01 0.  1.
         -5    1    4    4    0  502  0.24724481684E+02  0.89411421127E+02 -0.11388568472E+03  0.14694598942E+03  0.41800000000E+01 0.  1.
        -11    1    3    3    0    0 -0.70007096689E+02 -0.50097688042E+02 -0.27063197385E+03  0.28399372741E+03  0.00000000000E+00 0.  1.
         11    1    3    3    0    0  0.46328199533E+02  0.19663753433E+01 -0.12991659638E+03  0.13794379551E+03  0.00000000000E+00 0. -1.
</event>
<event>
 8    1  0.5900800E-006  0.1302698E+03  0.7561462E-02  0.1227056E+00
         -2   -1    0    0    0  501 -0.00000000000E+00  0.00000000000E+00  0.47820146906E+03  0.47820146906E+03  0.00000000000E+00 0.  1.
          2   -1    0    0  501    0  0.00000000000E+00 -0.00000000000E+00 -0.47718981396E+02  0.47718981396E+02  0.00000000000E+00 0. -1.
         23    2    1    2    0    0  0.61549846396E+02 -0.81739172270E+02  0.22835183446E+03  0.26712493999E+03  0.93495975273E+02 0.  0.
         23    2    1    2    0    0 -0.61549846396E+02  0.81739172270E+02  0.20213065320E+03  0.25879551046E+03  0.12509452184E+03 0.  0.
          5    1    4    4  502    0 -0.11205501080E+02  0.10208138634E+03  0.15899389880E+03  0.18932169698E+03  0.41800000000E+01 0.  1.
         -5    1    4    4    0  502 -0.50344345317E+02 -0.20342214070E+02  0.43136754401E+02  0.69473813476E+02  0.41800000000E+01 0.  1.
        -11    1    3    3    0    0  0.13919764880E+02 -0.29426699072E+02  0.17633043797E+03  0.17931010520E+03  0.00000000000E+00 0.  1.
         11    1    3    3    0    0  0.47630081516E+02 -0.52312473197E+02  0.52021396488E+02  0.87814834794E+02  0.00000000000E+00 0. -1.
</event>
<event>
 8    1  0.5900800E-006  0.1581018E+03  0.7561462E-02  0.1190857E+00
         -3   -1    0    0    0  501 -0.00000000000E+00  0.00000000000E+00  0.10247002155E+03  0.10247002155E+03  0.00000000000E+00 0.  1.
          3   -1    0    0  501    0  0.00000000000E+00 -0.00000000000E+00 -0.31261445019E+03  0.31261445019E+03  0.00000000000E+00 0. -1.
         23    2    1    2    0    0  0.82023653067E+02  0.10832573647E+03 -0.48890220366E+02  0.16990664282E+03  0.89530267422E+02 0.  0.
         23    2    1    2    0    0 -0.82023653067E+02 -0.10832573647E+03 -0.16125420827E+03  0.24517782892E+03  0.12508758238E+03 0.  0.
          5    1    4    4  502    0 -0.64943407742E+02  0.42246325307E+01 -0.31218338506E+02  0.72301803492E+02  0.41800000000E+01 0. -1.
         -5    1    4    4    0  502 -0.17080245325E+02 -0.11255036900E+03 -0.13003586977E+03  0.17287602543E+03  0.41800000000E+01 0. -1.
        -11    1    3    3    0    0  0.60218682295E+02  0.91469880852E+02  0.47335850239E+01  0.10961494254E+03  0.00000000000E+00 0.  1.
         11    1    3    3    0    0  0.21804970772E+02  0.16855855616E+02 -0.53623805390E+02  0.60291700286E+02  0.00000000000E+00 0. -1.
</event>
<event>
 8    1  0.5900800E-006  0.1333558E+03  0.7561462E-02  0.1222560E+00
          2   -1    0    0  501    0  0.00000000000E+00  0.00000000000E+00  0.27005009029E+03  0.27005009029E+03  0.00000000000E+00 0.  1.
         -2   -1    0    0    0  501 -0.00000000000E+00 -0.00000000000E+00 -0.73759916162E+02  0.73759916162E+02  0.00000000000E+00 0. -1.
         23    2    1    2    0    0  0.77694461908E+02 -0.50276103371E+01  0.35349766672E+02  0.12560882737E+03  0.92012310219E+02 0.  0.
         23    2    1    2    0    0 -0.77694461908E+02  0.50276103371E+01  0.16094040746E+03  0.21820117909E+03  0.12509289958E+03 0.  0.
          5    1    4    4  502    0  0.34473539329E+02  0.13940313307E+01  0.43957928589E+02  0.56036953192E+02  0.41800000000E+01 0.  1.
         -5    1    4    4    0  502 -0.11216800124E+03  0.36335790065E+01  0.11698247887E+03  0.16216422589E+03  0.41800000000E+01 0.  1.
        -11    1    3    3    0    0  0.36570106601E+02 -0.47887546453E+02  0.25370815984E+02  0.65377886979E+02  0.00000000000E+00 0. -1.
         11    1    3    3    0    0  0.41124355307E+02  0.42859936116E+02  0.99789506881E+01  0.60230940389E+02  0.00000000000E+00 0.  1.
</event>
<event>
 8    1  0.5900800E-006  0.1366733E+03  0.7561462E-02  0.1217877E+00
         -1   -1    0    0    0  501 -0.00000000000E+00  0.00000000000E+00  0.95467243128E+02  0.95467243128E+02  0.00000000000E+00 0.  1.
          1   -1    0    0  501    0  0.00000000000E+00 -0.00000000000E+00 -0.36394479156E+03  0.36394479156E+03  0.00000000000E+00 0. -1.
         23    2    1    2    0    0  0.98677643072E+02  0.60459222529E+02 -0.63610975629E+01  0.14677030243E+03  0.90047005963E+02 0.  0.
         23    2    1    2    0    0 -0.98677643072E+02 -0.60459222529E+02 -0.26211645087E+03  0.31264173226E+03  0.12508886481E+03 0.  0.
          5    1    4    4  502    0 -0.12257089554E+02 -0.35222921665E+02 -0.22562147377E+01  0.37595922118E+02  0.41800000000E+01 0.  1.
         -5    1    4    4    0  502 -0.86420553518E+02 -0.25236300864E+02 -0.25986023614E+03  0.27504581014E+03  0.41800000000E+01 0.  1.
        -11    1    3    3    0    0  0.68559416672E+02 -0.97931346563E+01  0.52639640064E+01  0.69455082016E+02  0.00000000000E+00 0.  1.
         11    1    3    3    0    0  0.30118226400E+02  0.70252357186E+02 -0.11625061569E+02  0.77315220417E+02  0.00000000000E+00 0. -1.
</event>
<event>
 8    1  0.5900800E-006  0.9965365E+02  0.7561462E-02  0.1281026E+00
          4   -1    0    0  501    0  0.00000000000E+00  0.00000000000E+00  0.17751805227E+03  0.17751805227E+03  0.00000000000E+00 0. -1.
         -4   -1    0    0    0  501 -0.00000000000E+00 -0.00000000000E+00 -0.78134725648E+02  0.78134725648E+02  0.00000000000E+00 0.  1.
         23    2    1    2    0    0 -0.21032492580E+02  0.25579305361E+02  0.68436746584E+01  0.96568262615E+02  0.90454004084E+02 0.  0.
         23    2    1    2    0    0  0.21032492580E+02 -0.25579305361E+02  0.92539651961E+02  0.15908451530E+03  0.12509048412E+03 0.  0.
          5    1    4    4  502    0 -0.47881143764E+02  0.12132650728E+02  0.25603159091E+02  0.55792466313E+02  0.41800000000E+01 0.  1.
         -5    1    4    4    0  502  0.68913636344E+02 -0.37711956088E+02  0.66936492870E+02  0.10329204899E+03  0.41800000000E+01 0.  1.
        -11    1    3    3    0    0 -0.29371861831E+02 -0.12620331957E+02 -0.29268997031E+02  0.43343433566E+02  0.00000000000E+00 0.  1.
         11    1    3    3    0    0  0.83393692510E+01  0.38199637317E+02  0.36112671690E+02  0.53224829048E+02  0.00000000000E+00 0. -1.
</event>
<event>
 7    1  0.5900800E-006  0.1652415E+03  0.7561462E-02  0.1182903E+00
         -1   -1    0    0    0  501 -0.00000000000E+00  0.00000000000E+00  0.78504098674E+02  0.78504098674E+02  0.00000000000E+00 0.  1.
          1   -1    0    0  501    0  0.00000000000E+00 -0.00000000000E+00 -0.48345769555E+03  0.48345769555E+03  0.00000000000E+00 0. -1.
         23    2    1    2    0    0  0.40931044919E+02  0.10137966091E+03 -0.33873405546E+02  0.14433662162E+03  0.87934445200E+02 0.  0.
          5    1    1    2  502    0 -0.55939535756E+02 -0.13924829887E+03 -0.30370563852E+03  0.33878298019E+03  0.41800000000E+01 0. -1.
         -5    1    1    2    0  502  0.15008490837E+02  0.37868637963E+02 -0.67374552816E+02  0.78842192420E+02  0.41800000000E+01 0.  1.
        -11    1    3    3    0    0  0.39918601121E+02  0.11707022397E+03 -0.24693272960E+02  0.12612965466E+03  0.00000000000E+00 0.  1.
         11    1    3    3    0    0  0.10124437981E+01 -0.15690563058E+02 -0.91801325866E+01  0.18206966959E+02  0.00000000000E+00 0. -1.
</event>
<event>
 8    1  0.5900800E-006  0.1173800E+03  0.7561462E-02  0.1247483E+00
          3   -1    0    0  501    0  0.00000000000E+00  0.00000000000E+00  0.75146846394E+02  0.75146846394E+02  0.00000000000E+00 0. -1.
         -3   -1    0    0    0  501 -0.00000000000E+00 -0.00000000000E+00 -0.25499043879E+03  0.25499043879E+03  0.00000000000E+00 0.  1.
         23    2    1    2    0    0 -0.31516643617E-01  0.80225110461E+02 -0.11383130731E+03  0.16751986945E+03  0.93108918992E+02 0.  0.
         23    2    1    2    0    0  0.31516643617E-01 -0.80225110461E+02 -0.66012285080E+02  0.16261741573E+03  0.12510288875E+03 0.  0.
          5    1    4    4  502    0 -0.10009213785E+02  0.15041798627E+02  0.24521655082E+02  0.30744496003E+02  0.41800000000E+01 0. -1.
         -5    1    4    4    0  502  0.10040730429E+02 -0.95266909088E+02 -0.90533940162E+02  0.13187291972E+03  0.41800000000E+01 0. -1.
        -11    1    3    3    0    0  0.44785454214E+02  0.42651575268E+02 -0.41392426862E+02  0.74419263524E+02  0.00000000000E+00 0. -1.
         11    1    3    3    0    0 -0.44816970857E+02  0.37573535193E+02 -0.72438880450E+02  0.93100605930E+02  0.00000000000E+00 0.  1.
</event>
<event>
 7    1  0.5900800E-006  0.8640661E+02  0.7561462E-02  0.1311795E+00
          1   -1    0    0  501    0  0.00000000000E+00  0.00000000000E+00  0.11450145610E+04  0.11450145610E+04  0.00000000000E+00 0. -1.
         -1   -1    0    0    0  501 -0.00000000000E+00 -0.00000000000E+00 -0.29625334012E+02  0.29625334012E+02  0.00000000000E+00 0.  1.
         23    2    1    2    0    0 -0.39628604078E+02 -0.39467654415E+02  0.10139433637E+03  0.14901269232E+03  0.93786187773E+02 0.  0.
          5    1    1    2  502    0 -0.15181348442E+02 -0.58390278762E+01  0.79824729278E+03  0.79842393527E+03  0.41800000000E+01 0. -1.
         -5    1    1    2    0  502  0.54809952520E+02  0.45306682291E+02  0.21574759788E+03  0.22720326746E+03  0.41800000000E+01 0.  1.
        -11    1    3    3    0    0 -0.24620282018E+02 -0.56770959412E+02  0.20886136238E+02  0.65309500122E+02  0.00000000000E+00 0. -1.
         11    1    3    3    0    0 -0.15008322060E+02  0.17303304997E+02  0.80508200132E+02  0.83703192194E+02  0.00000000000E+00 0.  1.
</event>
<event>
 8    1  0.5900800E-006  0.1494659E+03  0.7561462E-02  0.1201131E+00
          1   -1    0    0  501    0  0.00000000000E+00  0.00000000000E+00  0.99569374102E+03  0.99569374102E+03  0.00000000000E+00 0. -1.
         -1   -1    0    0    0  501 -0.00000000000E+00 -0.00000000000E+00 -0.25093243622E+02  0.25093243622E+02  0.00000000000E+00 0.  1.
         23    2    1    2    0    0 -0.35150881517E+02 -0.10540121552E+03  0.34669083499E+03  0.37483184067E+03  0.89215318225E+02 0.  0.
         23    2    1    2    0    0  0.35150881517E+02  0.10540121552E+03  0.62390966241E+03  0.64595514398E+03  0.12509908266E+03 0.  0.
          5    1    4    4  502    0  0.28566859539E+02 -0.23883319614E+02  0.15753433525E+03  0.16192905113E+03  0.41800000000E+01 0.  1.
         -5    1    4    4    0  502  0.65840219778E+01  0.12928453513E+03  0.46637532716E+03  0.48402609285E+03  0.41800000000E+01 0.  1.
        -11    1    3    3    0    0  0.17133989234E+02 -0.60962150834E+02  0.96657350035E+02  0.11555345403E+03  0.00000000000E+00 0.  1.
         11    1    3    3    0    0 -0.52284870751E+02 -0.44439064682E+02  0.25003348496E+03  0.25927838664E+03  0.00000000000E+00 0. -1.
</event>
<event>
 8    1  0.5900800E-006  0.1471126E+03  0.7561462E-02  0.1204067E+00
          1   -1    0    0  501    0  0.00000000000E+00  0.00000000000E+00  0.72583521372E+03  0.72583521372E+03  0.00000000000E+00 0. -1.
         -1   -1    0    0    0  501 -0.00000000000E+00 -0.00000000000E+00 -0.44483318999E+02  0.44483318999E+02  0.00000000000E+00 0.  1.
         23    2    1    2    0    0 -0.50182282799E+02 -0.13348591442E+03  0.31051808309E+03  0.35378304217E+03  0.91674479255E+02 0.  0.
         23    2    1    2    0    0  0.50182282799E+02  0.13348591442E+03  0.37083381163E+03  0.41653549055E+03  0.12508936079E+03 0.  0.
          5    1    4    4  502    0  0.34810071223E+02  0.93759251899E+02  0.35817712230E+03  0.37190168286E+03  0.41800000000E+01 0.  1.
         -5    1    4    4    0  502  0.15372211575E+02  0.39726662519E+02  0.12656689327E+02  0.44633807684E+02  0.41800000000E+01 0.  1.
        -11    1    3    3    0    0 -0.42846564052E+02 -0.43566516190E+02  0.21002829165E+03  0.21873672000E+03  0.00000000000E+00 0. -1.
         11    1    3    3    0    0 -0.73357187468E+01 -0.89919398228E+02  0.10048979143E+03  0.13504632216E+03  0.00000000000E+00 0.  1.
</event>
<event>
 8    1  0.5900800E-006  0.8899940E+02  0.7561462E-02  0.1305293E+00
         -2   -1    0    0    0  501 -0.00000000000E+00  0.00000000000E+00  0.63922478955E+02  0.63922478955E+02  0.00000000000E+00 0.  1.
          2   -1    0    0  501    0  0.00000000000E+00 -0.00000000000E+00 -0.23485611765E+03  0.23485611765E+03  0.00000000000E+00 0. -1.
         23    2    1    2    0    0  0.10123510705E+01 -0.16021944443E+02 -0.97837694027E+01  0.94143815429E+02  0.92247538077E+02 0.  0.
         23    2    1    2    0    0 -0.10123510705E+01  0.16021944443E+02 -0.16114986929E+03  0.20463478117E+03  0.12509350797E+03 0.  0.
          5    1    4    4  502    0 -0.50819415529E+02  0.20671647061E+02 -0.13951551261E+03  0.14997326644E+03  0.41800000000E+01 0.  1.
         -5    1    4    4    0  502  0.49807064459E+02 -0.46497026175E+01 -0.21634356681E+02  0.54661514738E+02  0.41800000000E+01 0.  1.
        -11    1    3    3    0    0  0.74509084536E+01 -0.43715968627E+02  0.23647072225E+02  0.50257198237E+02  0.00000000000E+00 0.  1.
         11    1    3    3    0    0 -0.64385573831E+01  0.27694024184E+02 -0.33430841627E+02  0.43886617192E+02  0.00000000000E+00 0. -1.
</event>
<event>
 7    1  0.5900800E-006  0.6553298E+02  0.7561462E-02  0.1375978E+00
         -1   -1    0    0    0  501 -0.00000000000E+00  0.00000000000E+00  0.50098713875E+02  0.50098713875E+02  0.00000000000E+00 0.  1.
          1   -1    0    0  501    0  0.00000000000E+00 -0.00000000000E+00 -0.24113986933E+03  0.24113986933E+03  0.00000000000E+00 0. -1.
         23    2    1    2    0    0 -0.43098427479E+02  0.17196276407E+02 -0.20092704437E+03  0.24108770579E+03  0.12489362813E+03 0.  0.
          5    1    3    3  502    0 -0.57913387323E+02  0.29048676192E+02 -0.34483970900E+02  0.73514642547E+02  0.41800000000E+01 0. -1.
         -5    1    3    3    0  502  0.14814959845E+02 -0.11852399785E+02 -0.16644307347E+03  0.16757306324E+03  0.41800000000E+01 0. -1.
        -11    1    1    2    0    0  0.32637798572E+02 -0.15442110171E+02  0.14066740355E+02  0.38749939954E+02  0.00000000000E+00 0.  1.
         11    1    1    2    0    0  0.10460628906E+02 -0.17541662359E+01 -0.41808514311E+01  0.11400937461E+02  0.00000000000E+00 0. -1.
</event>
<event>
 7    1  0.5900800E-006  0.8484170E+02  0.7561462E-02  0.1315847E+00
         -2   -1    0    0    0  501 -0.00000000000E+00  0.00000000000E+00  0.41233003197E+02  0.41233003197E+02  0.00000000000E+00 0.  1.
          2   -1    0    0  501    0  0.00000000000E+00 -0.00000000000E+00 -0.57375200235E+03  0.57375200235E+03  0.00000000000E+00 0. -1.
         23    2    1    2    0    0  0.47273432924E+01 -0.23252459600E+02 -0.30076563691E+02  0.93429395645E+02  0.85214010791E+02 0.  0.
          5    1    1    2  502    0  0.28185294200E+02  0.47298517456E+02 -0.45717553109E+03  0.46049809901E+03  0.41800000000E+01 0. -1.
         -5    1    1    2    0  502 -0.32912637493E+02 -0.24046057856E+02 -0.45266904368E+02  0.61057510891E+02  0.41800000000E+01 0.  1.
        -11    1    3    3    0    0  0.98733244101E+01 -0.47595927587E+02 -0.43435812138E+02  0.65188378058E+02  0.00000000000E+00 0.  1.
         11    1    3    3    0    0 -0.51459811177E+01  0.24343467987E+02  0.13359248446E+02  0.28241017587E+02  0.00000000000E+00 0. -1.
</event>
<event>
 8    1  0.5900800E-006  0.1001641E+03  0.7561462E-02  0.1279951E+00
         -1   -1    0    0    0  501 -0.00000000000E+00  0.00000000000E+00  0.90228812880E+01  0.90228812880E+01  0.00000000000E+00 0.  1.
          1   -1    0    0  501    0  0.00000000000E+00 -0.00000000000E+00 -0.16888427081E+04  0.16888427081E+04  0.00000000000E+00 0. -1.
         23    2    1    2    0    0  0.29174835882E+01  0.44321497209E+02 -0.37212198548E+03  0.38478739556E+03  0.87256294206E+02 0.  0.
         23    2    1    2    0    0 -0.29174835882E+01 -0.44321497209E+02 -0.13076978413E+04  0.13130781938E+04  0.11012625508E+03 0.  0.
          5    1    4    4  502    0 -0.42311141045E+02 -0.51531000765E+02 -0.50892899440E+03  0.51329511047E+03  0.41800000000E+01 0. -1.
         -5    1    4    4    0  502  0.39393657457E+02  0.72095035564E+01 -0.79876884691E+03  0.79978308333E+03  0.41800000000E+01 0.  1.
        -11    1    3    3    0    0 -0.38355410691E+02  0.32634626691E+02 -0.25801912813E+03  0.26288785988E+03  0.00000000000E+00 0. -1.
         11    1    3    3    0    0  0.41272894280E+02  0.11686870518E+02 -0.11410285735E+03  0.12189953568E+03  0.00000000000E+00 0.  1.
</event>
<event>
 8    1  0.5900800E-006  0.7458156E+02  0.7561462E-02  0.1345172E+00
          3   -1    0    0  501    0  0.00000000000E+00  0.00000000000E+00  0.17358069408E+03  0.17358069408E+03  0.00000000000E+00 0. -1.
         -3   -1    0    0    0  501 -0.00000000000E+00 -0.00000000000E+00 -0.81678276207E+02  0.81678276207E+02  0.00000000000E+00 0.  1.
         23    2    1    2    0    0  0.61955781493E+01 -0.29780887277E+02  0.22562368395E+01  0.98376356450E+02  0.93528233535E+02 0.  0.
         23    2    1    2    0    0 -0.61955781493E+01  0.29780887277E+02  0.89646181033E+02  0.15688261383E+03  0.12510167990E+03 0.  0.
          5    1    4    4  502    0 -0.27268749669E+02  0.18394626416E+02 -0.23828898779E+02  0.40831798963E+02  0.41800000000E+01 0.  1.
         -5    1    4    4    0  502  0.21073171520E+02  0.11386260860E+02  0.11347507981E+03  0.11605081487E+03  0.41800000000E+01 0.  1.
        -11    1    3    3    0    0  0.67477378528E+01 -0.60546072429E+02 -0.15484842784E+02  0.62858087855E+02  0.00000000000E+00 0.  1.
         11    1    3    3    0    0 -0.55215970344E+00  0.30765185153E+02  0.17741079624E+02  0.35518268595E+02  0.00000000000E+00 0. -1.
</event>
<event>
 8    1  0.5900800E-006  0.1205021E+03  0.7561462E-02  0.1242271E+00
         -1   -1    0    0    0  501 -0.00000000000E+00  0.00000000000E+00  0.53575811888E+02  0.53575811888E+02  0.00000000000E+00 0.  1.
          1   -1    0    0  501    0  0.00000000000E+00 -0.00000000000E+00 -0.39824423305E+03  0.39824423305E+03  0.00000000000E+00 0. -1.
         23    2    1    2    0    0 -0.55676605091E+02  0.78220160527E+02 -0.13030179252E+03  0.18570157182E+03  0.91039764805E+02 0.  0.
         23    2    1    2    0    0  0.55676605091E+02 -0.78220160527E+02 -0.21436662865E+03  0.26611847312E+03  0.12509081657E+03 0.  0.
          5    1    4    4  502    0  0.62335515219E+02 -0.23169046665E+02 -0.19683974634E+03  0.20781212505E+03  0.41800000000E+01 0.  1.
         -5    1    4    4    0  502 -0.66589101285E+01 -0.55051113862E+02 -0.17526882312E+02  0.58306348069E+02  0.41800000000E+01 0.  1.
        -11    1    3    3    0    0  0.24479177240E+01  0.56742977904E+02 -0.21964579499E+02  0.60894996470E+02  0.00000000000E+00 0.  1.
         11    1    3    3    0    0 -0.58124522815E+02  0.21477182623E+02 -0.10833721302E+03  0.12480657535E+03  0.00000000000E+00 0. -1.
</event>
<event>
 8    1  0.5900800E-006  0.2053586E+03  0.7561462E-02  0.1145295E+00
          2   -1    0    0  501    0  0.00000000000E+00  0.00000000000E+00  0.19644248368E+03  0.19644248368E+03  0.00000000000E+00 0. -1.
         -2   -1    0    0    0  501 -0.00000000000E+00 -0.00000000000E+00 -0.23081630969E+03  0.23081630969E+03  0.00000000000E+00 0.  1.
         23    2    1    2    0    0  0.14150046369E+03  0.11591095523E+03 -0.32689600242E+01  0.20348959722E+03  0.89104429250E+02 0.  0.
         23    2    1    2    0    0 -0.14150046369E+03 -0.11591095523E+03 -0.31104865991E+02  0.22376919615E+03  0.12508960664E+03 0.  0.
          5    1    4    4  502    0 -0.16015865893E+03 -0.77746329559E+02 -0.32675820740E+02  0.18105377503E+03  0.41800000000E+01 0. -1.
         -5    1    4    4    0  502  0.18658195244E+02 -0.38164625674E+02  0.15709547496E+01  0.42715421120E+02  0.41800000000E+01 0. -1.
        -11    1    3    3    0    0  0.27384255334E+02  0.13120623777E+00 -0.27871226456E+02  0.39073263486E+02  0.00000000000E+00 0.  1.
         11    1    3    3    0    0  0.11411620835E+03  0.11577974900E+03  0.24602266431E+02  0.16441633374E+03  0.00000000000E+00 0. -1.
</event>
<event>
 7    1  0.5900800E-006  0.1294676E+03  0.7561462E-02  0.1228248E+00
         -1   -1    0    0    0  501 -0.00000000000E+00  0.00000000000E+00  0.36441078211E+02  0.36441078211E+02  0.00000000000E+00 0.  1.
          1   -1    0    0  501    0  0.00000000000E+00 -0.00000000000E+00 -0.95900068297E+03  0.95900068297E+03  0.00000000000E+00 0. -1.
         23    2    1    2    0    0  0.17054798676E+02 -0.67977271390E+02 -0.83376998841E+02  0.14280883590E+03  0.92362676945E+02 0.  0.
          5    1    1    2  502    0  0.40278631629E+02  0.80841442641E+02 -0.44721665034E+03  0.45626517701E+03  0.41800000000E+01 0. -1.
         -5    1    1    2    0  502 -0.57333430305E+02 -0.12864171251E+02 -0.39196595558E+03  0.39636774827E+03  0.41800000000E+01 0.  1.
        -11    1    3    3    0    0 -0.30039308824E+02 -0.42012302802E+01 -0.46147070360E+02  0.55222844125E+02  0.00000000000E+00 0. -1.
         11    1    3    3    0    0  0.47094107500E+02 -0.63776041110E+02 -0.37229928481E+02  0.87585991777E+02  0.00000000000E+00 0.  1.
</event>
<event>
 8    1  0.5900800E-006  0.9165382E+02  0.7561462E-02  0.1298895E+00
          3   -1    0    0  501    0  0.00000000000E+00  0.00000000000E+00  0.62528868062E+02  0.62528868062E+02  0.00000000000E+00 0. -1.
         -3   -1    0    0    0  501 -0.00000000000E+00 -0.00000000000E+00 -0.20573609573E+03  0.20573609573E+03  0.00000000000E+00 0.  1.
         23    2    1    2    0    0  0.26418756408E+02 -0.91511374203E+01 -0.79624534429E+02  0.12518340586E+03  0.92461476374E+02 0.  0.
         23    2    1    2    0    0 -0.26418756408E+02  0.91511374203E+01 -0.63582693243E+02  0.14308155794E+03  0.12509148386E+03 0.  0.
          5    1    4    4  502    0  0.27400493841E+02 -0.39991210972E+02 -0.48178570584E+02  0.68474309644E+02  0.41800000000E+01 0.  1.
         -5    1    4    4    0  502 -0.53819250249E+02  0.49142348392E+02 -0.15404122659E+02  0.74607248292E+02  0.41800000000E+01 0.  1.
        -11    1    3    3    0    0 -0.17020493370E+02 -0.61871261642E+01  0.13363289263E+02  0.22506781748E+02  0.00000000000E+00 0. -1.
         11    1    3    3    0    0  0.43439249778E+02 -0.29640112561E+01 -0.92987823692E+02  0.10267662411E+03  0.00000000000E+00 0.  1.
</event>
<event>
 8    1  0.5900800E-006  0.1562485E+03  0.7561462E-02  0.1192998E+00
         -2   -1    0    0    0  501 -0.00000000000E+00  0.00000000000E+00  0.19572118367E+03  0.19572118367E+03  0.00000000000E+00 0.  1.
          2   -1    0    0  501    0  0.00000000000E+00 -0.00000000000E+00 -0.22140523509E+03  0.22140523509E+03  0.00000000000E+00 0. -1.
         23    2    1    2    0    0  0.43981878131E+01  0.11807039678E+03  0.12197533802E+03  0.19038794547E+03  0.86079173108E+02 0.  0.
         23    2    1    2    0    0 -0.43981878131E+01 -0.11807039678E+03 -0.14765938944E+03  0.22673847330E+03  0.12508827815E+03 0.  0.
          5    1    4    4  502    0 -0.45034796810E+02 -0.93881342796E+00 -0.22523186147E+02  0.50534944430E+02  0.41800000000E+01 0. -1.
         -5    1    4    4    0  502  0.40636608997E+02 -0.11713158336E+03 -0.12513620329E+03  0.17620352887E+03  0.41800000000E+01 0. -1.
        -11    1    3    3    0    0 -0.59944448903E+01  0.12840892614E+03  0.95555735148E+02  0.16017391860E+03  0.00000000000E+00 0. -1.
         11    1    3    3    0    0  0.10392632703E+02 -0.10338529352E+02  0.26419602872E+02  0.30214026868E+02  0.00000000000E+00 0.  1.
</event>
<event>
 8    1  0.5900800E-006  0.1532795E+03  0.7561462E-02  0.1196500E+00
         -2   -1    0    0    0  501 -0.00000000000E+00  0.00000000000E+00  0.58558840600E+02  0.58558840600E+02  0.00000000000E+00 0. -1.
          2   -1    0    0  501    0  0.00000000000E+00 -0.00000000000E+00 -0.43072263523E+03  0.43072263523E+03  0.00000000000E+00 0.  1.
         23    2    1    2    0    0 -0.11353186617E+03  0.77049638927E+01 -0.19919876391E+03  0.24738676016E+03  0.92580832000E+02 0.  0.
         23    2    1    2    0    0  0.11353186617E+03 -0.77049638927E+01 -0.17296503072E+03  0.24189471568E+03  0.12508917026E+03 0.  0.
          5    1    4    4  502    0  0.12272785935E+03  0.32310974990E+02 -0.11962821045E+03  0.17445488729E+03  0.41800000000E+01 0.  1.
         -5    1    4    4    0  502 -0.91959931849E+01 -0.40015938883E+02 -0.53336820277E+02  0.67439828385E+02  0.41800000000E+01 0.  1.
        -11    1    3    3    0    0  0.68292630789E+01 -0.14397735488E+02 -0.59836338499E+02  0.61921894563E+02  0.00000000000E+00 0.  1.
         11    1    3    3    0    0 -0.12036112924E+03  0.22102699381E+02 -0.13936242541E+03  0.18546486559E+03  0.00000000000E+00 0. -1.
</event>
<event>
 8    1  0.5900800E-006  0.1008037E+03  0.7561462E-02  0.1278615E+00
          1   -1    0    0  501    0  0.00000000000E+00  0.00000000000E+00  0.15349832495E+04  0.15349832495E+04  0.00000000000E+00 0. -1.
         -1   -1    0    0    0  501 -0.00000000000E+00 -0.00000000000E+00 -0.15042984912E+02  0.15042984912E+02  0.00000000000E+00 0.  1.
         23    2    1    2    0    0 -0.66541280894E+01 -0.88257056166E+02  0.40150834409E+03  0.42114555593E+03  0.91219754012E+02 0.  0.
         23    2    1    2    0    0  0.66541280894E+01  0.88257056166E+02  0.11184319205E+04  0.11288806785E+04  0.12509212636E+03 0.  0.
          5    1    4    4  502    0 -0.99143834417E-01 -0.29691142323E+01  0.72168840195E+03  0.72170662140E+03  0.41800000000E+01 0. -1.
         -5    1    4    4    0  502  0.67532719239E+01  0.91226170398E+02  0.39674351854E+03  0.40717405707E+03  0.41800000000E+01 0. -1.
        -11    1    3    3    0    0  0.13077079246E+02 -0.83623855788E+02  0.38718233040E+03  0.39632577033E+03  0.00000000000E+00 0. -1.
         11    1    3    3    0    0 -0.19731207335E+02 -0.46332003784E+01  0.14326013688E+02  0.24819785592E+02  0.00000000000E+00 0.  1.
</event>
<event>
 8    1  0.5900800E-006  0.1046087E+03  0.7561462E-02  0.1270893E+00
         -1   -1    0    0    0  501 -0.00000000000E+00  0.00000000000E+00  0.32933948275E+03  0.32933948275E+03  0.00000000000E+00 0.  1.
          1   -1    0    0  501    0  0.00000000000E+00 -0.00000000000E+00 -0.43041964892E+02  0.43041964892E+02  0.00000000000E+00 0. -1.
         23    2    1    2    0    0  0.46330176400E+02 -0.53619901818E+01  0.15195094057E+03  0.18298957329E+03  0.90668955038E+02 0.  0.
         23    2    1    2    0    0 -0.46330176400E+02  0.53619901818E+01  0.13434657729E+03  0.18939187436E+03  0.12508014654E+03 0.  0.
          5    1    4    4  502    0  0.36374528129E+02  0.40644712737E+01  0.85842860364E+02  0.93413571277E+02  0.41800000000E+01 0. -1.
         -5    1    4    4    0  502 -0.82704704529E+02  0.12975189081E+01  0.48503716926E+02  0.95978303080E+02  0.41800000000E+01 0. -1.
        -11    1    3    3    0    0 -0.71759595206E+01  0.26384376720E+02  0.94249508888E+02  0.98135618690E+02  0.00000000000E+00 0.  1.
         11    1    3    3    0    0  0.53506135920E+02 -0.31746366902E+02  0.57701431680E+02  0.84853954596E+02  0.00000000000E+00 0. -1.
</event>
<event>
 8    1  0.5900800E-006  0.1027889E+03  0.7561462E-02  0.1274538E+00
          1   -1    0    0  501    0  0.00000000000E+00  0.00000000000E+00  0.20170110016E+03  0.20170110016E+03  0.00000000000E+00 0. -1.
         -1   -1    0    0    0  501 -0.00000000000E+00 -0.00000000000E+00 -0.74681768544E+02  0.74681768544E+02  0.00000000000E+00 0.  1.
         23    2    1    2    0    0 -0.35130439828E+02 -0.11902644066E+02  0.21268717874E+01  0.95766888342E+02  0.88266372877E+02 0.  0.
         23    2    1    2    0    0  0.35130439828E+02  0.11902644066E+02  0.12489245982E+03  0.18061598036E+03  0.12509270603E+03 0.  0.
          5    1    4    4  502    0  0.39904669796E+02 -0.42912746046E+02  0.10793553617E+03  0.12288791158E+03  0.41800000000E+01 0.  1.
         -5    1    4    4    0  502 -0.47742299674E+01  0.54815390113E+02  0.16956923659E+02  0.57728068779E+02  0.41800000000E+01 0.  1.
        -11    1    3    3    0    0 -0.38330492502E+02  0.30586606589E+02 -0.12691493659E+02  0.50654132797E+02  0.00000000000E+00 0.  1.
         11    1    3    3    0    0  0.32000526739E+01 -0.42489250655E+02  0.14818365446E+02  0.45112755545E+02  0.00000000000E+00 0. -1.
</event>
<event>
 8    1  0.5900800E-006  0.2580801E+03  0.7561462E-02  0.1108302E+00
          1   -1    0    0  501    0  0.00000000000E+00  0.00000000000E+00  0.75895718670E+03  0.75895718670E+03  0.00000000000E+00 0. -1.
         -1   -1    0    0    0  501 -0.00000000000E+00 -0.00000000000E+00 -0.94992110503E+02  0.94992110503E+02  0.00000000000E+00 0.  1.
         23    2    1    2    0    0  0.15196981030E+03 -0.18708866136E+03  0.24641686315E+03  0.35586256721E+03  0.88430231509E+02 0.  0.
         23    2    1    2    0    0 -0.15196981030E+03  0.18708866136E+03  0.41754821304E+03  0.49808672999E+03  0.12508752905E+03 0.  0.
          5    1    4    4  502    0 -0.99277979113E+02  0.40543370005E+02  0.23333509378E+03  0.25683189128E+03  0.41800000000E+01 0. -1.
         -5    1    4    4    0  502 -0.52691831183E+02  0.14654529136E+03  0.18421311926E+03  0.24125483871E+03  0.41800000000E+01 0. -1.
        -11    1    3    3    0    0  0.97950577710E+02 -0.59760468073E+02  0.82135501419E+02  0.14110942496E+03  0.00000000000E+00 0. -1.
         11    1    3    3    0    0  0.54019232586E+02 -0.12732819329E+03  0.16428136173E+03  0.21475314226E+03  0.00000000000E+00 0.  1.
</event>
<event>
 8    1  0.5900800E-006  0.1050999E+03  0.7561462E-02  0.1269923E+00
          1   -1    0    0  501    0  0.00000000000E+00  0.00000000000E+00  0.49215708746E+02  0.49215708746E+02  0.00000000000E+00 0. -1.
         -1   -1    0    0    0  501 -0.00000000000E+00 -0.00000000000E+00 -0.35182281157E+03  0.35182281157E+03  0.00000000000E+00 0.  1.
         23    2    1    2    0    0  0.69583465072E+02 -0.26219443479E+02 -0.13514090577E+03  0.17917591437E+03  0.91168119697E+02 0.  0.
         23    2    1    2    0    0 -0.69583465072E+02  0.26219443479E+02 -0.16746619705E+03  0.22186260594E+03  0.12509504760E+03 0.  0.
          5    1    4    4  502    0  0.27270317257E+02  0.19882857747E+02 -0.76850016954E+01  0.34864450182E+02  0.41800000000E+01 0.  1.
         -5    1    4    4    0  502 -0.96853782329E+02  0.63365857319E+01 -0.15978119535E+03  0.18699815576E+03  0.41800000000E+01 0.  1.
        -11    1    3    3    0    0  0.63339681608E+02 -0.13340459989E+02 -0.14697953124E+03  0.16060157453E+03  0.00000000000E+00 0.  1.
         11    1    3    3    0    0  0.62437834643E+01 -0.12878983490E+02  0.11838625462E+02  0.18574339841E+02  0.00000000000E+00 0. -1.
</event>
<event>
 8    1  0.5900800E-006  0.1095219E+03  0.7561462E-02  0.1261458E+00
         -1   -1    0    0    0  501 -0.00000000000E+00  0.00000000000E+00  0.23172681814E+02  0.23172681814E+02  0.00000000000E+00 0.  1.
          1   -1    0    0  501    0  0.00000000000E+00 -0.00000000000E+00 -0.58324074264E+03  0.58324074264E+03  0.00000000000E+00 0. -1.
         23    2    1    2    0    0 -0.14609858746E+02  0.45230626105E+02 -0.20257171082E+03  0.22671783555E+03  0.90035667503E+02 0.  0.
         23    2    1    2    0    0  0.14609858746E+02 -0.45230626105E+02 -0.35749635001E+03  0.37969558890E+03  0.11876801949E+03 0.  0.
          5    1    4    4  502    0 -0.45301563754E+02 -0.33418119730E+02 -0.98155871805E+02  0.11323007540E+03  0.41800000000E+01 0. -1.
         -5    1    4    4    0  502  0.59911422500E+02 -0.11812506374E+02 -0.25934047820E+03  0.26646551351E+03  0.41800000000E+01 0.  1.
        -11    1    3    3    0    0  0.29824737565E+02  0.48387414401E+02 -0.12373369366E+03  0.13616491395E+03  0.00000000000E+00 0.  1.
         11    1    3    3    0    0 -0.44434596311E+02 -0.31567882959E+01 -0.78838017157E+02  0.90552921603E+02  0.00000000000E+00 0. -1.
</event>
<event>
 8    1  0.5900800E-006  0.1062807E+03  0.7561462E-02  0.1267617E+00
         -1   -1    0    0    0  501 -0.00000000000E+00  0.00000000000E+00  0.78633248830E+03  0.78633248830E+03  0.00000000000E+00 0.  1.
          1   -1    0    0  501    0  0.00000000000E+00 -0.00000000000E+00 -0.16598330552E+02  0.16598330552E+02  0.00000000000E+00 0. -1.
         23    2    1    2    0    0 -0.29335543367E+02  0.20409786213E+02  0.33038278039E+03  0.34472309356E+03  0.91673857648E+02 0.  0.
         23    2    1    2    0    0  0.29335543367E+02 -0.20409786213E+02  0.43935137736E+03  0.45820772530E+03  0.12509018049E+03 0.  0.
          5    1    4    4  502    0  0.45756735718E+02  0.34674509059E+02  0.11310653585E+03  0.12691162789E+03  0.41800000000E+01 0.  1.
         -5    1    4    4    0  502 -0.16421192350E+02 -0.55084295272E+02  0.32624484151E+03  0.33129609741E+03  0.41800000000E+01 0.  1.
        -11    1    3    3    0    0 -0.56125094725E+02 -0.98169770581E+01  0.21722308481E+03  0.22457129797E+03  0.00000000000E+00 0.  1.
         11    1    3    3    0    0  0.26789551358E+02  0.30226763271E+02  0.11315969558E+03  0.12015179559E+03  0.00000000000E+00 0. -1.
</event>
<event>
 8    1  0.5900800E-006  0.8112231E+02  0.7561462E-02  0.1325896E+00
         -2   -1    0    0    0  501 -0.00000000000E+00  0.00000000000E+00  0.29038328855E+02  0.29038328855E+02  0.00000000000E+00 0.  1.
          2   -1    0    0  501    0  0.00000000000E+00 -0.00000000000E+00 -0.77251755420E+03  0.77251755420E+03  0.00000000000E+00 0. -1.
         23    2    1    2    0    0  0.14050389539E+02  0.25833613666E+02 -0.59496263041E+02  0.10732173950E+03  0.84340745858E+02 0.  0.
         23    2    1    2    0    0 -0.14050389539E+02 -0.25833613666E+02 -0.68398296230E+03  0.69423414356E+03  0.11516754888E+03 0.  0.
          5    1    4    4  502    0 -0.21888006368E+02 -0.50020093615E+02 -0.64611698136E+03  0.64843328152E+03  0.41800000000E+01 0. -1.
         -5    1    4    4    0  502  0.78376168294E+01  0.24186479949E+02 -0.37865980944E+02  0.45800862031E+02  0.41800000000E+01 0.  1.
        -11    1    3    3    0    0 -0.22914376692E+01  0.51359506877E+02 -0.15129497331E+02  0.53590589871E+02  0.00000000000E+00 0. -1.
         11    1    3    3    0    0  0.16341827208E+02 -0.25525893211E+02 -0.44366765710E+02  0.53731149627E+02  0.00000000000E+00 0.  1.
</event>
<event>
 8    1  0.5900800E-006  0.1054976E+03  0.7561462E-02  0.1269142E+00
         -2   -1    0    0    0  501 -0.00000000000E+00  0.00000000000E+00  0.79186546923E+02  0.79186546923E+02  0.00000000000E+00 0.  1.
          2   -1    0    0  501    0  0.00000000000E+00 -0.00000000000E+00 -0.20702762584E+03  0.20702762584E+03  0.00000000000E+00 0. -1.
         23    2    1    2    0    0  0.25100063074E+02 -0.51323043872E+02 -0.13963747666E+02  0.10766494062E+03  0.90181401580E+02 0.  0.
         23    2    1    2    0    0 -0.25100063074E+02  0.51323043872E+02 -0.11387733125E+03  0.17854923214E+03  0.12509082192E+03 0.  0.
          5    1    4    4  502    0 -0.12753578668E+02  0.75550119237E+02 -0.18017686590E+02  0.78819944910E+02  0.41800000000E+01 0.  1.
         -5    1    4    4    0  502 -0.12346484406E+02 -0.24227075364E+02 -0.95859644658E+02  0.99729287233E+02  0.41800000000E+01 0.  1.
        -11    1    3    3    0    0  0.40875152988E+01 -0.74990539755E+02 -0.10271576872E+02  0.75801016652E+02  0.00000000000E+00 0. -1.
         11    1    3    3    0    0  0.21012547775E+02  0.23667495883E+02 -0.36921707941E+01  0.31863923967E+02  0.00000000000E+00 0.  1.
</event>
<event>
 8    1  0.5900800E-006  0.1270150E+03  0.7561462E-02  0.1231953E+00
          1   -1    0    0  501    0  0.00000000000E+00  0.00000000000E+00  0.46178789517E+02  0.46178789517E+02  0.00000000000E+00 0. -1.
         -1   -1    0    0    0  501 -0.00000000000E+00 -0.00000000000E+00 -0.74055938024E+03  0.74055938024E+03  0.00000000000E+00 0.  1.
         23    2    1    2    0    0 -0.69251318124E+02  0.62935183630E+02 -0.59306943874E+03  0.60770834228E+03  0.93922775289E+02 0.  0.
         23    2    1    2    0    0  0.69251318124E+02 -0.62935183630E+02 -0.10131115199E+03  0.17902982747E+03  0.11415405034E+03 0.  0.
          5    1    4    4  502    0  0.49522191912E+02  0.62219257489E+01  0.52960716688E+01  0.50365470582E+02  0.41800000000E+01 0. -1.
         -5    1    4    4    0  502  0.19729126212E+02 -0.69157109379E+02 -0.10660722366E+03  0.12866435689E+03  0.41800000000E+01 0.  1.
        -11    1    3    3    0    0 -0.89340007631E+02  0.66668695877E+02 -0.52139818456E+03  0.53318141269E+03  0.00000000000E+00 0.  1.
         11    1    3    3    0    0  0.20088689507E+02 -0.37335122475E+01 -0.71671254179E+02  0.74526929599E+02  0.00000000000E+00 0. -1.
</event>
<event>
 8    1  0.5900800E-006  0.6079175E+02  0.7561462E-02  0.1394539E+00
         -2   -1    0    0    0  501 -0.00000000000E+00  0.00000000000E+00  0.33546595658E+02  0.33546595658E+02  0.00000000000E+00 0.  1.
          2   -1    0    0  501    0  0.00000000000E+00 -0.00000000000E+00 -0.19003890637E+04  0.19003890637E+04  0.00000000000E+00 0. -1.
         23    2    1    2    0    0  0.86843878912E+01 -0.38484752678E+01 -0.36665900588E+02  0.99464530807E+02  0.91970513035E+02 0.  0.
         23    2    1    2    0    0 -0.86843878912E+01  0.38484752678E+01 -0.18301765675E+04  0.18344711285E+04  0.12509126298E+03 0.  0.
          5    1    4    4  502    0 -0.22854494066E+02  0.27204327676E+02 -0.17348632621E+04  0.17352320923E+04  0.41800000000E+01 0.  1.
         -5    1    4    4    0  502  0.14170106175E+02 -0.23355852408E+02 -0.95313305304E+02  0.99239036264E+02  0.41800000000E+01 0.  1.
        -11    1    3    3    0    0  0.31243821822E+02 -0.12982220320E+02 -0.57968809290E+02  0.67120021580E+02  0.00000000000E+00 0. -1.
         11    1    3    3    0    0 -0.22559433931E+02  0.91337450523E+01  0.21302908702E+02  0.32344509227E+02  0.00000000000E+00 0.  1.
</event>
<event>
 8    1  0.5900800E-006  0.1627605E+03  0.7561462E-02  0.1185615E+00
         -1   -1    0    0    0  501 -0.00000000000E+00  0.00000000000E+00  0.26130594709E+02  0.26130594709E+02  0.00000000000E+00 0.  1.
          1   -1    0    0  501    0  0.00000000000E+00 -0.00000000000E+00 -0.12647411660E+04  0.12647411660E+04  0.00000000000E+00 0. -1.
         23    2    1    2    0    0 -0.12341688176E+03  0.53566413515E+02 -0.38495326406E+03  0.41766992169E+03  0.90321983014E+02 0.  0.
         23    2    1    2    0    0  0.12341688176E+03 -0.53566413515E+02 -0.85365730722E+03  0.87320183901E+03  0.12509822588E+03 0.  0.
          5    1    4    4  502    0  0.14754453153E+03 -0.31890881947E+02 -0.70307857989E+03  0.71911291119E+03  0.41800000000E+01 0.  1.
         -5    1    4    4    0  502 -0.24127649777E+02 -0.21675531567E+02 -0.15057872733E+03  0.15408892782E+03  0.41800000000E+01 0.  1.
        -11    1    3    3    0    0 -0.73725399909E+02  0.75975151177E+01 -0.30013241042E+03  0.30914821787E+03  0.00000000000E+00 0. -1.
         11    1    3    3    0    0 -0.49691481846E+02  0.45968898397E+02 -0.84820853640E+02  0.10852170382E+03  0.00000000000E+00 0.  1.
</event>
<event>
 8    1  0.5900800E-006  0.1292094E+03  0.7561462E-02  0.1228634E+00
          1   -1    0    0  501    0  0.00000000000E+00  0.00000000000E+00  0.30643375308E+03  0.30643375308E+03  0.00000000000E+00 0. -1.
         -1   -1    0    0    0  501 -0.00000000000E+00 -0.00000000000E+00 -0.72412179788E+02  0.72412179788E+02  0.00000000000E+00 0.  1.
         23    2    1    2    0    0 -0.25906200445E+02  0.78513172927E+02  0.67109110766E+02  0.15447295067E+03  0.11190536268E+03 0.  0.
         23    2    1    2    0    0  0.25906200445E+02 -0.78513172927E+02  0.16691246252E+03  0.22437298220E+03  0.12509202792E+03 0.  0.
          5    1    4    4  502    0  0.60239191146E+02 -0.33416537437E+02  0.28352902450E+02  0.74610887956E+02  0.41800000000E+01 0. -1.
         -5    1    4    4    0  502 -0.34332990701E+02 -0.45096635491E+02  0.13855956007E+03  0.14976209424E+03  0.41800000000E+01 0. -1.
        -11    1    3    3    0    0  0.36566667195E+02  0.54527611645E+02  0.56701613160E+02  0.86749377614E+02  0.00000000000E+00 0. -1.
         11    1    3    3    0    0 -0.62472867641E+02  0.23985561283E+02  0.10407497606E+02  0.67723573058E+02  0.00000000000E+00 0.  1.
</event>
<event>
 8    1  0.5900800E-006  0.1419466E+03  0.7561462E-02  0.1210733E+00
         -1   -1    0    0    0  501 -0.00000000000E+00  0.00000000000E+00  0.60432830211E+02  0.60432830211E+02  0.00000000000E+00 0.  1.
          1   -1    0    0  501    0  0.00000000000E+00 -0.00000000000E+00 -0.50911437782E+03  0.50911437782E+03  0.00000000000E+00 0. -1.
         23    2    1    2    0    0  0.62805041735E+01  0.11335446277E+03 -0.85941402069E+02  0.16940204986E+03  0.91773912115E+02 0.  0.
         23    2    1    2    0    0 -0.62805041735E+01 -0.11335446277E+03 -0.36274014554E+03  0.40014515818E+03  0.12508819073E+03 0.  0.
          5    1    4    4  502    0  0.35505357199E+02 -0.11457113547E+03 -0.21152651135E+03  0.24320385046E+03  0.41800000000E+01 0.  1.
         -5    1    4    4    0  502 -0.41785861372E+02  0.12166727036E+01 -0.15121363419E+03  0.15694130772E+03  0.41800000000E+01 0.  1.
        -11    1    3    3    0    0 -0.18426497701E+02  0.33015095844E+02  0.12627225023E+02  0.39862001742E+02  0.00000000000E+00 0.  1.
         11    1    3    3    0    0  0.24707001874E+02  0.80339366923E+02 -0.98568627093E+02  0.12954004812E+03  0.00000000000E+00 0. -1.
</event>
<event>
 8    1  0.5900800E-006  0.7813771E+02  0.7561462E-02  0.1334421E+00
          2   -1    0    0  501    0  0.00000000000E+00  0.00000000000E+00  0.99623569741E+02  0.99623569741E+02  0.00000000000E+00 0. -1.
         -2   -1    0    0    0  501 -0.00000000000E+00 -0.00000000000E+00 -0.19653056325E+03  0.19653056325E+03  0.00000000000E+00 0.  1.
         23    2    1    2    0    0 -0.33031765139E+02 -0.13686663070E+02 -0.14131826611E+03  0.17165696855E+03  0.90646788467E+02 0.  0.
         23    2    1    2    0    0  0.33031765139E+02  0.13686663070E+02  0.44411272603E+02  0.12449716445E+03  0.11067411877E+03 0.  0.
          5    1    4    4  502    0  0.51143262601E+02  0.31095779273E+02  0.67365659810E+02  0.90211891232E+02  0.41800000000E+01 0. -1.
         -5    1    4    4    0  502 -0.18111497462E+02 -0.17409116203E+02 -0.22954387207E+02  0.34285273214E+02  0.41800000000E+01 0.  1.
        -11    1    3    3    0    0 -0.44564838506E+02  0.89020140962E+01 -0.13893965784E+03  0.14618310165E+03  0.00000000000E+00 0.  1.
         11    1    3    3    0    0  0.11533073368E+02 -0.22588677166E+02 -0.23786082692E+01  0.25473866898E+02  0.00000000000E+00 0. -1.
</event>
<event>
 7    1  0.5900800E-006  0.1016977E+03  0.7561462E-02  0.1276766E+00
         -2   -1    0    0    0  501 -0.00000000000E+00  0.00000000000E+00  0.47519456185E+02  0.47519456185E+02  0.00000000000E+00 0.  1.
          2   -1    0    0  501    0  0.00000000000E+00 -0.00000000000E+00 -0.60163552664E+03  0.60163552664E+03  0.00000000000E+00 0. -1.
         23    2    1    2    0    0 -0.12453825795E+02  0.51665155631E+02 -0.15555566649E+03  0.18305399148E+03  0.80540749537E+02 0.  0.
          5    1    1    2  502    0  0.61250087967E+02 -0.39250270509E+02 -0.40821100503E+03  0.41466354317E+03  0.41800000000E+01 0. -1.
         -5    1    1    2    0  502 -0.48796262172E+02 -0.12414885123E+02  0.96506010548E+01  0.51437448180E+02  0.41800000000E+01 0.  1.
        -11    1    3    3    0    0 -0.16243948935E+02 -0.94358598150E+01 -0.34617146290E+01  0.19101957900E+02  0.00000000000E+00 0.  1.
         11    1    3    3    0    0  0.37901231396E+01  0.61101015446E+02 -0.15209395186E+03  0.16395203358E+03  0.00000000000E+00 0. -1.
</event>
<event>
 8    1  0.5900800E-006  0.1626550E+03  0.7561462E-02  0.1185732E+00
          2   -1    0    0  501    0  0.00000000000E+00  0.00000000000E+00  0.11304565404E+04  0.11304565404E+04  0.00000000000E+00 0. -1.
         -2   -1    0    0    0  501 -0.00000000000E+00 -0.00000000000E+00 -0.30925526323E+02  0.30925526323E+02  0.00000000000E+00 0.  1.
         23    2    1    2    0    0 -0.14028324148E+03  0.36950702864E+02  0.37392645282E+03  0.41091951606E+03  0.89381845369E+02 0.  0.
         23    2    1    2    0    0  0.14028324148E+03 -0.36950702864E+02  0.72560456130E+03  0.75046255070E+03  0.12508924153E+03 0.  0.
          5    1    4    4  502    0  0.60665229312E+02  0.31747245045E+02  0.14513607999E+03  0.16053071896E+03  0.41800000000E+01 0. -1.
         -5    1    4    4    0  502  0.79618012166E+02 -0.68697947909E+02  0.58046848131E+03  0.58993183174E+03  0.41800000000E+01 0. -1.
        -11    1    3    3    0    0 -0.56210834638E+02  0.37185438409E+02  0.26435013193E+03  0.27280653770E+03  0.00000000000E+00 0.  1.
         11    1    3    3    0    0 -0.84072406839E+02 -0.23473554429E+00  0.10957632089E+03  0.13811297836E+03  0.00000000000E+00 0. -1.
</event>
<event>
 8    1  0.5900800E-006  0.1612132E+03  0.7561462E-02  0.1187334E+00
         -1   -1    0    0    0  501 -0.00000000000E+00  0.00000000000E+00  0.75552913258E+02  0.75552913258E+02  0.00000000000E+00 0.  1.
          1   -1    0    0  501    0  0.00000000000E+00 -0.00000000000E+00 -0.69299737420E+03  0.69299737420E+03  0.00000000000E+00 0. -1.
         23    2    1    2    0    0 -0.54357503084E+02  0.10944718648E+03 -0.26387529822E+02  0.15216537725E+03  0.86744311254E+02 0.  0.
         23    2    1    2    0    0  0.54357503084E+02 -0.10944718648E+03 -0.59105693112E+03  0.61638491021E+03  0.12509451202E+03 0.  0.
          5    1    4    4  502    0 -0.95895145594E+01  0.24345627831E+02 -0.85481424948E+02  0.89494216546E+02  0.41800000000E+01 0.  1.
         -5    1    4    4    0  502  0.63947017643E+02 -0.13379281431E+03 -0.50557550617E+03  0.52689069366E+03  0.41800000000E+01 0.  1.
        -11    1    3    3    0    0 -0.65940587419E+02  0.39894430309E+02 -0.55501986873E+00  0.77071620496E+02  0.00000000000E+00 0.  1.
         11    1    3    3    0    0  0.11583084335E+02  0.69552756168E+02 -0.25832509954E+02  0.75093756756E+02  0.00000000000E+00 0. -1.
</event>
<event>
 8    1  0.1011909E-005  0.1310726E+03  0.7561462E-02  0.1225873E+00
         -3   -1    0    0    0  501 -0.00000000000E+00  0.00000000000E+00  0.37328452102E+02  0.37328452102E+02  0.00000000000E+00 0.  1.
          3   -1    0    0  501    0  0.00000000000E+00 -0.00000000000E+00 -0.51129725525E+03  0.51129725525E+03  0.00000000000E+00 0. -1.
         23    2    1    2    0    0  0.20336972135E+01 -0.90860779715E+02 -0.20714616577E+03  0.24024022307E+03  0.80907438288E+02 0.  0.
         23    2    1    2    0    0 -0.20336972135E+01  0.90860779715E+02 -0.26682263738E+03  0.30838548429E+03  0.12508984726E+03 0.  0.
          5    1    4    4  502    0 -0.44012289958E+02  0.90964500875E+02 -0.23404185271E+03  0.25496016023E+03  0.41800000000E+01 0.  1.
         -5    1    4    4    0  502  0.41978592744E+02 -0.10372116040E+00 -0.32780784675E+02  0.53425324059E+02  0.41800000000E+01 0.  1.
        -11    1    3    3    0    0  0.32515826117E+02 -0.80177358390E+02 -0.12546538151E+03  0.15240488740E+03  0.00000000000E+00 0.  1.
         11    1    3    3    0    0 -0.30482128904E+02 -0.10683421325E+02 -0.81680784262E+02  0.87835335665E+02  0.00000000000E+00 0. -1.
</event>
<event>
 8    1  0.5900800E-006  0.8557661E+02  0.7561462E-02  0.1313931E+00
         -2   -1    0    0    0  501 -0.00000000000E+00  0.00000000000E+00  0.10020962078E+03  0.10020962078E+03  0.00000000000E+00 0.  1.
          2   -1    0    0  501    0  0.00000000000E+00 -0.00000000000E+00 -0.39391026746E+03  0.39391026746E+03  0.00000000000E+00 0. -1.
         23    2    1    2    0    0 -0.50548637838E+02 -0.62587459336E+01  0.56323943662E+02  0.11894134194E+03  0.91544085032E+02 0.  0.
         23    2    1    2    0    0  0.50548637838E+02  0.62587459336E+01 -0.35002459034E+03  0.37517854630E+03  0.12508953225E+03 0.  0.
          5    1    4    4  502    0  0.52194112372E+02  0.19640965439E+02 -0.50588646828E+02  0.75410055547E+02  0.41800000000E+01 0.  1.
         -5    1    4    4    0  502 -0.16454745339E+01 -0.13382219505E+02 -0.29943594351E+03  0.29976849076E+03  0.41800000000E+01 0.  1.
        -11    1    3    3    0    0  0.78922770986E+01 -0.35076590939E+02  0.35521552420E+02  0.50541428116E+02  0.00000000000E+00 0.  1.
         11    1    3    3    0    0 -0.58440914937E+02  0.28817845006E+02  0.20802391243E+02  0.68399913822E+02  0.00000000000E+00 0. -1.
</event>
<event>
 6    1  0.5900800E-006  0.3240865E+03  0.7561462E-02  0.1073784E+00
         -2   -1    0    0    0  501 -0.00000000000E+00  0.00000000000E+00  0.47892883162E+03  0.47892883162E+03  0.00000000000E+00 0.  1.
          2   -1    0    0  501    0  0.00000000000E+00 -0.00000000000E+00 -0.37384652583E+03  0.37384652583E+03  0.00000000000E+00 0. -1.
          5    1    1    2  502    0  0.18847043284E+03 -0.29826539548E+02  0.12003881409E+02  0.19123883520E+03  0.41800000000E+01 0. -1.
         -5    1    1    2    0  502 -0.67837973176E+02 -0.96146318120E+02 -0.17255689225E+03  0.20890059491E+03  0.41800000000E+01 0.  1.
        -11    1    1    2    0    0  0.31771944115E+02  0.17624491202E+03  0.22409917034E+03  0.28686610743E+03  0.00000000000E+00 0.  1.
         11    1    1    2    0    0 -0.15240440378E+03 -0.50272054356E+02  0.41536146298E+02  0.16576981990E+03  0.00000000000E+00 0. -1.
</event>
<event>
 8    1  0.5900800E-006  0.1008656E+03  0.7561462E-02  0.1278486E+00
         -2   -1    0    0    0  501 -0.00000000000E+00  0.00000000000E+00  0.44144207746E+02  0.44144207746E+02  0.00000000000E+00 0.  1.
          2   -1    0    0  501    0  0.00000000000E+00 -0.00000000000E+00 -0.29388678027E+03  0.29388678027E+03  0.00000000000E+00 0. -1.
         23    2    1    2    0    0 -0.32887422064E+02  0.11864847403E+02 -0.94771748778E+02  0.13582946853E+03  0.90805302817E+02 0.  0.
         23    2    1    2    0    0  0.32887422064E+02 -0.11864847403E+02 -0.15497082374E+03  0.20220151949E+03  0.12508853320E+03 0.  0.
          5    1    4    4  502    0 -0.29595717102E+02  0.33096678837E+02 -0.25102467593E+02  0.51175217636E+02  0.41800000000E+01 0. -1.
         -5    1    4    4    0  502  0.62483139166E+02 -0.44961526241E+02 -0.12986835615E+03  0.15102630185E+03  0.41800000000E+01 0. -1.
        -11    1    3    3    0    0 -0.24123380829E+02 -0.29301906028E+02 -0.71485351893E+01  0.38621765300E+02  0.00000000000E+00 0.  1.
         11    1    3    3    0    0 -0.87640412352E+01  0.41166753432E+02 -0.87623213589E+02  0.97207703226E+02  0.00000000000E+00 0. -1.
</event>
<event>
 8    1  0.5900800E-006  0.1538605E+03  0.7561462E-02  0.1195808E+00
          1   -1    0    0  501    0  0.00000000000E+00  0.00000000000E+00  0.88642824530E+03  0.88642824530E+03  0.00000000000E+00 0. -1.
         -1   -1    0    0    0  501 -0.00000000000E+00 -0.00000000000E+00 -0.46074807012E+02  0.46074807012E+02  0.00000000000E+00 0.  1.
         23    2    1    2    0    0  0.19635785321E+02  0.13598223587E+03  0.20175879723E+03  0.26742593478E+03  0.10923957980E+03 0.  0.
         23    2    1    2    0    0 -0.19635785321E+02 -0.13598223587E+03  0.63859464106E+03  0.66507711754E+03  0.12509086354E+03 0.  0.
          5    1    4    4  502    0  0.16955460643E+02 -0.11455111426E+03  0.58620019845E+03  0.59754296121E+03  0.41800000000E+01 0. -1.
         -5    1    4    4    0  502 -0.36591245965E+02 -0.21431121608E+02  0.52394442612E+02  0.67534156330E+02  0.41800000000E+01 0. -1.
        -11    1    3    3    0    0 -0.17784344223E+02  0.79621434474E+02  0.37516432177E+02  0.89796093515E+02  0.00000000000E+00 0.  1.
         11    1    3    3    0    0  0.37420129544E+02  0.56360801398E+02  0.16424236505E+03  0.17762984126E+03  0.00000000000E+00 0. -1.
</event>
<event>
 8    1  0.5900800E-006  0.1265339E+03  0.7561462E-02  0.1232691E+00
          2   -1    0    0  501    0  0.00000000000E+00  0.00000000000E+00  0.41501922921E+03  0.41501922921E+03  0.00000000000E+00 0. -1.
         -2   -1    0    0    0  501 -0.00000000000E+00 -0.00000000000E+00 -0.40580392424E+02  0.40580392424E+02  0.00000000000E+00 0.  1.
         23    2    1    2    0    0  0.35732973669E+02  0.54838053105E+02  0.11892435074E+03  0.16366812637E+03  0.91434112413E+02 0.  0.
         23    2    1    2    0    0 -0.35732973669E+02 -0.54838053105E+02  0.25551448604E+03  0.29193149527E+03  0.12510910389E+03 0.  0.
          5    1    4    4  502    0  0.46307235663E+02 -0.12104123784E+02  0.99857274819E+02  0.11081433852E+03  0.41800000000E+01 0. -1.
         -5    1    4    4    0  502 -0.82040209333E+02 -0.42733929321E+02  0.15565721122E+03  0.18111715675E+03  0.41800000000E+01 0. -1.
        -11    1    3    3    0    0  0.49656258857E+02 -0.59971249257E+01  0.54499020177E+02  0.73971972741E+02  0.00000000000E+00 0.  1.
         11    1    3    3    0    0 -0.13923285187E+02  0.60835178031E+02  0.64425330567E+02  0.89696153625E+02  0.00000000000E+00 0. -1.
</event>
<event>
 8    1  0.5900800E-006  0.6075817E+02  0.7561462E-02  0.1394677E+00
          1   -1    0    0  501    0  0.00000000000E+00  0.00000000000E+00  0.38357020454E+03  0.38357020454E+03  0.00000000000E+00 0. -1.
         -1   -1    0    0    0  501 -0.00000000000E+00 -0.00000000000E+00 -0.53670234970E+02  0.53670234970E+02  0.00000000000E+00 0.  1.
         23    2    1    2    0    0  0.19341552283E+02  0.47297969472E+02  0.23654591781E+02  0.10251567892E+03  0.85666394528E+02 0.  0.
         23    2    1    2    0    0 -0.19341552283E+02 -0.47297969472E+02  0.30624537779E+03  0.33472476059E+03  0.12507294022E+03 0.  0.
          5    1    4    4  502    0 -0.25422596887E+02 -0.10895739886E+02  0.29441886178E+03  0.29574476183E+03  0.41800000000E+01 0.  1.
         -5    1    4    4    0  502  0.60810446036E+01 -0.36402229586E+02  0.11826516011E+02  0.38979998759E+02  0.41800000000E+01 0.  1.
        -11    1    3    3    0    0  0.21958916472E+01  0.35546481414E+02 -0.28986403175E+02  0.45919340698E+02  0.00000000000E+00 0.  1.
         11    1    3    3    0    0  0.17145660636E+02  0.11751488058E+02  0.52640994957E+02  0.56596338223E+02  0.00000000000E+00 0. -1.
</event>
<event>
 8    1  0.5900800E-006  0.9977314E+02  0.7561462E-02  0.1280774E+00
          1   -1    0    0  501    0  0.00000000000E+00  0.00000000000E+00  0.93536296272E+03  0.93536296272E+03  0.00000000000E+00 0. -1.
         -1   -1    0    0    0  501 -0.00000000000E+00 -0.00000000000E+00 -0.17771295539E+02  0.17771295539E+02  0.00000000000E+00 0.  1.
         23    2    1    2    0    0 -0.10252670584E+02 -0.53442494964E+02  0.25849409693E+03  0.28006801980E+03  0.93046655199E+02 0.  0.
         23    2    1    2    0    0  0.10252670584E+02  0.53442494964E+02  0.65909757025E+03  0.67306623846E+03  0.12508931498E+03 0.  0.
          5    1    4    4  502    0  0.19280529107E+02  0.79714023143E+02  0.61709663409E+03  0.62253657924E+03  0.41800000000E+01 0.  1.
         -5    1    4    4    0  502 -0.90278585231E+01 -0.26271528179E+02  0.42000936158E+02  0.50529659216E+02  0.41800000000E+01 0.  1.
        -11    1    3    3    0    0 -0.17222274977E+02  0.13591750294E+02  0.13024056108E+02  0.25514083737E+02  0.00000000000E+00 0. -1.
         11    1    3    3    0    0  0.69696043929E+01 -0.67034245258E+02  0.24547004083E+03  0.25455393607E+03  0.00000000000E+00 0.  1.
</event>
<event>
 8    1  0.5900800E-006  0.1266195E+03  0.7561462E-02  0.1232560E+00
          2   -1    0    0  501    0  0.00000000000E+00  0.00000000000E+00  0.11115824937E+04  0.11115824937E+04  0.00000000000E+00 0.  1.
         -2   -1    0    0    0  501 -0.00000000000E+00 -0.00000000000E+00 -0.16030701699E+02  0.16030701699E+02  0.00000000000E+00 0. -1.
         23    2    1    2    0    0 -0.55993882839E+02 -0.51534035827E+02  0.41636367975E+03  0.43282223911E+03  0.90472675910E+02 0.  0.
         23    2    1    2    0    0  0.55993882839E+02  0.51534035827E+02  0.67918811229E+03  0.69479095634E+03  0.12508760674E+03 0.  0.
          5    1    4    4  502    0  0.93414350320E+02  0.29381216871E+02  0.38033242558E+03  0.39275911587E+03  0.41800000000E+01 0. -1.
         -5    1    4    4    0  502 -0.37420467482E+02  0.22152818956E+02  0.29885568671E+03  0.30203184047E+03  0.41800000000E+01 0. -1.
        -11    1    3    3    0    0 -0.17999909720E+02 -0.67843585194E+02  0.18653335869E+03  0.19930239012E+03  0.00000000000E+00 0. -1.
         11    1    3    3    0    0 -0.37993973118E+02  0.16309549367E+02  0.22983032106E+03  0.23351984899E+03  0.00000000000E+00 0.  1.
</event>
<event>
 8    1  0.5900800E-006  0.8954995E+02  0.7561462E-02  0.1303945E+00
         -3   -1    0    0    0  501 -0.00000000000E+00  0.00000000000E+00  0.90541747328E+02  0.90541747328E+02  0.00000000000E+00 0.  1.
          3   -1    0    0  501    0  0.00000000000E+00 -0.00000000000E+00 -0.15489488175E+03  0.15489488175E+03  0.00000000000E+00 0. -1.
         23    2    1    2    0    0 -0.44983939364E+02 -0.97971676918E+01 -0.11097788365E+02  0.10189923402E+03  0.90226125324E+02 0.  0.
         23    2    1    2    0    0  0.44983939364E+02  0.97971676918E+01 -0.53255346053E+02  0.14353739506E+03  0.12508921857E+03 0.  0.
          5    1    4    4  502    0  0.51948463925E+02  0.32393208761E+02 -0.84313659649E+02  0.10427956886E+03  0.41800000000E+01 0.  1.
         -5    1    4    4    0  502 -0.69645245615E+01 -0.22596041069E+02  0.31058313597E+02  0.39257826198E+02  0.41800000000E+01 0.  1.
        -11    1    3    3    0    0  0.13949604909E+02  0.22536468273E+02 -0.21178828204E+02  0.33926783571E+02  0.00000000000E+00 0. -1.
         11    1    3    3    0    0 -0.58933544273E+02 -0.32333635965E+02  0.10081039840E+02  0.67972450445E+02  0.00000000000E+00 0.  1.
</event>
<event>
 8    1  0.7320136E-006  0.1133394E+03  0.7561462E-02  0.1254508E+00
         -4   -1    0    0    0  501 -0.00000000000E+00  0.00000000000E+00  0.57465944115E+02  0.57465944115E+02  0.00000000000E+00 0.  1.
          4   -1    0    0  501    0  0.00000000000E+00 -0.00000000000E+00 -0.27571713164E+03  0.27571713164E+03  0.00000000000E+00 0. -1.
         23    2    1    2    0    0  0.21006006580E+02 -0.55744720104E+02 -0.69422783939E+02  0.12984530130E+03  0.92149624026E+02 0.  0.
         23    2    1    2    0    0 -0.21006006580E+02  0.55744720104E+02 -0.14882840358E+03  0.20333777445E+03  0.12509048994E+03 0.  0.
          5    1    4    4  502    0  0.21144069751E+02  0.84594715502E+02 -0.94610676360E+02  0.12873224172E+03  0.41800000000E+01 0. -1.
         -5    1    4    4    0  502 -0.42150076330E+02 -0.28849995398E+02 -0.54217727222E+02  0.74605532732E+02  0.41800000000E+01 0. -1.
        -11    1    3    3    0    0 -0.21160264961E+02 -0.35571353168E+02  0.52786198845E+01  0.41724594753E+02  0.00000000000E+00 0.  1.
         11    1    3    3    0    0  0.42166271541E+02 -0.20173366936E+02 -0.74701403823E+02  0.88120706547E+02  0.00000000000E+00 0. -1.
</event>
<event>
 8    1  0.5900800E-006  0.1186197E+03  0.7561462E-02  0.1245392E+00
         -2   -1    0    0    0  501 -0.00000000000E+00  0.00000000000E+00  0.29613654460E+03  0.29613654460E+03  0.00000000000E+00 0.  1.
          2   -1    0    0  501    0  0.00000000000E+00 -0.00000000000E+00 -0.61205096787E+02  0.61205096787E+02  0.00000000000E+00 0. -1.
         23    2    1    2    0    0 -0.69155433466E+02 -0.30655159429E+02  0.12903721466E+03  0.17683331525E+03  0.94325001120E+02 0.  0.
         23    2    1    2    0    0  0.69155433466E+02  0.30655159429E+02  0.10589423315E+03  0.18050832614E+03  0.12508978541E+03 0.  0.
          5    1    4    4  502    0 -0.34572789615E+02 -0.51663353796E+01  0.16382706334E+02  0.38830841735E+02  0.41800000000E+01 0.  1.
         -5    1    4    4    0  502  0.10372822308E+03  0.35821494808E+02  0.89511526815E+02  0.14167748440E+03  0.41800000000E+01 0.  1.
        -11    1    3    3    0    0  0.64627703900E+01 -0.13067292782E+02 -0.99378047458E+01  0.17643171624E+02  0.00000000000E+00 0. -1.
         11    1    3    3    0    0 -0.75618203856E+02 -0.17587866646E+02  0.13897501941E+03  0.15919014363E+03  0.00000000000E+00 0.  1.
</event>
<event>
 8    1  0.5900800E-006  0.9414104E+02  0.7561462E-02  0.1293122E+00
          3   -1    0    0  501    0  0.00000000000E+00  0.00000000000E+00  0.73605619311E+02  0.73605619311E+02  0.00000000000E+00 0.  1.
         -3   -1    0    0    0  501 -0.00000000000E+00 -0.00000000000E+00 -0.23332350171E+03  0.23332350171E+03  0.00000000000E+00 0. -1.
         23    2    1    2    0    0 -0.18243644777E+02  0.47010929706E+02 -0.13584702023E+03  0.17002174100E+03  0.88938863380E+02 0.  0.
         23    2    1    2    0    0  0.18243644777E+02 -0.47010929706E+02 -0.23870862164E+02  0.13690738002E+03  0.12502381596E+03 0.  0.
          5    1    4    4  502    0  0.45006951003E+02 -0.33367127612E+02 -0.64928914969E+02  0.85861675052E+02  0.41800000000E+01 0. -1.
         -5    1    4    4    0  502 -0.26763306225E+02 -0.13643802094E+02  0.41058052804E+02  0.51045704969E+02  0.41800000000E+01 0. -1.
        -11    1    3    3    0    0 -0.21156165812E+02  0.72802577341E+02 -0.10800327183E+03  0.13195645246E+03  0.00000000000E+00 0.  1.
         11    1    3    3    0    0  0.29125210340E+01 -0.25791647635E+02 -0.27843748402E+02  0.38065288540E+02  0.00000000000E+00 0. -1.
</event>
<event>
 8    1  0.5900800E-006  0.1123680E+03  0.7561462E-02  0.1256246E+00
         -1   -1    0    0    0  501 -0.00000000000E+00  0.00000000000E+00  0.46493518315E+03  0.46493518315E+03  0.00000000000E+00 0.  1.
          1   -1    0    0  501    0  0.00000000000E+00 -0.00000000000E+00 -0.30035491676E+02  0.30035491676E+02  0.00000000000E+00 0. -1.
         23    2    1    2    0    0  0.38837895540E+02  0.20677663560E+02  0.21083084681E+03  0.23460532135E+03  0.93027216124E+02 0.  0.
         23    2    1    2    0    0 -0.38837895540E+02 -0.20677663560E+02  0.22406884466E+03  0.26036535347E+03  0.12508925710E+03 0.  0.
          5    1    4    4  502    0  0.43601278563E+02 -0.75399803096E+00  0.10803521055E+03  0.11657923968E+03  0.41800000000E+01 0.  1.
         -5    1    4    4    0  502 -0.82439174103E+02 -0.19923665529E+02  0.11603363411E+03  0.14378611379E+03  0.41800000000E+01 0.  1.
        -11    1    3    3    0    0  0.55579808487E+02 -0.14165225004E+02  0.81776026359E+02  0.99885370289E+02  0.00000000000E+00 0. -1.
         11    1    3    3    0    0 -0.16741912947E+02  0.34842888564E+02  0.12905482045E+03  0.13471995106E+03  0.00000000000E+00 0.  1.
</event>
<event>
 8    1  0.5900800E-006  0.7451027E+02  0.7561462E-02  0.1345394E+00
          1   -1    0    0  501    0  0.00000000000E+00  0.00000000000E+00  0.54996265040E+03  0.54996265040E+03  0.00000000000E+00 0. -1.
         -1   -1    0    0    0  501 -0.00000000000E+00 -0.00000000000E+00 -0.25186599582E+02  0.25186599582E+02  0.00000000000E+00 0.  1.
         23    2    1    2    0    0 -0.39996503865E+02 -0.14440107247E+02  0.17722575267E+03  0.20333347519E+03  0.90151526358E+02 0.  0.
         23    2    1    2    0    0  0.39996503865E+02  0.14440107247E+02  0.34755029815E+03  0.37181577480E+03  0.12509006204E+03 0.  0.
          5    1    4    4  502    0  0.57666200635E+02  0.30960989451E+02  0.81393011620E+02  0.10452879175E+03  0.41800000000E+01 0.  1.
         -5    1    4    4    0  502 -0.17669696769E+02 -0.16520882204E+02  0.26615728653E+03  0.26728698305E+03  0.41800000000E+01 0.  1.
        -11    1    3    3    0    0 -0.14068769140E+02 -0.26720297074E+02  0.73862092918E+01  0.31087949893E+02  0.00000000000E+00 0.  1.
         11    1    3    3    0    0 -0.25927734725E+02  0.12280189827E+02  0.16983954337E+03  0.17224552529E+03  0.00000000000E+00 0. -1.
</event>
<event>
 8    1  0.6569615E-006  0.2322238E+03  0.7561462E-02  0.1125084E+00
          2   -1    0    0  501    0  0.00000000000E+00  0.00000000000E+00  0.21689354127E+03  0.21689354127E+03  0.00000000000E+00 0. -1.
         -2   -1    0    0    0  501 -0.00000000000E+00 -0.00000000000E+00 -0.25658421745E+03  0.25658421745E+03  0.00000000000E+00 0.  1.
         23    2    1    2    0    0  0.12011562124E+03  0.17030182453E+03 -0.37449738317E+02  0.23040765013E+03  0.90855536071E+02 0.  0.
         23    2    1    2    0    0 -0.12011562124E+03 -0.17030182453E+03 -0.22409378628E+01  0.24307010858E+03  0.12509029532E+03 0.  0.
          5    1    4    4  502    0 -0.36141594115E+02  0.11964593893E+02 -0.16793094152E+02  0.41819215002E+02  0.41800000000E+01 0. -1.
         -5    1    4    4    0  502 -0.83974027124E+02 -0.18226641842E+03  0.14552156289E+02  0.20125089358E+03  0.41800000000E+01 0. -1.
        -11    1    3    3    0    0  0.33453761598E+02  0.12138298376E+03 -0.35718861923E+02  0.13087711797E+03  0.00000000000E+00 0.  1.
         11    1    3    3    0    0  0.86661859641E+02  0.48918840769E+02 -0.17308763938E+01  0.99530532159E+02  0.00000000000E+00 0. -1.
</event>
<event>
 8    1  0.5900800E-006  0.1159420E+03  0.7561462E-02  0.1249946E+00
          2   -1    0    0  501    0  0.00000000000E+00  0.00000000000E+00  0.78133451595E+03  0.78133451595E+03  0.00000000000E+00 0. -1.
         -2   -1    0    0    0  501 -0.00000000000E+00 -0.00000000000E+00 -0.37273147594E+02  0.37273147594E+02  0.00000000000E+00 0.  1.
         23    2    1    2    0    0 -0.27277075735E+02  0.10303714613E+03  0.17417296322E+03  0.22549621754E+03  0.95664155580E+02 0.  0.
         23    2    1    2    0    0  0.27277075735E+02 -0.10303714613E+03  0.56988840513E+03  0.59311144600E+03  0.12509076997E+03 0.  0.
          5    1    4    4  502    0  0.34701767750E+02 -0.33508437157E+02  0.54163759298E+02  0.72651312906E+02  0.41800000000E+01 0. -1.
         -5    1    4    4    0  502 -0.74246920154E+01 -0.69528708975E+02  0.51572464583E+03  0.52046013309E+03  0.41800000000E+01 0. -1.
        -11    1    3    3    0    0 -0.32295097458E+02  0.46266503805E+02  0.17961480290E+02  0.59212983951E+02  0.00000000000E+00 0.  1.
         11    1    3    3    0    0  0.50180217236E+01  0.56770642326E+02  0.15621148293E+03  0.16628323359E+03  0.00000000000E+00 0. -1.
</event>
<event>
 7    1  0.5900800E-006  0.2330657E+03  0.7561462E-02  0.1124500E+00
          1   -1    0    0  501    0  0.00000000000E+00  0.00000000000E+00  0.83747820533E+03  0.83747820533E+03  0.00000000000E+00 0. -1.
         -1   -1    0    0    0  501 -0.00000000000E+00 -0.00000000000E+00 -0.77935548062E+02  0.77935548062E+02  0.00000000000E+00 0.  1.
         23    2    1    2    0    0 -0.16122903434E+03 -0.67850416935E+02  0.15653929332E+03  0.25183429000E+03  0.91200212041E+02 0.  0.
          5    1    1    2  502    0  0.18729548078E+03  0.11532200042E+03  0.51700299965E+03  0.56186149089E+03  0.41800000000E+01 0. -1.
         -5    1    1    2    0  502 -0.26066446441E+02 -0.47471583487E+02  0.86000364297E+02  0.10171797249E+03  0.41800000000E+01 0.  1.
        -11    1    3    3    0    0  0.90595612390E+01 -0.46493818405E+01  0.26658644397E+02  0.28537269008E+02  0.00000000000E+00 0. -1.
         11    1    3    3    0    0 -0.17028859558E+03 -0.63201035095E+02  0.12988064892E+03  0.22329702099E+03  0.00000000000E+00 0.  1.
</event>
<event>
 7    1  0.5900800E-006  0.1807776E+03  0.7561462E-02  0.1167053E+00
         -2   -1    0    0    0  501 -0.00000000000E+00  0.00000000000E+00  0.28888435241E+02  0.28888435241E+02  0.00000000000E+00 0.  1.
          2   -1    0    0  501    0  0.00000000000E+00 -0.00000000000E+00 -0.21144649902E+04  0.21144649902E+04  0.00000000000E+00 0. -1.
         23    2    1    2    0    0  0.60178012259E+02  0.13065579179E+03 -0.29535727502E+03  0.34084944764E+03  0.90830044359E+02 0.  0.
          5    1    1    2  502    0  0.38862961531E+02 -0.23375704995E+02 -0.82897378060E+03  0.83022391840E+03  0.41800000000E+01 0. -1.
         -5    1    1    2    0  502 -0.99040973791E+02 -0.10728008680E+03 -0.96124549934E+03  0.97228005940E+03  0.41800000000E+01 0.  1.
        -11    1    3    3    0    0  0.57445803007E+02  0.14467431198E+03 -0.26591066822E+03  0.30812198932E+03  0.00000000000E+00 0. -1.
         11    1    3    3    0    0  0.27322092528E+01 -0.14018520189E+02 -0.29446606798E+02  0.32727458313E+02  0.00000000000E+00 0.  1.
</event>
<event>
 8    1  0.5900800E-006  0.8607667E+02  0.7561462E-02  0.1312641E+00
         -1   -1    0    0    0  501 -0.00000000000E+00  0.00000000000E+00  0.23646182689E+02  0.23646182689E+02  0.00000000000E+00 0.  1.
          1   -1    0    0  501    0  0.00000000000E+00 -0.00000000000E+00 -0.54932679180E+03  0.54932679180E+03  0.00000000000E+00 0. -1.
         23    2    1    2    0    0 -0.32481254730E+00 -0.16679594699E+02 -0.14001457986E+03  0.16718450059E+03  0.89823495157E+02 0.  0.
         23    2    1    2    0    0  0.32481254730E+00  0.16679594699E+02 -0.38566602925E+03  0.40578847389E+03  0.12509070728E+03 0.  0.
          5    1    4    4  502    0  0.31481644618E+02 -0.22555971483E+02 -0.37699818582E+02  0.54208989278E+02  0.41800000000E+01 0.  1.
         -5    1    4    4    0  502 -0.31156832071E+02  0.39235566182E+02 -0.34796621066E+03  0.35157948462E+03  0.41800000000E+01 0.  1.
        -11    1    3    3    0    0  0.23879390830E+01 -0.49717835115E+02 -0.11606720208E+03  0.12628998685E+03  0.00000000000E+00 0. -1.
         11    1    3    3    0    0 -0.27127516303E+01  0.33038240416E+02 -0.23947377783E+02  0.40894513738E+02  0.00000000000E+00 0.  1.
</event>
<event>
 8    1  0.2092588E-005  0.2364170E+03  0.7561462E-02  0.1122203E+00
         -2   -1    0    0    0  501 -0.00000000000E+00  0.00000000000E+00  0.25872545434E+03  0.25872545434E+03  0.00000000000E+00 0.  1.
          2   -1    0    0  501    0  0.00000000000E+00 -0.00000000000E+00 -0.24535762419E+03  0.24535762419E+03  0.00000000000E+00 0. -1.
         23    2    1    2    0    0  0.11232891459E+03  0.18974260535E+03  0.61320014671E+02  0.24607712512E+03  0.90408882151E+02 0.  0.
         23    2    1    2    0    0 -0.11232891459E+03 -0.18974260535E+03 -0.47952184521E+02  0.25800595341E+03  0.12509044192E+03 0.  0.
          5    1    4    4  502    0 -0.12703589672E+03 -0.17214938602E+03 -0.10942358150E+02  0.21426791119E+03  0.41800000000E+01 0. -1.
         -5    1    4    4    0  502  0.14706982133E+02 -0.17593219325E+02 -0.37009826371E+02  0.43738042225E+02  0.41800000000E+01 0. -1.
        -11    1    3    3    0    0  0.97180585155E+02  0.83223047638E+02  0.51909305683E+02  0.13807504411E+03  0.00000000000E+00 0.  1.
         11    1    3    3    0    0  0.15148329434E+02  0.10651955771E+03  0.94107089872E+01  0.10800208101E+03  0.00000000000E+00 0. -1.
</event>
<event>
 8    1  0.5900800E-006  0.1168686E+03  0.7561462E-02  0.1248354E+00
         -1   -1    0    0    0  501 -0.00000000000E+00  0.00000000000E+00  0.26609907374E+02  0.26609907374E+02  0.00000000000E+00 0.  1.
          1   -1    0    0  501    0  0.00000000000E+00 -0.00000000000E+00 -0.53431625406E+03  0.53431625406E+03  0.00000000000E+00 0. -1.
         23    2    1    2    0    0  0.47282164351E+02  0.15358762965E+02 -0.23124404120E+03  0.25343080796E+03  0.91004797502E+02 0.  0.
         23    2    1    2    0    0 -0.47282164351E+02 -0.15358762965E+02 -0.27646230548E+03  0.30749535347E+03  0.12510192399E+03 0.  0.
          5    1    4    4  502    0 -0.41548427867E+02  0.51002778186E+02 -0.16354693316E+03  0.17633101538E+03  0.41800000000E+01 0. -1.
         -5    1    4    4    0  502 -0.57337364843E+01 -0.66361541150E+02 -0.11291537232E+03  0.13116433808E+03  0.41800000000E+01 0. -1.
        -11    1    3    3    0    0 -0.28778603228E+01 -0.31980285786E+02 -0.49114910064E+02  0.58679597388E+02  0.00000000000E+00 0.  1.
         11    1    3    3    0    0  0.50160024674E+02  0.47339048751E+02 -0.18212913114E+03  0.19475121058E+03  0.00000000000E+00 0. -1.
</event>
<event>
 8    1  0.5900800E-006  0.1449606E+03  0.7561462E-02  0.1206806E+00
         -2   -1    0    0    0  501 -0.00000000000E+00  0.00000000000E+00  0.55685830010E+02  0.55685830010E+02  0.00000000000E+00 0. -1.
          2   -1    0    0  501    0  0.00000000000E+00 -0.00000000000E+00 -0.59963702978E+03  0.59963702978E+03  0.00000000000E+00 0.  1.
         23    2    1    2    0    0  0.43851189716E+02  0.84165688978E+02 -0.63446913135E+02  0.14981448143E+03  0.97015864776E+02 0.  0.
         23    2    1    2    0    0 -0.43851189716E+02 -0.84165688978E+02 -0.48050428664E+03  0.50550837837E+03  0.12509021177E+03 0.  0.
          5    1    4    4  502    0 -0.78330658596E+02 -0.92511258871E+02 -0.37296414006E+03  0.39219095765E+03  0.41800000000E+01 0. -1.
         -5    1    4    4    0  502  0.34479468880E+02  0.83455698933E+01 -0.10754014658E+03  0.11331742072E+03  0.41800000000E+01 0. -1.
        -11    1    3    3    0    0 -0.14890580815E+02  0.71217744581E+02 -0.19519945333E+02  0.75330769318E+02  0.00000000000E+00 0. -1.
         11    1    3    3    0    0  0.58741770531E+02  0.12947944396E+02 -0.43926967803E+02  0.74483712109E+02  0.00000000000E+00 0.  1.
</event>
<event>
 7    1  0.5900800E-006  0.1256308E+03  0.7561462E-02  0.1234087E+00
          1   -1    0    0  501    0  0.00000000000E+00  0.00000000000E+00  0.30866981516E+02  0.30866981516E+02  0.00000000000E+00 0. -1.
         -1   -1    0    0    0  501 -0.00000000000E+00 -0.00000000000E+00 -0.77088106078E+03  0.77088106078E+03  0.00000000000E+00 0.  1.
         23    2    1    2    0    0  0.45184098264E+02 -0.20428827707E+02 -0.22614756816E+03  0.26315782640E+03  0.12510147592E+03 0.  0.
          5    1    3    3  502    0  0.74013580613E+02 -0.65307871354E+01 -0.21730130412E+03  0.22969107616E+03  0.41800000000E+01 0. -1.
         -5    1    3    3    0  502 -0.28829482349E+02 -0.13898040572E+02 -0.88462640327E+01  0.33466750239E+02  0.41800000000E+01 0. -1.
        -11    1    1    2    0    0  0.36759695081E+02  0.45853422013E+02 -0.33613033625E+03  0.34122926961E+03  0.00000000000E+00 0.  1.
         11    1    1    2    0    0 -0.81943793345E+02 -0.25424594306E+02 -0.17773617487E+03  0.19736094629E+03  0.00000000000E+00 0. -1.
</event>
<event>
 8    1  0.5900800E-006  0.9473198E+02  0.7561462E-02  0.1291781E+00
         -2   -1    0    0    0  501 -0.00000000000E+00  0.00000000000E+00  0.50231210890E+02  0.50231210890E+02  0.00000000000E+00 0.  1.
          2   -1    0    0  501    0  0.00000000000E+00 -0.00000000000E+00 -0.26777297643E+03  0.26777297643E+03  0.00000000000E+00 0. -1.
         23    2    1    2    0    0 -0.31853171934E+02 -0.27195218742E+02 -0.68159505570E+02  0.11871267455E+03  0.87708474013E+02 0.  0.
         23    2    1    2    0    0  0.31853171934E+02  0.27195218742E+02 -0.14938225997E+03  0.19929151277E+03  0.12509133857E+03 0.  0.
          5    1    4    4  502    0  0.24565365764E+01  0.59025626469E+02 -0.19567859847E+02  0.62373333172E+02  0.41800000000E+01 0.  1.
         -5    1    4    4    0  502  0.29396635357E+02 -0.31830407727E+02 -0.12981440012E+03  0.13691817960E+03  0.41800000000E+01 0.  1.
        -11    1    3    3    0    0  0.45895885296E+01 -0.45636749031E+02 -0.88699578486E+01  0.46716735087E+02  0.00000000000E+00 0.  1.
         11    1    3    3    0    0 -0.36442760463E+02  0.18441530289E+02 -0.59289547721E+02  0.71995939459E+02  0.00000000000E+00 0. -1.
</event>
<event>
 8    1  0.5900800E-006  0.1241723E+03  0.7561462E-02  0.1236369E+00
         -2   -1    0    0    0  501 -0.00000000000E+00  0.00000000000E+00  0.16806665932E+03  0.16806665932E+03  0.00000000000E+00 0.  1.
          2   -1    0    0  501    0  0.00000000000E+00 -0.00000000000E+00 -0.12635523310E+03  0.12635523310E+03  0.00000000000E+00 0. -1.
         23    2    1    2    0    0 -0.56524068153E+02 -0.74818098264E+02  0.48605246984E+02  0.13793591642E+03  0.88719382872E+02 0.  0.
         23    2    1    2    0    0  0.56524068153E+02  0.74818098264E+02 -0.68938207602E+01  0.15648597599E+03  0.12509043852E+03 0.  0.
          5    1    4    4  502    0 -0.38470889332E+02  0.16183837291E+02 -0.14837813157E+02  0.44492235443E+02  0.41800000000E+01 0.  1.
         -5    1    4    4    0  502  0.94994957485E+02  0.58634260973E+02  0.79439923965E+01  0.11199374055E+03  0.41800000000E+01 0.  1.
        -11    1    3    3    0    0 -0.30500490314E+02 -0.50919310507E+02  0.73677205895E+02  0.94611768615E+02  0.00000000000E+00 0.  1.
         11    1    3    3    0    0 -0.26023577839E+02 -0.23898787757E+02 -0.25071958912E+02  0.43324147810E+02  0.00000000000E+00 0. -1.
</event>
<event>
 8    1  0.5900800E-006  0.1897431E+03  0.7561462E-02  0.1158693E+00
          2   -1    0    0  501    0  0.00000000000E+00  0.00000000000E+00  0.63177404117E+03  0.63177404117E+03  0.00000000000E+00 0. -1.
         -2   -1    0    0    0  501 -0.00000000000E+00 -0.00000000000E+00 -0.61245809136E+02  0.61245809136E+02  0.00000000000E+00 0.  1.
         23    2    1    2    0    0  0.33501678892E+02 -0.16027841365E+03  0.26928582534E+03  0.32804547770E+03  0.91035418043E+02 0.  0.
         23    2    1    2    0    0 -0.33501678892E+02  0.16027841365E+03  0.30124240669E+03  0.36497437261E+03  0.12509105762E+03 0.  0.
          5    1    4    4  502    0 -0.71490720509E+02  0.13321501963E+03  0.26735306580E+03  0.30716819296E+03  0.41800000000E+01 0. -1.
         -5    1    4    4    0  502  0.37989041617E+02  0.27063394026E+02  0.33889340893E+02  0.57806179647E+02  0.41800000000E+01 0. -1.
        -11    1    3    3    0    0 -0.18095643418E+02 -0.10192453396E+03  0.19304813892E+03  0.21905169909E+03  0.00000000000E+00 0.  1.
         11    1    3    3    0    0  0.51597322310E+02 -0.58353879692E+02  0.76237686415E+02  0.10899377860E+03  0.00000000000E+00 0. -1.
</event>
<event>
 8    1  0.5900800E-006  0.1101770E+03  0.7561462E-02  0.1260242E+00
          1   -1    0    0  501    0  0.00000000000E+00  0.00000000000E+00  0.55901239351E+03  0.55901239351E+03  0.00000000000E+00 0.  1.
         -1   -1    0    0    0  501 -0.00000000000E+00 -0.00000000000E+00 -0.38736043688E+02  0.38736043688E+02  0.00000000000E+00 0. -1.
         23    2    1    2    0    0  0.21412409741E+02  0.96867670094E+02  0.25207342637E+03  0.28562870027E+03  0.90558850127E+02 0.  0.
         23    2    1    2    0    0 -0.21412409741E+02 -0.96867670094E+02  0.26820292345E+03  0.31211973693E+03  0.12507631763E+03 0.  0.
          5    1    4    4  502    0 -0.37616417342E+02 -0.86908421666E+02  0.27547840488E+03  0.29133124200E+03  0.41800000000E+01 0.  1.
         -5    1    4    4    0  502  0.16204007601E+02 -0.99592484284E+01 -0.72754814232E+01  0.20788494932E+02  0.41800000000E+01 0.  1.
        -11    1    3    3    0    0  0.30757445290E+02  0.53375213386E+02  0.22560592502E+03  0.23386527585E+03  0.00000000000E+00 0.  1.
         11    1    3    3    0    0 -0.93450355489E+01  0.43492456708E+02  0.26467501349E+02  0.51763424419E+02  0.00000000000E+00 0. -1.
</event>
<event>
 8    1  0.5900800E-006  0.1368589E+03  0.7561462E-02  0.1217619E+00
         -4   -1    0    0    0  501 -0.00000000000E+00  0.00000000000E+00  0.64715690350E+03  0.64715690350E+03  0.00000000000E+00 0.  1.
          4   -1    0    0  501    0  0.00000000000E+00 -0.00000000000E+00 -0.50513999342E+02  0.50513999342E+02  0.00000000000E+00 0. -1.
         23    2    1    2    0    0 -0.28450677976E+01 -0.11546540671E+03  0.44884811394E+03  0.47220982248E+03  0.90427498598E+02 0.  0.
         23    2    1    2    0    0  0.28450677976E+01  0.11546540671E+03  0.14779479021E+03  0.22546108036E+03  0.12509613977E+03 0.  0.
          5    1    4    4  502    0 -0.38716578348E+02  0.54398683099E+02  0.13459751944E+03  0.15030686878E+03  0.41800000000E+01 0. -1.
         -5    1    4    4    0  502  0.41561646146E+02  0.61066723608E+02  0.13197270774E+02  0.75154211582E+02  0.41800000000E+01 0. -1.
        -11    1    3    3    0    0  0.28651844916E+02 -0.82060222859E+02  0.18505304780E+03  0.20444911077E+03  0.00000000000E+00 0. -1.
         11    1    3    3    0    0 -0.31496912714E+02 -0.33405183849E+02  0.26379506614E+03  0.26776071171E+03  0.00000000000E+00 0.  1.
</event>
<event>
 8    1  0.5900800E-006  0.1836274E+03  0.7561462E-02  0.1164338E+00
         -1   -1    0    0    0  501 -0.00000000000E+00  0.00000000000E+00  0.10761409737E+03  0.10761409737E+03  0.00000000000E+00 0.  1.
          1   -1    0    0  501    0  0.00000000000E+00 -0.00000000000E+00 -0.34879523540E+03  0.34879523540E+03  0.00000000000E+00 0. -1.
         23    2    1    2    0    0  0.14137219594E+03  0.71233344126E+02 -0.89483415692E+02  0.20398105487E+03  0.92415918328E+02 0.  0.
         23    2    1    2    0    0 -0.14137219594E+03 -0.71233344126E+02 -0.15169772233E+03  0.25242827791E+03  0.12509016519E+03 0.  0.
          5    1    4    4  502    0 -0.29219101055E+02 -0.66077675644E+02 -0.11185080419E+03  0.13322195721E+03  0.41800000000E+01 0.  1.
         -5    1    4    4    0  502 -0.11215309488E+03 -0.51556684822E+01 -0.39846918147E+02  0.11920632070E+03  0.41800000000E+01 0.  1.
        -11    1    3    3    0    0  0.12188448585E+03  0.14737086010E+02 -0.51283158969E+02  0.13305251590E+03  0.00000000000E+00 0.  1.
         11    1    3    3    0    0  0.19487710091E+02  0.56496258116E+02 -0.38200256723E+02  0.70928538962E+02  0.00000000000E+00 0. -1.
</event>
<event>
 8    1  0.5900800E-006  0.1043244E+03  0.7561462E-02  0.1271457E+00
          2   -1    0    0  501    0  0.00000000000E+00  0.00000000000E+00  0.83571422434E+03  0.83571422434E+03  0.00000000000E+00 0. -1.
         -2   -1    0    0    0  501 -0.00000000000E+00 -0.00000000000E+00 -0.15521406548E+02  0.15521406548E+02  0.00000000000E+00 0.  1.
         23    2    1    2    0    0 -0.97256028468E+01 -0.18237779294E+02  0.23191298497E+03  0.24944881355E+03  0.89520243746E+02 0.  0.
         23    2    1    2    0    0  0.97256028468E+01  0.18237779294E+02  0.58827983283E+03  0.60178681734E+03  0.12508800051E+03 0.  0.
          5    1    4    4  502    0 -0.43360690526E+02 -0.24552195636E+02  0.36148428053E+03  0.36492645459E+03  0.41800000000E+01 0.  1.
         -5    1    4    4    0  502  0.53086293373E+02  0.42789974930E+02  0.22679555230E+03  0.23686036275E+03  0.41800000000E+01 0.  1.
        -11    1    3    3    0    0 -0.29163613041E+02  0.27842081223E+02  0.81290646769E+02  0.90740658277E+02  0.00000000000E+00 0.  1.
         11    1    3    3    0    0  0.19438010194E+02 -0.46079860517E+02  0.15062233820E+03  0.15870815527E+03  0.00000000000E+00 0. -1.
</event>
<event>
 8    1  0.5900800E-006  0.1376065E+03  0.7561462E-02  0.1216586E+00
         -1   -1    0    0    0  501 -0.00000000000E+00  0.00000000000E+00  0.32443832825E+02  0.32443832825E+02  0.00000000000E+00 0.  1.
          1   -1    0    0  501    0  0.00000000000E+00 -0.00000000000E+00 -0.79076410437E+03  0.79076410437E+03  0.00000000000E+00 0. -1.
         23    2    1    2    0    0 -0.63677915496E+02 -0.93538919351E+02 -0.27942629148E+03  0.31547259259E+03  0.92948899669E+02 0.  0.
         23    2    1    2    0    0  0.63677915496E+02  0.93538919351E+02 -0.47889398007E+03  0.50773534461E+03  0.12510527433E+03 0.  0.
          5    1    4    4  502    0  0.50399489532E+02  0.11551917998E+01 -0.59668112390E+02  0.78225309519E+02  0.41800000000E+01 0.  1.
         -5    1    4    4    0  502  0.13278425964E+02  0.92383727551E+02 -0.41922586768E+03  0.42951003509E+03  0.41800000000E+01 0.  1.
        -11    1    3    3    0    0 -0.38296769829E+02 -0.98192462617E+02 -0.26655656544E+03  0.28663706123E+03  0.00000000000E+00 0. -1.
         11    1    3    3    0    0 -0.25381145667E+02  0.46535432658E+01 -0.12869726044E+02  0.28835531359E+02  0.00000000000E+00 0.  1.
</event>
<event>
 7    1  0.5900800E-006  0.4701730E+02  0.7561462E-02  0.1462127E+00
         -3   -1    0    0    0  501 -0.00000000000E+00  0.00000000000E+00  0.25736597161E+02  0.25736597161E+02  0.00000000000E+00 0.  1.
          3   -1    0    0  501    0  0.00000000000E+00 -0.00000000000E+00 -0.30647100734E+03  0.30647100734E+03  0.00000000000E+00 0. -1.
         23    2    1    2    0    0  0.14047180562E+02  0.59363785974E+01 -0.22245491040E+03  0.25566745691E+03  0.12508835873E+03 0.  0.
          5    1    3    3  502    0  0.29826057773E+02 -0.52538192583E+01  0.17199734005E+01  0.30620696393E+02  0.41800000000E+01 0.  1.
         -5    1    3    3    0  502 -0.15778877211E+02  0.11190197856E+02 -0.22417488380E+03  0.22504676052E+03  0.41800000000E+01 0.  1.
        -11    1    1    2    0    0 -0.13385624456E+02 -0.22991249792E+02 -0.51895904227E+02  0.58317727876E+02  0.00000000000E+00 0. -1.
         11    1    1    2    0    0 -0.66155610662E+00  0.17054871194E+02 -0.63835955514E+01  0.18222419710E+02  0.00000000000E+00 0.  1.
</event>
<event>
 8    1  0.5900800E-006  0.1826118E+03  0.7561462E-02  0.1165299E+00
          2   -1    0    0  501    0  0.00000000000E+00  0.00000000000E+00  0.18559018380E+03  0.18559018380E+03  0.00000000000E+00 0. -1.
         -2   -1    0    0    0  501 -0.00000000000E+00 -0.00000000000E+00 -0.21824228007E+03  0.21824228007E+03  0.00000000000E+00 0.  1.
         23    2    1    2    0    0 -0.16234612517E+03  0.48276432743E+02 -0.11243208389E+02  0.19218602319E+03  0.90123134991E+02 0.  0.
         23    2    1    2    0    0  0.16234612517E+03 -0.48276432743E+02 -0.21408887889E+02  0.21164644068E+03  0.12509595140E+03 0.  0.
          5    1    4    4  502    0  0.52183120764E+02  0.21011521841E+02 -0.53280687887E+02  0.77594241052E+02  0.41800000000E+01 0. -1.
         -5    1    4    4    0  502  0.11016300440E+03 -0.69287954583E+02  0.31871799998E+02  0.13405219963E+03  0.41800000000E+01 0. -1.
        -11    1    3    3    0    0 -0.16073764253E+03  0.34069993779E+02  0.12163394351E+02  0.16475831501E+03  0.00000000000E+00 0. -1.
         11    1    3    3    0    0 -0.16084826370E+01  0.14206438963E+02 -0.23406602740E+02  0.27427708184E+02  0.00000000000E+00 0.  1.
</event>
<event>
 8    1  0.5900800E-006  0.1351465E+03  0.7561462E-02  0.1220013E+00
         -1   -1    0    0    0  501 -0.00000000000E+00  0.00000000000E+00  0.10841547990E+04  0.10841547990E+04  0.00000000000E+00 0.  1.
          1   -1    0    0  501    0  0.00000000000E+00 -0.00000000000E+00 -0.23642250031E+02  0.23642250031E+02  0.00000000000E+00 0. -1.
         23    2    1    2    0    0  0.66551928066E+02 -0.74089341221E+02  0.68980705225E+03  0.70408128635E+03  0.99891435304E+02 0.  0.
         23    2    1    2    0    0 -0.66551928066E+02  0.74089341221E+02  0.37070549676E+03  0.40371576272E+03  0.12508182173E+03 0.  0.
          5    1    4    4  502    0  0.19543565394E+02  0.11970546569E+02  0.62944078209E+01  0.24131657698E+02  0.41800000000E+01 0. -1.
         -5    1    4    4    0  502 -0.86095493459E+02  0.62118794652E+02  0.36441108894E+03  0.37958410502E+03  0.41800000000E+01 0. -1.
        -11    1    3    3    0    0  0.61429847219E+02  0.48707802741E+01  0.32522835749E+03  0.33101485638E+03  0.00000000000E+00 0. -1.
         11    1    3    3    0    0  0.51220808466E+01 -0.78960121495E+02  0.36457869476E+03  0.37306642997E+03  0.00000000000E+00 0.  1.
</event>
<event>
 8    1  0.5900800E-006  0.9324678E+02  0.7561462E-02  0.1295174E+00
         -1   -1    0    0    0  501 -0.00000000000E+00  0.00000000000E+00  0.65950565141E+02  0.65950565141E+02  0.00000000000E+00 0.  1.
          1   -1    0    0  501    0  0.00000000000E+00 -0.00000000000E+00 -0.40918510307E+03  0.40918510307E+03  0.00000000000E+00 0. -1.
         23    2    1    2    0    0  0.33933295872E+02  0.55490256597E+01  0.10265157013E+02  0.98582897839E+02  0.91820226766E+02 0.  0.
         23    2    1    2    0    0 -0.33933295872E+02 -0.55490256597E+01 -0.35349969494E+03  0.37655277037E+03  0.12509074425E+03 0.  0.
          5    1    4    4  502    0  0.37817753509E+02 -0.25867015820E+02 -0.73077586119E+02  0.86354449688E+02  0.41800000000E+01 0. -1.
         -5    1    4    4    0  502 -0.71751049381E+02  0.20317990160E+02 -0.28042210882E+03  0.29019832069E+03  0.41800000000E+01 0. -1.
        -11    1    3    3    0    0 -0.75717933886E+01  0.20363927144E+02  0.39930667852E+02  0.45458550560E+02  0.00000000000E+00 0.  1.
         11    1    3    3    0    0  0.41505089261E+02 -0.14814901485E+02 -0.29665510839E+02  0.53124347280E+02  0.00000000000E+00 0. -1.
</event>
<event>
 8    1  0.5900800E-006  0.8820385E+02  0.7561462E-02  0.1307261E+00
          4   -1    0    0  501    0  0.00000000000E+00  0.00000000000E+00  0.51292829747E+02  0.51292829747E+02  0.00000000000E+00 0. -1.
         -4   -1    0    0    0  501 -0.00000000000E+00 -0.00000000000E+00 -0.26234739546E+03  0.26234739546E+03  0.00000000000E+00 0.  1.
         23    2    1    2    0    0 -0.37215776685E+02 -0.13571771904E+02 -0.10776141698E+03  0.14664998765E+03  0.91238636891E+02 0.  0.
         23    2    1    2    0    0  0.37215776685E+02  0.13571771904E+02 -0.10329314873E+03  0.16699023756E+03  0.12508820023E+03 0.  0.
          5    1    4    4  502    0 -0.21628489490E+02  0.33451104105E+02  0.66934792976E+01  0.40608410318E+02  0.41800000000E+01 0. -1.
         -5    1    4    4    0  502  0.58844266175E+02 -0.19879332200E+02 -0.10998662803E+03  0.12638182724E+03  0.41800000000E+01 0. -1.
        -11    1    3    3    0    0 -0.23161902524E+02  0.24382516810E+02 -0.23224993153E+01  0.33710159561E+02  0.00000000000E+00 0. -1.
         11    1    3    3    0    0 -0.14053874162E+02 -0.37954288715E+02 -0.10543891767E+03  0.11293982809E+03  0.00000000000E+00 0.  1.
</event>
<event>
 8    1  0.5900800E-006  0.2435128E+03  0.7561462E-02  0.1117475E+00
         -2   -1    0    0    0  501 -0.00000000000E+00  0.00000000000E+00  0.59633691998E+02  0.59633691998E+02  0.00000000000E+00 0.  1.
          2   -1    0    0  501    0  0.00000000000E+00 -0.00000000000E+00 -0.20706413575E+04  0.20706413575E+04  0.00000000000E+00 0. -1.
         23    2    1    2    0    0 -0.11532152881E+03  0.19485391682E+03 -0.25044447971E+03  0.35080959752E+03  0.95277659453E+02 0.  0.
         23    2    1    2    0    0  0.11532152881E+03 -0.19485391682E+03 -0.17605631858E+04  0.17794654520E+04  0.12508980655E+03 0.  0.
          5    1    4    4  502    0  0.30594223417E+02 -0.15346408956E+03 -0.87562481713E+03  0.88950746262E+03  0.41800000000E+01 0.  1.
         -5    1    4    4    0  502  0.84727305393E+02 -0.41389827258E+02 -0.88493836868E+03  0.88995798937E+03  0.41800000000E+01 0.  1.
        -11    1    3    3    0    0 -0.43804620380E+02  0.13784606654E+03 -0.19857349628E+03  0.24566606654E+03  0.00000000000E+00 0. -1.
         11    1    3    3    0    0 -0.71516908431E+02  0.57007850280E+02 -0.51870983434E+02  0.10514353098E+03  0.00000000000E+00 0.  1.
</event>
<event>
 8    1  0.5900800E-006  0.7639856E+02  0.7561462E-02  0.1339594E+00
          1   -1    0    0  501    0  0.00000000000E+00  0.00000000000E+00  0.14471147330E+03  0.14471147330E+03  0.00000000000E+00 0. -1.
         -1   -1    0    0    0  501 -0.00000000000E+00 -0.00000000000E+00 -0.13156373553E+03  0.13156373553E+03  0.00000000000E+00 0.  1.
         23    2    1    2    0    0  0.26847343715E+02 -0.39890697862E+02 -0.60402887621E+02  0.12340548551E+03  0.96272308486E+02 0.  0.
         23    2    1    2    0    0 -0.26847343715E+02  0.39890697862E+02  0.73550625399E+02  0.15286972332E+03  0.12508960856E+03 0.  0.
          5    1    4    4  502    0 -0.26607029248E+02  0.11676910886E+02 -0.32063353839E+02  0.43472006080E+02  0.41800000000E+01 0.  1.
         -5    1    4    4    0  502 -0.24031446717E+00  0.28213786977E+02  0.10561397924E+03  0.10939771724E+03  0.41800000000E+01 0.  1.
        -11    1    3    3    0    0  0.54401191965E+02 -0.39729902180E+02 -0.13046344815E+02  0.68616047158E+02  0.00000000000E+00 0.  1.
         11    1    3    3    0    0 -0.27553848251E+02 -0.16079568212E+00 -0.47356542807E+02  0.54789438355E+02  0.00000000000E+00 0. -1.
</event>
<event>
 8    1  0.5900800E-006  0.8692107E+02  0.7561462E-02  0.1310484E+00
          2   -1    0    0  501    0  0.00000000000E+00  0.00000000000E+00  0.12822609181E+03  0.12822609181E+03  0.00000000000E+00 0. -1.
         -2   -1    0    0    0  501 -0.00000000000E+00 -0.00000000000E+00 -0.11176159009E+03  0.11176159009E+03  0.00000000000E+00 0.  1.
         23    2    1    2    0    0 -0.39202657029E+02  0.15988229529E+02  0.32015095383E+02  0.10703359118E+03  0.92944884241E+02 0.  0.
         23    2    1    2    0    0  0.39202657029E+02 -0.15988229529E+02 -0.15550593670E+02  0.13295409072E+03  0.12506997031E+03 0.  0.
          5    1    4    4  502    0  0.24311147034E+02 -0.37768617772E+02 -0.63602468096E+02  0.77975936714E+02  0.41800000000E+01 0. -1.
         -5    1    4    4    0  502  0.14891509995E+02  0.21780388243E+02  0.48051874426E+02  0.54978154005E+02  0.41800000000E+01 0. -1.
        -11    1    3    3    0    0  0.25188109398E+02  0.26740597943E+02  0.13981119576E+02  0.39306133593E+02  0.00000000000E+00 0.  1.
         11    1    3    3    0    0 -0.64390766427E+02 -0.10752368415E+02  0.18033975807E+02  0.67727457585E+02  0.00000000000E+00 0. -1.
</event>
<event>
 8    1  0.5900800E-006  0.8852002E+02  0.7561462E-02  0.1306476E+00
          2   -1    0    0  501    0  0.00000000000E+00  0.00000000000E+00  0.20449217911E+03  0.20449217911E+03  0.00000000000E+00 0. -1.
         -2   -1    0    0    0  501 -0.00000000000E+00 -0.00000000000E+00 -0.61112906640E+02  0.61112906640E+02  0.00000000000E+00 0.  1.
         23    2    1    2    0    0 -0.82398015978E+01 -0.24829601961E+02  0.68068481297E+02  0.11726884539E+03  0.91838229999E+02 0.  0.
         23    2    1    2    0    0  0.82398015978E+01  0.24829601961E+02  0.75310791174E+02  0.14833624036E+03  0.12509005345E+03 0.  0.
          5    1    4    4  502    0  0.17898648673E+02  0.70657302879E+02  0.19917263826E+02  0.75676851631E+02  0.41800000000E+01 0.  1.
         -5    1    4    4    0  502 -0.96588470749E+01 -0.45827700919E+02  0.55393527348E+02  0.72659388728E+02  0.41800000000E+01 0.  1.
        -11    1    3    3    0    0  0.18157252752E+02 -0.24646727572E+02 -0.12061024341E+02  0.32903120151E+02  0.00000000000E+00 0.  1.
         11    1    3    3    0    0 -0.26397054350E+02 -0.18287438842E+00  0.80129505639E+02  0.84365725240E+02  0.00000000000E+00 0. -1.
</event>
<event>
 8    1  0.5900800E-006  0.1299796E+03  0.7561462E-02  0.1227486E+00
         -1   -1    0    0    0  501 -0.00000000000E+00  0.00000000000E+00  0.54154192327E+02  0.54154192327E+02  0.00000000000E+00 0.  1.
          1   -1    0    0  501    0  0.00000000000E+00 -0.00000000000E+00 -0.47379109828E+03  0.47379109828E+03  0.00000000000E+00 0. -1.
         23    2    1    2    0    0  0.91761499593E+01  0.10703745100E+03 -0.12013630379E+03  0.18605436598E+03  0.92963853017E+02 0.  0.
         23    2    1    2    0    0 -0.91761499593E+01 -0.10703745100E+03 -0.29950060216E+03  0.34189092463E+03  0.12509027141E+03 0.  0.
          5    1    4    4  502    0  0.13831666724E+02  0.17389059591E+02 -0.12073716008E+03  0.12283577908E+03  0.41800000000E+01 0. -1.
         -5    1    4    4    0  502 -0.23007816684E+02 -0.12442651059E+03 -0.17876344209E+03  0.21905514555E+03  0.41800000000E+01 0. -1.
        -11    1    3    3    0    0 -0.92073319565E+01  0.49284286801E+02  0.14947080273E+01  0.50159246798E+02  0.00000000000E+00 0.  1.
         11    1    3    3    0    0  0.18383481916E+02  0.57753164195E+02 -0.12163101181E+03  0.13589511918E+03  0.00000000000E+00 0. -1.
</event>
<event>
 8    1  0.5900800E-006  0.1151868E+03  0.7561462E-02  0.1251255E+00
         -3   -1    0    0    0  501 -0.00000000000E+00  0.00000000000E+00  0.26558732950E+03  0.26558732950E+03  0.00000000000E+00 0.  1.
          3   -1    0    0  501    0  0.00000000000E+00 -0.00000000000E+00 -0.68318138611E+02  0.68318138611E+02  0.00000000000E+00 0. -1.
         23    2    1    2    0    0  0.23148084800E+01  0.46878680994E+02  0.16732340859E+03  0.19699095759E+03  0.92765000081E+02 0.  0.
         23    2    1    2    0    0 -0.23148084800E+01 -0.46878680994E+02  0.29945782302E+02  0.13691451052E+03  0.12508342913E+03 0.  0.
          5    1    4    4  502    0  0.39461372948E+02 -0.69293776389E+02  0.38351793414E+02  0.88584196442E+02  0.41800000000E+01 0. -1.
         -5    1    4    4    0  502 -0.41776181428E+02  0.22415095395E+02 -0.84060111127E+01  0.48330314081E+02  0.41800000000E+01 0. -1.
        -11    1    3    3    0    0 -0.43811579197E+02  0.32707639197E+02  0.74939784691E+02  0.92764300585E+02  0.00000000000E+00 0.  1.
         11    1    3    3    0    0  0.46126387676E+02  0.14171041796E+02  0.92383623899E+02  0.10422665700E+03  0.00000000000E+00 0. -1.
</event>
<event>
 7    1  0.5900800E-006  0.1566497E+03  0.7561462E-02  0.1192532E+00
         -1   -1    0    0    0  501 -0.00000000000E+00  0.00000000000E+00  0.13498971994E+03  0.13498971994E+03  0.00000000000E+00 0.  1.
          1   -1    0    0  501    0  0.00000000000E+00 -0.00000000000E+00 -0.25130157738E+03  0.25130157738E+03  0.00000000000E+00 0. -1.
         23    2    1    2    0    0  0.34813249312E+02 -0.26935714248E+02  0.49362556363E+02  0.11640033566E+03  0.95785599867E+02 0.  0.
          5    1    1    2  502    0 -0.11377641097E+03 -0.21764235188E+02 -0.11835617972E+03  0.16566354851E+03  0.41800000000E+01 0. -1.
         -5    1    1    2    0  502  0.78963161660E+02  0.48699949436E+02 -0.47318234079E+02  0.10422741314E+03  0.41800000000E+01 0.  1.
        -11    1    3    3    0    0  0.66064099044E+02 -0.48338653275E+01  0.38481057690E+02  0.76606939878E+02  0.00000000000E+00 0.  1.
         11    1    3    3    0    0 -0.31250849732E+02 -0.22101848920E+02  0.10881498673E+02  0.39793395784E+02  0.00000000000E+00 0. -1.
</event>
<event>
 8    1  0.5900800E-006  0.1011392E+03  0.7561462E-02  0.1277918E+00
          2   -1    0    0  501    0  0.00000000000E+00  0.00000000000E+00  0.89394392666E+03  0.89394392666E+03  0.00000000000E+00 0. -1.
         -2   -1    0    0    0  501 -0.00000000000E+00 -0.00000000000E+00 -0.16644650918E+02  0.16644650918E+02  0.00000000000E+00 0.  1.
         23    2    1    2    0    0  0.50588641474E+02 -0.68469679906E+01  0.29994816430E+03  0.31764061752E+03  0.91217153064E+02 0.  0.
         23    2    1    2    0    0 -0.50588641474E+02  0.68469679906E+01  0.57735111145E+03  0.59294796007E+03  0.12508751273E+03 0.  0.
          5    1    4    4  502    0  0.11042779098E+02  0.36041544539E+02  0.59168225774E+02  0.70280062921E+02  0.41800000000E+01 0. -1.
         -5    1    4    4    0  502 -0.61631420572E+02 -0.29194576548E+02  0.51818288567E+03  0.52266789714E+03  0.41800000000E+01 0. -1.
        -11    1    3    3    0    0  0.12491775990E+02  0.36346886153E+02  0.63039580573E+02  0.73831763619E+02  0.00000000000E+00 0.  1.
         11    1    3    3    0    0  0.38096865484E+02 -0.43193854143E+02  0.23690858372E+03  0.24380885390E+03  0.00000000000E+00 0. -1.
</event>
<event>
 8    1  0.5900800E-006  0.2424928E+03  0.7561462E-02  0.1118143E+00
         -4   -1    0    0    0  501 -0.00000000000E+00  0.00000000000E+00  0.83550086185E+03  0.83550086185E+03  0.00000000000E+00 0. -1.
          4   -1    0    0  501    0  0.00000000000E+00 -0.00000000000E+00 -0.78426610607E+02  0.78426610607E+02  0.00000000000E+00 0.  1.
         23    2    1    2    0    0 -0.21381429779E+03  0.54995227567E+02  0.49195195656E+03  0.54693562122E+03  0.91546803370E+02 0.  0.
         23    2    1    2    0    0  0.21381429779E+03 -0.54995227567E+02  0.26512229469E+03  0.36699185123E+03  0.12510858780E+03 0.  0.
          5    1    4    4  502    0  0.10307297640E+03  0.37100700975E+02  0.11138477484E+03  0.15628352742E+03  0.41800000000E+01 0.  1.
         -5    1    4    4    0  502  0.11074132139E+03 -0.92095928542E+02  0.15373751985E+03  0.21070832382E+03  0.41800000000E+01 0.  1.
        -11    1    3    3    0    0 -0.19715698471E+03  0.69631807110E+02  0.38911487099E+03  0.44173504276E+03  0.00000000000E+00 0.  1.
         11    1    3    3    0    0 -0.16657313079E+02 -0.14636579543E+02  0.10283708557E+03  0.10520057846E+03  0.00000000000E+00 0. -1.
</event>
<event>
 8    1  0.5900800E-006  0.1033203E+03  0.7561462E-02  0.1273465E+00
          1   -1    0    0  501    0  0.00000000000E+00  0.00000000000E+00  0.48591672107E+03  0.48591672107E+03  0.00000000000E+00 0. -1.
         -1   -1    0    0    0  501 -0.00000000000E+00 -0.00000000000E+00 -0.32807795722E+02  0.32807795722E+02  0.00000000000E+00 0.  1.
         23    2    1    2    0    0 -0.49590591334E+02  0.17813906926E+02  0.12309986014E+03  0.16189590987E+03  0.90995318759E+02 0.  0.
         23    2    1    2    0    0  0.49590591334E+02 -0.17813906926E+02  0.33000906520E+03  0.35682860692E+03  0.12507641493E+03 0.  0.
          5    1    4    4  502    0 -0.18047625022E+02  0.24535166337E+02  0.19978138201E+02  0.36664554573E+02  0.41800000000E+01 0. -1.
         -5    1    4    4    0  502  0.67638216356E+02 -0.42349073263E+02  0.31003092700E+03  0.32016405235E+03  0.41800000000E+01 0. -1.
        -11    1    3    3    0    0 -0.61438797004E+02  0.38243298810E+02  0.11688554091E+03  0.13747547183E+03  0.00000000000E+00 0. -1.
         11    1    3    3    0    0  0.11848205670E+02 -0.20429391884E+02  0.62143192306E+01  0.24420438036E+02  0.00000000000E+00 0.  1.
</event>
<event>
 7    1  0.5900800E-006  0.2887570E+03  0.7561462E-02  0.1091000E+00
          1   -1    0    0  501    0  0.00000000000E+00  0.00000000000E+00  0.18614752700E+03  0.18614752700E+03  0.00000000000E+00 0. -1.
         -1   -1    0    0    0  501 -0.00000000000E+00 -0.00000000000E+00 -0.79261409802E+03  0.79261409802E+03  0.00000000000E+00 0.  1.
         23    2    1    2    0    0  0.90286997444E+02 -0.14260085783E+03 -0.51085309068E+03  0.54583692770E+03  0.92088679109E+02 0.  0.
          5    1    1    2  502    0 -0.22854633948E+03  0.52811536230E+02  0.13812755156E+02  0.23501223852E+03  0.41800000000E+01 0. -1.
         -5    1    1    2    0  502  0.13825934203E+03  0.89789321601E+02 -0.10942623549E+03  0.19791245880E+03  0.41800000000E+01 0.  1.
        -11    1    3    3    0    0  0.27053174798E+01 -0.51698080047E+02 -0.68720046500E+02  0.86037520968E+02  0.00000000000E+00 0. -1.
         11    1    3    3    0    0  0.87581679964E+02 -0.90902777784E+02 -0.44213304418E+03  0.45979940673E+03  0.00000000000E+00 0.  1.
</event>
<event>
 8    1  0.5900800E-006  0.1226892E+03  0.7561462E-02  0.1238726E+00
          2   -1    0    0  501    0  0.00000000000E+00  0.00000000000E+00  0.79603749201E+03  0.79603749201E+03  0.00000000000E+00 0. -1.
         -2   -1    0    0    0  501 -0.00000000000E+00 -0.00000000000E+00 -0.25271504460E+02  0.25271504460E+02  0.00000000000E+00 0.  1.
         23    2    1    2    0    0  0.51912177850E+02 -0.72875543963E+02  0.28961620705E+03  0.31618177035E+03  0.89931337145E+02 0.  0.
         23    2    1    2    0    0 -0.51912177850E+02  0.72875543963E+02  0.48114978050E+03  0.50512722612E+03  0.12507071668E+03 0.  0.
          5    1    4    4  502    0 -0.67350937039E+02  0.11068402360E+02  0.11778385738E+03  0.13619532925E+03  0.41800000000E+01 0.  1.
         -5    1    4    4    0  502  0.15438759189E+02  0.61807141604E+02  0.36336592312E+03  0.36893189687E+03  0.41800000000E+01 0.  1.
        -11    1    3    3    0    0 -0.43524942183E+01 -0.53453521798E+02  0.21020901891E+03  0.21694251503E+03  0.00000000000E+00 0. -1.
         11    1    3    3    0    0  0.56264672068E+02 -0.19422022165E+02  0.79407188140E+02  0.99239255319E+02  0.00000000000E+00 0.  1.
</event>
<event>
 8    1  0.5900800E-006  0.9145835E+02  0.7561462E-02  0.1299358E+00
          1   -1    0    0  501    0  0.00000000000E+00  0.00000000000E+00  0.16241591033E+03  0.16241591033E+03  0.00000000000E+00 0. -1.
         -1   -1    0    0    0  501 -0.00000000000E+00 -0.00000000000E+00 -0.97008557241E+02  0.97008557241E+02  0.00000000000E+00 0.  1.
         23    2    1    2    0    0 -0.40573238751E+02 -0.45687248693E+02  0.22772139765E+02  0.11382614549E+03  0.93296884468E+02 0.  0.
         23    2    1    2    0    0  0.40573238751E+02  0.45687248693E+02  0.42635213323E+02  0.14559832208E+03  0.12509035767E+03 0.  0.
          5    1    4    4  502    0  0.45706435432E+02  0.70130451860E+02 -0.12674281401E+02  0.84767141789E+02  0.41800000000E+01 0. -1.
         -5    1    4    4    0  502 -0.51331966808E+01 -0.24443203167E+02  0.55309494724E+02  0.60831180293E+02  0.41800000000E+01 0. -1.
        -11    1    3    3    0    0  0.59470655064E+01 -0.19515920209E+02 -0.31612302281E+02  0.37624146306E+02  0.00000000000E+00 0.  1.
         11    1    3    3    0    0 -0.46520304258E+02 -0.26171328484E+02  0.54384442046E+02  0.76201999183E+02  0.00000000000E+00 0. -1.
</event>
<event>
 8    1  0.5900800E-006  0.1033658E+03  0.7561462E-02  0.1273373E+00
         -2   -1    0    0    0  501 -0.00000000000E+00  0.00000000000E+00  0.12379924537E+02  0.12379924537E+02  0.00000000000E+00 0.  1.
          2   -1    0    0  501    0  0.00000000000E+00 -0.00000000000E+00 -0.10269792958E+04  0.10269792958E+04  0.00000000000E+00 0. -1.
         23    2    1    2    0    0  0.95678468645E+01 -0.22189853101E+02 -0.32562934429E+03  0.33870895831E+03  0.90029746787E+02 0.  0.
         23    2    1    2    0    0 -0.95678468645E+01  0.22189853101E+02 -0.68897002697E+03  0.70065026202E+03  0.12508860192E+03 0.  0.
          5    1    4    4  502    0 -0.38570464951E+02 -0.41534236633E+02 -0.33716095937E+03  0.34191776571E+03  0.41800000000E+01 0. -1.
         -5    1    4    4    0  502  0.29002618086E+02  0.63724089735E+02 -0.35180906760E+03  0.35873249632E+03  0.41800000000E+01 0. -1.
        -11    1    3    3    0    0  0.42572342553E+02 -0.59886690830E+01 -0.25957999573E+03  0.26311602515E+03  0.00000000000E+00 0. -1.
         11    1    3    3    0    0 -0.33004495689E+02 -0.16201184018E+02 -0.66049348556E+02  0.75592933162E+02  0.00000000000E+00 0.  1.
</event>
<event>
 8    1  0.5900800E-006  0.1331217E+03  0.7561462E-02  0.1222896E+00
         -1   -1    0    0    0  501 -0.00000000000E+00  0.00000000000E+00  0.91501328056E+02  0.91501328056E+02  0.00000000000E+00 0.  1.
          1   -1    0    0  501    0  0.00000000000E+00 -0.00000000000E+00 -0.22378530162E+03  0.22378530162E+03  0.00000000000E+00 0. -1.
         23    2    1    2    0    0  0.16632731913E+02 -0.90356141632E+02 -0.40942552156E+02  0.13519919794E+03  0.90341853231E+02 0.  0.
         23    2    1    2    0    0 -0.16632731913E+02  0.90356141632E+02 -0.91341421405E+02  0.18008743173E+03  0.12508935887E+03 0.  0.
          5    1    4    4  502    0  0.36902172821E+02  0.60810121543E+01  0.87662674718E+01  0.38640249911E+02  0.41800000000E+01 0.  1.
         -5    1    4    4    0  502 -0.53534904734E+02  0.84275129477E+02 -0.10010768888E+03  0.14144718182E+03  0.41800000000E+01 0.  1.
        -11    1    3    3    0    0 -0.37489369254E+02 -0.37987415529E+02 -0.20399861537E+02  0.57137123627E+02  0.00000000000E+00 0. -1.
         11    1    3    3    0    0  0.54122101166E+02 -0.52368726102E+02 -0.20542690619E+02  0.78062074314E+02  0.00000000000E+00 0.  1.
</event>
<event>
 8    1  0.5900800E-006  0.8431007E+02  0.7561462E-02  0.1317247E+00
          2   -1    0    0  501    0  0.00000000000E+00  0.00000000000E+00  0.28014923327E+02  0.28014923327E+02  0.00000000000E+00 0.  1.
         -2   -1    0    0    0  501 -0.00000000000E+00 -0.00000000000E+00 -0.57630303086E+03  0.57630303086E+03  0.00000000000E+00 0. -1.
         23    2    1    2    0    0  0.39539094359E+02  0.30300187468E+02 -0.34817245752E+03  0.36312398735E+03  0.90296891838E+02 0.  0.
         23    2    1    2    0    0 -0.39539094359E+02 -0.30300187468E+02 -0.20011565002E+03  0.24119396683E+03  0.12508722921E+03 0.  0.
          5    1    4    4  502    0 -0.16107180594E+02  0.13225768521E+02 -0.18921040056E+03  0.19040065730E+03  0.41800000000E+01 0.  1.
         -5    1    4    4    0  502 -0.23431913764E+02 -0.43525955989E+02 -0.10905249453E+02  0.50793309531E+02  0.41800000000E+01 0.  1.
        -11    1    3    3    0    0 -0.24482116500E+02  0.22516811308E+02 -0.68997434030E+02  0.76596518997E+02  0.00000000000E+00 0.  1.
         11    1    3    3    0    0  0.64021210859E+02  0.77833761606E+01 -0.27917502349E+03  0.28652746836E+03  0.00000000000E+00 0. -1.
</event>
<event>
 8    1  0.5900800E-006  0.1157329E+03  0.7561462E-02  0.1250307E+00
          2   -1    0    0  501    0  0.00000000000E+00  0.00000000000E+00  0.61236092822E+02  0.61236092822E+02  0.00000000000E+00 0. -1.
         -2   -1    0    0    0  501 -0.00000000000E+00 -0.00000000000E+00 -0.33004557935E+03  0.33004557935E+03  0.00000000000E+00 0.  1.
         23    2    1    2    0    0  0.47048786085E+02  0.68770579135E+02 -0.17971091082E+03  0.21654797258E+03  0.87487325570E+02 0.  0.
         23    2    1    2    0    0 -0.47048786085E+02 -0.68770579135E+02 -0.89098575712E+02  0.17473369959E+03  0.12510127398E+03 0.  0.
          5    1    4    4  502    0  0.38619908709E+02 -0.13200140591E+02 -0.30618579947E+01  0.41141079649E+02  0.41800000000E+01 0.  1.
         -5    1    4    4    0  502 -0.85668694794E+02 -0.55570438544E+02 -0.86036717717E+02  0.13359261994E+03  0.41800000000E+01 0.  1.
        -11    1    3    3    0    0  0.22467602299E+02  0.56422352078E+02 -0.17900919911E+03  0.18903060157E+03  0.00000000000E+00 0.  1.
         11    1    3    3    0    0  0.24581183785E+02  0.12348227057E+02 -0.70171171103E+00  0.27517371006E+02  0.00000000000E+00 0. -1.
</event>
<event>
 8    1  0.5900800E-006  0.1378418E+03  0.7561462E-02  0.1216263E+00
          3   -1    0    0  501    0  0.00000000000E+00  0.00000000000E+00  0.81761854239E+02  0.81761854239E+02  0.00000000000E+00 0. -1.
         -3   -1    0    0    0  501 -0.00000000000E+00 -0.00000000000E+00 -0.30513864131E+03  0.30513864131E+03  0.00000000000E+00 0.  1.
         23    2    1    2    0    0 -0.11677411880E+03 -0.79904794675E+01 -0.99233792795E+02  0.17533313295E+03  0.84819333247E+02 0.  0.
         23    2    1    2    0    0  0.11677411880E+03  0.79904794675E+01 -0.12414299428E+03  0.21156736260E+03  0.12509685571E+03 0.  0.
          5    1    4    4  502    0  0.11731154284E+03 -0.28944000927E+02 -0.54486926964E+02  0.13261240848E+03  0.41800000000E+01 0. -1.
         -5    1    4    4    0  502 -0.53742404308E+00  0.36934480395E+02 -0.69656067312E+02  0.78954954120E+02  0.41800000000E+01 0. -1.
        -11    1    3    3    0    0 -0.82119055526E+02 -0.10860210075E+02 -0.14969682653E+02  0.84175856646E+02  0.00000000000E+00 0. -1.
         11    1    3    3    0    0 -0.34655063274E+02  0.28697306079E+01 -0.84264110142E+02  0.91157276299E+02  0.00000000000E+00 0.  1.
</event>
<event>
 8    1  0.5900800E-006  0.6817099E+02  0.7561462E-02  0.1366425E+00
          1   -1    0    0  501    0  0.00000000000E+00  0.00000000000E+00  0.39460208849E+03  0.39460208849E+03  0.00000000000E+00 0. -1.
         -1   -1    0    0    0  501 -0.00000000000E+00 -0.00000000000E+00 -0.31132971420E+02  0.31132971420E+02  0.00000000000E+00 0.  1.
         23    2    1    2    0    0 -0.79534494615E+01  0.17869763949E+02  0.12785185210E+03  0.15825326641E+03  0.91188894183E+02 0.  0.
         23    2    1    2    0    0  0.79534494615E+01 -0.17869763949E+02  0.23561726496E+03  0.26748179349E+03  0.12509367882E+03 0.  0.
          5    1    4    4  502    0  0.24563981953E+02 -0.86596246190E+01  0.24462939348E+03  0.24604753781E+03  0.41800000000E+01 0.  1.
         -5    1    4    4    0  502 -0.16610532491E+02 -0.92101393305E+01 -0.90121285197E+01  0.21434255681E+02  0.41800000000E+01 0.  1.
        -11    1    3    3    0    0 -0.28031802084E+02 -0.28506049898E+02  0.37960889196E+02  0.55130807335E+02  0.00000000000E+00 0.  1.
         11    1    3    3    0    0  0.20078352622E+02  0.46375813847E+02  0.89890962906E+02  0.10312245908E+03  0.00000000000E+00 0. -1.
</event>
<event>
 8    1  0.5900800E-006  0.9324404E+02  0.7561462E-02  0.1295181E+00
          2   -1    0    0  501    0  0.00000000000E+00  0.00000000000E+00  0.10343949073E+04  0.10343949073E+04  0.00000000000E+00 0. -1.
         -2   -1    0    0    0  501 -0.00000000000E+00 -0.00000000000E+00 -0.21796132737E+02  0.21796132737E+02  0.00000000000E+00 0.  1.
         23    2    1    2    0    0 -0.41842378711E+02  0.57514849699E+02  0.20864247369E+03  0.23945819727E+03  0.93540386043E+02 0.  0.
         23    2    1    2    0    0  0.41842378711E+02 -0.57514849699E+02  0.80395630092E+03  0.81673284281E+03  0.12509220658E+03 0.  0.
          5    1    4    4  502    0  0.25916126964E+01 -0.15255141834E+02  0.67741459707E+03  0.67760419459E+03  0.41800000000E+01 0. -1.
         -5    1    4    4    0  502  0.39250766015E+02 -0.42259707865E+02  0.12654170385E+03  0.13912864822E+03  0.41800000000E+01 0. -1.
        -11    1    3    3    0    0  0.15185974957E+02  0.53330996802E+02  0.13698058361E+03  0.14777851448E+03  0.00000000000E+00 0. -1.
         11    1    3    3    0    0 -0.57028353668E+02  0.41838528970E+01  0.71661890077E+02  0.91679682790E+02  0.00000000000E+00 0.  1.
</event>
<event>
 8    1  0.5900800E-006  0.8817680E+02  0.7561462E-02  0.1307328E+00
         -1   -1    0    0    0  501 -0.00000000000E+00  0.00000000000E+00  0.47776635220E+02  0.47776635220E+02  0.00000000000E+00 0.  1.
          1   -1    0    0  501    0  0.00000000000E+00 -0.00000000000E+00 -0.37556583125E+03  0.37556583125E+03  0.00000000000E+00 0. -1.
         23    2    1    2    0    0 -0.95390002490E+00 -0.70574267870E+02 -0.95636200454E+02  0.15035155431E+03  0.92074262611E+02 0.  0.
         23    2    1    2    0    0  0.95390002490E+00  0.70574267870E+02 -0.23215299558E+03  0.27299091216E+03  0.12508951817E+03 0.  0.
          5    1    4    4  502    0 -0.10617772582E+02  0.10630088812E+02  0.13008050720E+02  0.20308068995E+02  0.41800000000E+01 0.  1.
         -5    1    4    4    0  502  0.11571672607E+02  0.59944179058E+02 -0.24516104630E+03  0.25268284317E+03  0.41800000000E+01 0.  1.
        -11    1    3    3    0    0  0.61206628774E+01 -0.84088352483E+02 -0.10325257957E+03  0.13330194569E+03  0.00000000000E+00 0. -1.
         11    1    3    3    0    0 -0.70745629023E+01  0.13514084613E+02  0.76163791162E+01  0.17049608618E+02  0.00000000000E+00 0.  1.
</event>
<event>
 8    1  0.5900800E-006  0.7477579E+02  0.7561462E-02  0.1344567E+00
          2   -1    0    0  501    0  0.00000000000E+00  0.00000000000E+00  0.31811192154E+04  0.31811192154E+04  0.00000000000E+00 0. -1.
         -2   -1    0    0    0  501 -0.00000000000E+00 -0.00000000000E+00 -0.25545648947E+02  0.25545648947E+02  0.00000000000E+00 0.  1.
         23    2    1    2    0    0 -0.53855695483E+02 -0.17156726791E+02  0.90514086786E+02  0.13911018834E+03  0.89241556373E+02 0.  0.
         23    2    1    2    0    0  0.53855695483E+02  0.17156726791E+02  0.30650594796E+04  0.30675546760E+04  0.11003311851E+03 0.  0.
          5    1    4    4  502    0  0.65607023171E+02  0.12865129001E+02  0.30162664872E+04  0.30170102399E+04  0.41800000000E+01 0. -1.
         -5    1    4    4    0  502 -0.11751327688E+02  0.42915977900E+01  0.48792992386E+02  0.50544436093E+02  0.41800000000E+01 0.  1.
        -11    1    3    3    0    0 -0.28566295033E+02 -0.29645648383E+02  0.10096126494E+03  0.10903244792E+03  0.00000000000E+00 0. -1.
         11    1    3    3    0    0 -0.25289400451E+02  0.12488921593E+02 -0.10447178156E+02  0.30077740426E+02  0.00000000000E+00 0.  1.
</event>
<event>
 8    1  0.5900800E-006  0.2149163E+03  0.7561462E-02  0.1137731E+00
          2   -1    0    0  501    0  0.00000000000E+00  0.00000000000E+00  0.11463066130E+04  0.11463066130E+04  0.00000000000E+00 0. -1.
         -2   -1    0    0    0  501 -0.00000000000E+00 -0.00000000000E+00 -0.43137535575E+02  0.43137535575E+02  0.00000000000E+00 0.  1.
         23    2    1    2    0    0 -0.40904220482E+02 -0.18536661265E+03  0.42162637256E+03  0.47098605546E+03  0.89583090275E+02 0.  0.
         23    2    1    2    0    0  0.40904220482E+02  0.18536661265E+03  0.68154270488E+03  0.71845809313E+03  0.12509051390E+03 0.  0.
          5    1    4    4  502    0  0.62273298819E+02  0.18829104332E+03  0.65284568029E+03  0.68231696110E+03  0.41800000000E+01 0.  1.
         -5    1    4    4    0  502 -0.21369078336E+02 -0.29244306659E+01  0.28697024594E+02  0.36141132027E+02  0.41800000000E+01 0.  1.
        -11    1    3    3    0    0  0.84197964485E+00 -0.16131707111E+03  0.31190719067E+03  0.35115523911E+03  0.00000000000E+00 0.  1.
         11    1    3    3    0    0 -0.41746200127E+02 -0.24049541537E+02  0.10971918189E+03  0.11983081636E+03  0.00000000000E+00 0. -1.
</event>
<event>
 8    1  0.5900800E-006  0.1178601E+03  0.7561462E-02  0.1246670E+00
          2   -1    0    0  501    0  0.00000000000E+00  0.00000000000E+00  0.52469561125E+03  0.52469561125E+03  0.00000000000E+00 0. -1.
         -2   -1    0    0    0  501 -0.00000000000E+00 -0.00000000000E+00 -0.18125801315E+03  0.18125801315E+03  0.00000000000E+00 0.  1.
         23    2    1    2    0    0 -0.76680869847E+02  0.15069945081E+02 -0.15088128730E+03  0.19286629111E+03  0.91242448142E+02 0.  0.
         23    2    1    2    0    0  0.76680869847E+02 -0.15069945081E+02  0.49431888539E+03  0.51308733329E+03  0.11313881774E+03 0.  0.
          5    1    4    4  502    0  0.95826691078E+02  0.64583983440E+01  0.26444065946E+03  0.28137306269E+03  0.41800000000E+01 0. -1.
         -5    1    4    4    0  502 -0.19145821230E+02 -0.21528343424E+02  0.22987822593E+03  0.23171427060E+03  0.41800000000E+01 0.  1.
        -11    1    3    3    0    0 -0.81223386993E+02  0.36153235049E+02 -0.14570364534E+03  0.17068640035E+03  0.00000000000E+00 0.  1.
         11    1    3    3    0    0  0.45425171455E+01 -0.21083289969E+02 -0.51776419668E+01  0.22179890763E+02  0.00000000000E+00 0. -1.
</event>
<event>
 8    1  0.5900800E-006  0.1184761E+03  0.7561462E-02  0.1245632E+00
          4   -1    0    0  501    0  0.00000000000E+00  0.00000000000E+00  0.76453034354E+02  0.76453034354E+02  0.00000000000E+00 0. -1.
         -4   -1    0    0    0  501 -0.00000000000E+00 -0.00000000000E+00 -0.20099528740E+03  0.20099528740E+03  0.00000000000E+00 0.  1.
         23    2    1    2    0    0 -0.47570224685E+02  0.36803987092E+02 -0.55260172592E+02  0.12232176327E+03  0.91057494763E+02 0.  0.
         23    2    1    2    0    0  0.47570224685E+02 -0.36803987092E+02 -0.69282080452E+02  0.15512655848E+03  0.12508710058E+03 0.  0.
          5    1    4    4  502    0 -0.37388612640E+02 -0.42403962790E+01  0.42092818743E+01  0.38093040961E+02  0.41800000000E+01 0. -1.
         -5    1    4    4    0  502  0.84958837325E+02 -0.32563590813E+02 -0.73491362326E+02  0.11703351752E+03  0.41800000000E+01 0. -1.
        -11    1    3    3    0    0 -0.38173086122E+02  0.66602136510E+02 -0.46971004440E+02  0.89996135194E+02  0.00000000000E+00 0.  1.
         11    1    3    3    0    0 -0.93971385638E+01 -0.29798149418E+02 -0.82891681516E+01  0.32325628077E+02  0.00000000000E+00 0. -1.
</event>
<event>
 8    1  0.5900800E-006  0.2094224E+03  0.7561462E-02  0.1142024E+00
          1   -1    0    0  501    0  0.00000000000E+00  0.00000000000E+00  0.38738553179E+03  0.38738553179E+03  0.00000000000E+00 0. -1.
         -1   -1    0    0    0  501 -0.00000000000E+00 -0.00000000000E+00 -0.15762718863E+03  0.15762718863E+03  0.00000000000E+00 0.  1.
         23    2    1    2    0    0  0.12282329312E+03 -0.13680243386E+03 -0.25733442624E+02  0.20630074286E+03  0.89985105399E+02 0.  0.
         23    2    1    2    0    0 -0.12282329312E+03  0.13680243386E+03  0.25549178578E+03  0.33871197756E+03  0.12509709789E+03 0.  0.
          5    1    4    4  502    0 -0.98393890503E+02  0.25315937697E+02  0.16128371475E+03  0.19066243320E+03  0.41800000000E+01 0. -1.
         -5    1    4    4    0  502 -0.24429402614E+02  0.11148649616E+03  0.94208071028E+02  0.14804954436E+03  0.41800000000E+01 0. -1.
        -11    1    3    3    0    0  0.99768893132E+02 -0.47087655499E+02 -0.60912237008E+00  0.11032429636E+03  0.00000000000E+00 0.  1.
         11    1    3    3    0    0  0.23054399985E+02 -0.89714778358E+02 -0.25124320254E+02  0.95976446500E+02  0.00000000000E+00 0. -1.
</event>
<event>
 8    1  0.5900800E-006  0.1121933E+03  0.7561462E-02  0.1256561E+00
          2   -1    0    0  501    0  0.00000000000E+00  0.00000000000E+00  0.50338793471E+03  0.50338793471E+03  0.00000000000E+00 0. -1.
         -2   -1    0    0    0  501 -0.00000000000E+00 -0.00000000000E+00 -0.28410075692E+02  0.28410075692E+02  0.00000000000E+00 0.  1.
         23    2    1    2    0    0  0.44977754687E+02  0.22383563594E+02  0.18923022710E+03  0.21584971655E+03  0.90879034721E+02 0.  0.
         23    2    1    2    0    0 -0.44977754687E+02 -0.22383563594E+02  0.28574763192E+03  0.31594829385E+03  0.12509033897E+03 0.  0.
          5    1    4    4  502    0  0.39229751602E+02 -0.14276711053E+02  0.15160160157E+03  0.15730008229E+03  0.41800000000E+01 0.  1.
         -5    1    4    4    0  502 -0.84207506289E+02 -0.81068525417E+01  0.13414603035E+03  0.15864821156E+03  0.41800000000E+01 0.  1.
        -11    1    3    3    0    0  0.65528291885E+02  0.34313373093E+02  0.10574009953E+03  0.12904391989E+03  0.00000000000E+00 0.  1.
         11    1    3    3    0    0 -0.20550537198E+02 -0.11929809498E+02  0.83490127567E+02  0.86805796667E+02  0.00000000000E+00 0. -1.
</event>
<event>
 8    1  0.5900800E-006  0.1199564E+03  0.7561462E-02  0.1243169E+00
         -2   -1    0    0    0  501 -0.00000000000E+00  0.00000000000E+00  0.11462018862E+03  0.11462018862E+03  0.00000000000E+00 0.  1.
          2   -1    0    0  501    0  0.00000000000E+00 -0.00000000000E+00 -0.14844724209E+03  0.14844724209E+03  0.00000000000E+00 0. -1.
         23    2    1    2    0    0  0.67359395118E+02  0.26316607033E+01 -0.20873856458E+02  0.12037758407E+03  0.97523490063E+02 0.  0.
         23    2    1    2    0    0 -0.67359395118E+02 -0.26316607033E+01 -0.12953197011E+02  0.14268984664E+03  0.12509353810E+03 0.  0.
          5    1    4    4  502    0  0.35888771649E+02  0.11240597530E+02 -0.37339395118E+01  0.38023277970E+02  0.41800000000E+01 0.  1.
         -5    1    4    4    0  502 -0.10324816677E+03 -0.13872258233E+02 -0.92192574993E+01  0.10466656867E+03  0.41800000000E+01 0.  1.
        -11    1    3    3    0    0  0.78855311569E+02  0.15705750011E+02 -0.43823765276E+02  0.91571573914E+02  0.00000000000E+00 0. -1.
         11    1    3    3    0    0 -0.11495916451E+02 -0.13074089307E+02  0.22949908818E+02  0.28806010155E+02  0.00000000000E+00 0.  1.
</event>
<event>
 8    1  0.5900800E-006  0.1143768E+03  0.7561462E-02  0.1252673E+00
         -1   -1    0    0    0  501 -0.00000000000E+00  0.00000000000E+00  0.36819564252E+03  0.36819564252E+03  0.00000000000E+00 0.  1.
          1   -1    0    0  501    0  0.00000000000E+00 -0.00000000000E+00 -0.76426260728E+02  0.76426260728E+02  0.00000000000E+00 0. -1.
         23    2    1    2    0    0  0.75409474073E+02 -0.10054523381E+02  0.27152054614E+03  0.29688659545E+03  0.92900814627E+02 0.  0.
         23    2    1    2    0    0 -0.75409474073E+02  0.10054523381E+02  0.20248835643E+02  0.14773530779E+03  0.12501209383E+03 0.  0.
          5    1    4    4  502    0 -0.55748543398E+02 -0.40377354999E+02 -0.28644455649E+02  0.74674012395E+02  0.41800000000E+01 0.  1.
         -5    1    4    4    0  502 -0.19660930675E+02  0.50431878380E+02  0.48893291292E+02  0.73061295399E+02  0.41800000000E+01 0.  1.
        -11    1    3    3    0    0  0.63368215107E+02 -0.38822927950E+02  0.24475680629E+03  0.25579023564E+03  0.00000000000E+00 0.  1.
         11    1    3    3    0    0  0.12041258966E+02  0.28768404569E+02  0.26763739850E+02  0.41096359811E+02  0.00000000000E+00 0. -1.
</event>
<event>
 8    1  0.5900800E-006  0.1271266E+03  0.7561462E-02  0.1231783E+00
         -3   -1    0    0    0  501 -0.00000000000E+00  0.00000000000E+00  0.12974077183E+03  0.12974077183E+03  0.00000000000E+00 0.  1.
          3   -1    0    0  501    0  0.00000000000E+00 -0.00000000000E+00 -0.16286207330E+03  0.16286207330E+03  0.00000000000E+00 0. -1.
         23    2    1    2    0    0  0.75670184662E+02 -0.55072717271E+02  0.74433602870E+01  0.13119748125E+03  0.91642754433E+02 0.  0.
         23    2    1    2    0    0 -0.75670184662E+02  0.55072717271E+02 -0.40564661751E+02  0.16140536388E+03  0.12508884311E+03 0.  0.
          5    1    4    4  502    0  0.15617795792E+02 -0.15896936941E+02  0.20507008940E+02  0.30571849228E+02  0.41800000000E+01 0.  1.
         -5    1    4    4    0  502 -0.91287980454E+02  0.70969654211E+02 -0.61071670691E+02  0.13083351465E+03  0.41800000000E+01 0.  1.
        -11    1    3    3    0    0  0.56072276740E+02  0.14081383824E+01  0.34204944578E+02  0.65696737409E+02  0.00000000000E+00 0.  1.
         11    1    3    3    0    0  0.19597907922E+02 -0.56480855653E+02 -0.26761584291E+02  0.65500743843E+02  0.00000000000E+00 0. -1.
</event>
<event>
 8    1  0.5900800E-006  0.1741779E+03  0.7561462E-02  0.1173560E+00
         -4   -1    0    0    0  501 -0.00000000000E+00  0.00000000000E+00  0.32090727436E+03  0.32090727436E+03  0.00000000000E+00 0.  1.
          4   -1    0    0  501    0  0.00000000000E+00 -0.00000000000E+00 -0.11834753300E+03  0.11834753300E+03  0.00000000000E+00 0. -1.
         23    2    1    2    0    0 -0.12326632259E+02  0.14521351515E+03  0.17479736329E+03  0.24518771273E+03  0.91235877895E+02 0.  0.
         23    2    1    2    0    0  0.12326632259E+02 -0.14521351515E+03  0.27762378071E+02  0.19406709463E+03  0.12510945902E+03 0.  0.
          5    1    4    4  502    0 -0.55237131301E+02 -0.50686302019E+02  0.27142135615E+01  0.75133755677E+02  0.41800000000E+01 0.  1.
         -5    1    4    4    0  502  0.67563763560E+02 -0.94527213131E+02  0.25048164509E+02  0.11893333895E+03  0.41800000000E+01 0.  1.
        -11    1    3    3    0    0  0.23165148038E+02  0.72150776319E+02  0.34921912422E+02  0.83437992391E+02  0.00000000000E+00 0. -1.
         11    1    3    3    0    0 -0.35491780296E+02  0.73062738832E+02  0.13987545087E+03  0.16174972034E+03  0.00000000000E+00 0.  1.
</event>
<event>
 8    1  0.5900800E-006  0.1020381E+03  0.7561462E-02  0.1276068E+00
          1   -1    0    0  501    0  0.00000000000E+00  0.00000000000E+00  0.26500562283E+02  0.26500562283E+02  0.00000000000E+00 0. -1.
         -1   -1    0    0    0  501 -0.00000000000E+00 -0.00000000000E+00 -0.73097718506E+03  0.73097718506E+03  0.00000000000E+00 0.  1.
         23    2    1    2    0    0  0.51646626143E+02  0.15162764602E+00 -0.50442151031E+03  0.51518419836E+03  0.91138911560E+02 0.  0.
         23    2    1    2    0    0 -0.51646626143E+02 -0.15162764602E+00 -0.20005511247E+03  0.24229354898E+03  0.12655717628E+03 0.  0.
          5    1    4    4  502    0 -0.64386242121E+02  0.30551944701E+02 -0.46667788777E+02  0.85289884563E+02  0.41800000000E+01 0. -1.
         -5    1    4    4    0  502  0.12739615978E+02 -0.30703572347E+02 -0.15338732369E+03  0.15700366442E+03  0.41800000000E+01 0.  1.
        -11    1    3    3    0    0 -0.13504368933E+02  0.25835681254E+02 -0.82703676553E+02  0.87691211199E+02  0.00000000000E+00 0. -1.
         11    1    3    3    0    0  0.65150995076E+02 -0.25684053608E+02 -0.42171783376E+03  0.42749298717E+03  0.00000000000E+00 0.  1.
</event>
<event>
 8    1  0.5900800E-006  0.8226259E+02  0.7561462E-02  0.1322750E+00
         -1   -1    0    0    0  501 -0.00000000000E+00  0.00000000000E+00  0.99921947232E+02  0.99921947232E+02  0.00000000000E+00 0.  1.
          1   -1    0    0  501    0  0.00000000000E+00 -0.00000000000E+00 -0.20021517421E+03  0.20021517421E+03  0.00000000000E+00 0. -1.
         23    2    1    2    0    0  0.32392836225E+02 -0.65525303136E+02  0.11041219461E+02  0.11741840501E+03  0.91226707266E+02 0.  0.
         23    2    1    2    0    0 -0.32392836225E+02  0.65525303136E+02 -0.11133444644E+03  0.18271871643E+03  0.12509160315E+03 0.  0.
          5    1    4    4  502    0 -0.23386803759E+01  0.60397875476E+02  0.64971706592E+01  0.60934870267E+02  0.41800000000E+01 0. -1.
         -5    1    4    4    0  502 -0.30054155849E+02  0.51274276598E+01 -0.11783161709E+03  0.12178384616E+03  0.41800000000E+01 0. -1.
        -11    1    3    3    0    0  0.15769736867E+02 -0.35481998856E+02  0.51408076726E+02  0.64423964457E+02  0.00000000000E+00 0.  1.
         11    1    3    3    0    0  0.16623099358E+02 -0.30043304280E+02 -0.40366857265E+02  0.52994440555E+02  0.00000000000E+00 0. -1.
</event>
<event>
 8    1  0.5900800E-006  0.1047905E+03  0.7561462E-02  0.1270533E+00
         -2   -1    0    0    0  501 -0.00000000000E+00  0.00000000000E+00  0.49053244337E+02  0.49053244337E+02  0.00000000000E+00 0.  1.
          2   -1    0    0  501    0  0.00000000000E+00 -0.00000000000E+00 -0.28041900550E+03  0.28041900550E+03  0.00000000000E+00 0. -1.
         23    2    1    2    0    0  0.15381462655E+02 -0.28397947328E+02 -0.56513066058E+02  0.11205982035E+03  0.91217563530E+02 0.  0.
         23    2    1    2    0    0 -0.15381462655E+02  0.28397947328E+02 -0.17485269511E+03  0.21741242949E+03  0.12510662134E+03 0.  0.
          5    1    4    4  502    0  0.92187571952E+01  0.68400947558E+02 -0.14750502991E+03  0.16290758534E+03  0.41800000000E+01 0. -1.
         -5    1    4    4    0  502 -0.24600219850E+02 -0.40003000230E+02 -0.27347665194E+02  0.54504844148E+02  0.41800000000E+01 0. -1.
        -11    1    3    3    0    0  0.39099079801E+02 -0.48429576580E+02 -0.22946578932E+02  0.66337827924E+02  0.00000000000E+00 0.  1.
         11    1    3    3    0    0 -0.23717617146E+02  0.20031629253E+02 -0.33566487127E+02  0.45721992428E+02  0.00000000000E+00 0. -1.
</event>
<event>
 8    1  0.5900800E-006  0.1609245E+03  0.7561462E-02  0.1187657E+00
          3   -1    0    0  501    0  0.00000000000E+00  0.00000000000E+00  0.50991970738E+02  0.50991970738E+02  0.00000000000E+00 0. -1.
         -3   -1    0    0    0  501 -0.00000000000E+00 -0.00000000000E+00 -0.82081519949E+03  0.82081519949E+03  0.00000000000E+00 0.  1.
         23    2    1    2    0    0  0.14847227429E+03 -0.16481762462E+02 -0.55865313594E+03  0.58448307933E+03  0.84920427437E+02 0.  0.
         23    2    1    2    0    0 -0.14847227429E+03  0.16481762462E+02 -0.21117009281E+03  0.28732409090E+03  0.12508661155E+03 0.  0.
          5    1    4    4  502    0 -0.10889667917E+03  0.40531398815E+01 -0.21923493167E+03  0.24485984224E+03  0.41800000000E+01 0.  1.
         -5    1    4    4    0  502 -0.39575595123E+02  0.12428622580E+02  0.80648388604E+01  0.42464248662E+02  0.41800000000E+01 0.  1.
        -11    1    3    3    0    0  0.74024735804E+02 -0.50135318638E+02 -0.26492907116E+03  0.27960798349E+03  0.00000000000E+00 0. -1.
         11    1    3    3    0    0  0.74447538485E+02  0.33653556177E+02 -0.29372406478E+03  0.30487509583E+03  0.00000000000E+00 0.  1.
</event>
<event>
 8    1  0.5900800E-006  0.1392105E+03  0.7561462E-02  0.1214395E+00
          1   -1    0    0  501    0  0.00000000000E+00  0.00000000000E+00  0.84317494041E+03  0.84317494041E+03  0.00000000000E+00 0. -1.
         -1   -1    0    0    0  501 -0.00000000000E+00 -0.00000000000E+00 -0.28040445363E+02  0.28040445363E+02  0.00000000000E+00 0.  1.
         23    2    1    2    0    0  0.10839621317E+03 -0.89545688860E+01  0.41506831634E+03  0.43816969180E+03  0.88775268240E+02 0.  0.
         23    2    1    2    0    0 -0.10839621317E+03  0.89545688860E+01  0.40006617871E+03  0.43304569397E+03  0.12508278215E+03 0.  0.
          5    1    4    4  502    0 -0.85758128367E+02 -0.45045940314E+02  0.31579050718E+03  0.33034029446E+03  0.41800000000E+01 0.  1.
         -5    1    4    4    0  502 -0.22638084798E+02  0.54000509200E+02  0.84275671527E+02  0.10270539951E+03  0.41800000000E+01 0.  1.
        -11    1    3    3    0    0  0.23925126953E+02 -0.27319344894E+02  0.43439040630E+02  0.56618976996E+02  0.00000000000E+00 0.  1.
         11    1    3    3    0    0  0.84471086212E+02  0.18364776008E+02  0.37162927571E+03  0.38155071480E+03  0.00000000000E+00 0. -1.
</event>
<event>
 8    1  0.5900800E-006  0.1128859E+03  0.7561462E-02  0.1255317E+00
         -2   -1    0    0    0  501 -0.00000000000E+00  0.00000000000E+00  0.49799897688E+02  0.49799897688E+02  0.00000000000E+00 0.  1.
          2   -1    0    0  501    0  0.00000000000E+00 -0.00000000000E+00 -0.27472021408E+03  0.27472021408E+03  0.00000000000E+00 0. -1.
         23    2    1    2    0    0 -0.30361344371E+02 -0.23831219699E+02 -0.12993984508E+03  0.16278373889E+03  0.90135697927E+02 0.  0.
         23    2    1    2    0    0  0.30361344371E+02  0.23831219699E+02 -0.94980471308E+02  0.16173637288E+03  0.12509047173E+03 0.  0.
          5    1    4    4  502    0  0.38702700721E+02  0.71573208872E+02 -0.67915913534E+02  0.10606916132E+03  0.41800000000E+01 0.  1.
         -5    1    4    4    0  502 -0.83413563496E+01 -0.47741989173E+02 -0.27064557775E+02  0.55667211565E+02  0.41800000000E+01 0.  1.
        -11    1    3    3    0    0  0.24829166367E+02  0.14222758707E+02 -0.23667913053E+02  0.37134141649E+02  0.00000000000E+00 0.  1.
         11    1    3    3    0    0 -0.55190510739E+02 -0.38053978406E+02 -0.10627193203E+03  0.12564959724E+03  0.00000000000E+00 0. -1.
</event>
<event>
 7    1  0.5900800E-006  0.2196648E+03  0.7561462E-02  0.1134133E+00
         -2   -1    0    0    0  501 -0.00000000000E+00  0.00000000000E+00  0.95126479468E+02  0.95126479468E+02  0.00000000000E+00 0.  1.
          2   -1    0    0  501    0  0.00000000000E+00 -0.00000000000E+00 -0.66361001563E+03  0.66361001563E+03  0.00000000000E+00 0. -1.
         23    2    1    2    0    0  0.44130098682E+02 -0.11643783101E+03 -0.14367938711E+03  0.21179119171E+03  0.93308673258E+02 0.  0.
          5    1    1    2  502    0  0.42023175004E+02 -0.79829531602E+02 -0.26381249505E+03  0.27884261923E+03  0.41800000000E+01 0. -1.
         -5    1    1    2    0  502 -0.86153273687E+02  0.19626736262E+03 -0.16099165400E+03  0.26810268416E+03  0.41800000000E+01 0.  1.
        -11    1    3    3    0    0  0.26863040589E+02 -0.13143902903E+02 -0.88500222029E+02  0.93416671062E+02  0.00000000000E+00 0. -1.
         11    1    3    3    0    0  0.17267058094E+02 -0.10329392811E+03 -0.55179165081E+02  0.11837452065E+03  0.00000000000E+00 0.  1.
</event>
<event>
 8    1  0.5900800E-006  0.1096530E+03  0.7561462E-02  0.1261214E+00
          2   -1    0    0  501    0  0.00000000000E+00  0.00000000000E+00  0.95512497446E+03  0.95512497446E+03  0.00000000000E+00 0. -1.
         -2   -1    0    0    0  501 -0.00000000000E+00 -0.00000000000E+00 -0.14576808128E+02  0.14576808128E+02  0.00000000000E+00 0.  1.
         23    2    1    2    0    0  0.64726534670E+01  0.38151178501E+02  0.29088046778E+03  0.30698092907E+03  0.90157842762E+02 0.  0.
         23    2    1    2    0    0 -0.64726534670E+01 -0.38151178501E+02  0.64966769856E+03  0.66272085352E+03  0.12503360942E+03 0.  0.
          5    1    4    4  502    0 -0.30562342493E+02  0.38949204894E+02  0.26993082932E+03  0.27446533908E+03  0.41800000000E+01 0. -1.
         -5    1    4    4    0  502  0.24089689026E+02 -0.77100383395E+02  0.37973686924E+03  0.38825551444E+03  0.41800000000E+01 0. -1.
        -11    1    3    3    0    0 -0.58654047870E+01  0.61792298926E+02  0.13184337417E+03  0.14572359621E+03  0.00000000000E+00 0.  1.
         11    1    3    3    0    0  0.12338058254E+02 -0.23641120425E+02  0.15903709361E+03  0.16125733286E+03  0.00000000000E+00 0. -1.
</event>
<event>
 8    1  0.5900800E-006  0.1273342E+03  0.7561462E-02  0.1231466E+00
          2   -1    0    0  501    0  0.00000000000E+00  0.00000000000E+00  0.45596829536E+03  0.45596829536E+03  0.00000000000E+00 0. -1.
         -2   -1    0    0    0  501 -0.00000000000E+00 -0.00000000000E+00 -0.54131376892E+02  0.54131376892E+02  0.00000000000E+00 0.  1.
         23    2    1    2    0    0 -0.89360501917E+02  0.47093721102E+02  0.10197204644E+03  0.16985359644E+03  0.90823059289E+02 0.  0.
         23    2    1    2    0    0  0.89360501917E+02 -0.47093721102E+02  0.29986487203E+03  0.34024607581E+03  0.12508130460E+03 0.  0.
          5    1    4    4  502    0  0.98896121134E+02 -0.41816573258E+02  0.12435858090E+03  0.16435205389E+03  0.41800000000E+01 0. -1.
         -5    1    4    4    0  502 -0.95356192173E+01 -0.52771478434E+01  0.17550629112E+03  0.17589402192E+03  0.41800000000E+01 0. -1.
        -11    1    3    3    0    0 -0.56455700338E+02 -0.20742455889E+02  0.50850892357E+02  0.78761087032E+02  0.00000000000E+00 0.  1.
         11    1    3    3    0    0 -0.32904801578E+02  0.67836176990E+02  0.51121154087E+02  0.91092509411E+02  0.00000000000E+00 0. -1.
</event>
<event>
 8    1  0.5900800E-006  0.1501454E+03  0.7561462E-02  0.1200294E+00
          2   -1    0    0  501    0  0.00000000000E+00  0.00000000000E+00  0.14816157110E+03  0.14816157110E+03  0.00000000000E+00 0. -1.
         -2   -1    0    0    0  501 -0.00000000000E+00 -0.00000000000E+00 -0.27785653123E+03  0.27785653123E+03  0.00000000000E+00 0.  1.
         23    2    1    2    0    0  0.14233790335E+03  0.23678081409E+02 -0.15738239223E+03  0.23305422559E+03  0.93404092053E+02 0.  0.
         23    2    1    2    0    0 -0.14233790335E+03 -0.23678081409E+02  0.27687432105E+02  0.19296387673E+03  0.12509090118E+03 0.  0.
          5    1    4    4  502    0 -0.70175153068E+02  0.85877522875E+01  0.73036800660E+02  0.10173567834E+03  0.41800000000E+01 0.  1.
         -5    1    4    4    0  502 -0.72162750286E+02 -0.32265833697E+02 -0.45349368555E+02  0.91228198389E+02  0.41800000000E+01 0.  1.
        -11    1    3    3    0    0  0.18911313779E+02 -0.11291300161E+02 -0.80580770344E+02  0.83536769134E+02  0.00000000000E+00 0.  1.
         11    1    3    3    0    0  0.12342658958E+03  0.34969381570E+02 -0.76801621887E+02  0.14951745646E+03  0.00000000000E+00 0. -1.
</event>
<event>
 8    1  0.5900800E-006  0.1356479E+03  0.7561462E-02  0.1219308E+00
          1   -1    0    0  501    0  0.00000000000E+00  0.00000000000E+00  0.84087690648E+03  0.84087690648E+03  0.00000000000E+00 0. -1.
         -1   -1    0    0    0  501 -0.00000000000E+00 -0.00000000000E+00 -0.38731756502E+02  0.38731756502E+02  0.00000000000E+00 0.  1.
         23    2    1    2    0    0  0.71202087867E+02  0.34098293977E+02  0.91611474976E+02  0.15384169841E+03  0.95090350998E+02 0.  0.
         23    2    1    2    0    0 -0.71202087867E+02 -0.34098293977E+02  0.71053367500E+03  0.72576696457E+03  0.12508857896E+03 0.  0.
          5    1    4    4  502    0 -0.10305869676E+03 -0.46665999297E+02  0.52774403326E+03  0.53974998612E+03  0.41800000000E+01 0.  1.
         -5    1    4    4    0  502  0.31856608892E+02  0.12567705320E+02  0.18278964174E+03  0.18601697846E+03  0.41800000000E+01 0.  1.
        -11    1    3    3    0    0  0.63855606818E+02  0.65417976777E+02  0.67233119122E+02  0.11347837906E+03  0.00000000000E+00 0. -1.
         11    1    3    3    0    0  0.73464810496E+01 -0.31319682800E+02  0.24378355854E+02  0.40363319346E+02  0.00000000000E+00 0.  1.
</event>
<event>
 8    1  0.5900800E-006  0.1642221E+03  0.7561462E-02  0.1184011E+00
         -2   -1    0    0    0  501 -0.00000000000E+00  0.00000000000E+00  0.50912489431E+02  0.50912489431E+02  0.00000000000E+00 0.  1.
          2   -1    0    0  501    0  0.00000000000E+00 -0.00000000000E+00 -0.74142112033E+03  0.74142112033E+03  0.00000000000E+00 0. -1.
         23    2    1    2    0    0 -0.84215471022E+02 -0.13152657288E+03 -0.25553315365E+03  0.31354022376E+03  0.92837462084E+02 0.  0.
         23    2    1    2    0    0  0.84215471022E+02  0.13152657288E+03 -0.43497547725E+03  0.47879338600E+03  0.12509178927E+03 0.  0.
          5    1    4    4  502    0  0.50804409860E+02  0.12514777774E+03 -0.42034271522E+03  0.44152975548E+03  0.41800000000E+01 0. -1.
         -5    1    4    4    0  502  0.33411061162E+02  0.63787951373E+01 -0.14632762027E+02  0.37263630526E+02  0.41800000000E+01 0. -1.
        -11    1    3    3    0    0 -0.16256297365E+02 -0.81451498260E+01 -0.10815683542E+03  0.10967457188E+03  0.00000000000E+00 0. -1.
         11    1    3    3    0    0 -0.67959173656E+02 -0.12338142305E+03 -0.14737631823E+03  0.20386565187E+03  0.00000000000E+00 0.  1.
</event>
<event>
 7    1  0.5900800E-006  0.9947944E+02  0.7561462E-02  0.1281394E+00
          2   -1    0    0  501    0  0.00000000000E+00  0.00000000000E+00  0.75626698629E+03  0.75626698629E+03  0.00000000000E+00 0. -1.
         -2   -1    0    0    0  501 -0.00000000000E+00 -0.00000000000E+00 -0.28672007177E+02  0.28672007177E+02  0.00000000000E+00 0.  1.
         23    2    1    2    0    0  0.18957133603E+02  0.49068412694E+01  0.96981410935E+02  0.13488898192E+03  0.91685295284E+02 0.  0.
          5    1    1    2  502    0  0.26680068273E+02 -0.43706289473E+02  0.53283139010E+03  0.53530255787E+03  0.41800000000E+01 0. -1.
         -5    1    1    2    0  502 -0.45637201876E+02  0.38799448203E+02  0.97782178082E+02  0.11474745368E+03  0.41800000000E+01 0.  1.
        -11    1    3    3    0    0  0.23070771242E+02 -0.37987498102E+02  0.73293774151E+02  0.85716321824E+02  0.00000000000E+00 0. -1.
         11    1    3    3    0    0 -0.41136376391E+01  0.42894339371E+02  0.23687636784E+02  0.49172660098E+02  0.00000000000E+00 0.  1.
</event>
<event>
 8    1  0.5900800E-006  0.8061567E+02  0.7561462E-02  0.1327313E+00
          1   -1    0    0  501    0  0.00000000000E+00  0.00000000000E+00  0.96761602517E+02  0.96761602517E+02  0.00000000000E+00 0. -1.
         -1   -1    0    0    0  501 -0.00000000000E+00 -0.00000000000E+00 -0.12316314216E+03  0.12316314216E+03  0.00000000000E+00 0.  1.
         23    2    1    2    0    0  0.12593641909E+02  0.23411372659E+01 -0.14830170873E+02  0.93651750190E+02  0.91578576126E+02 0.  0.
         23    2    1    2    0    0 -0.12593641909E+02 -0.23411372659E+01 -0.11571368773E+02  0.12627299449E+03  0.12508753664E+03 0.  0.
          5    1    4    4  502    0 -0.24474645155E+02 -0.57831231832E+02 -0.25147896084E+02  0.67774248119E+02  0.41800000000E+01 0. -1.
         -5    1    4    4    0  502  0.11881003247E+02  0.55490094567E+02  0.13576527310E+02  0.58498746371E+02  0.41800000000E+01 0. -1.
        -11    1    3    3    0    0 -0.94210525928E+01  0.13695992937E+02 -0.48831990063E+02  0.51583909390E+02  0.00000000000E+00 0.  1.
         11    1    3    3    0    0  0.22014694501E+02 -0.11354855671E+02  0.34001819190E+02  0.42067840799E+02  0.00000000000E+00 0. -1.
</event>
<event>
 8    1  0.5900800E-006  0.2246015E+03  0.7561462E-02  0.1130498E+00
         -2   -1    0    0    0  501 -0.00000000000E+00  0.00000000000E+00  0.17973456963E+03  0.17973456963E+03  0.00000000000E+00 0. -1.
          2   -1    0    0  501    0  0.00000000000E+00 -0.00000000000E+00 -0.30479879759E+03  0.30479879759E+03  0.00000000000E+00 0.  1.
         23    2    1    2    0    0  0.12116100079E+03 -0.16615486195E+03 -0.36857749544E+02  0.22818029644E+03  0.91762343711E+02 0.  0.
         23    2    1    2    0    0 -0.12116100079E+03  0.16615486195E+03 -0.88206478417E+02  0.25635307077E+03  0.12509631409E+03 0.  0.
          5    1    4    4  502    0  0.15451750160E+02  0.26544229058E+02 -0.47598754928E+02  0.56801994243E+02  0.41800000000E+01 0. -1.
         -5    1    4    4    0  502 -0.13661275095E+03  0.13961063289E+03 -0.40607723489E+02  0.19955107653E+03  0.41800000000E+01 0. -1.
        -11    1    3    3    0    0  0.12023408967E+03 -0.99215298595E+02 -0.40745879895E+02  0.16112150236E+03  0.00000000000E+00 0. -1.
         11    1    3    3    0    0  0.92691111164E+00 -0.66939563351E+02  0.38881303514E+01  0.67058794080E+02  0.00000000000E+00 0.  1.
</event>
<event>
 8    1  0.5900800E-006  0.2074597E+03  0.7561462E-02  0.1143594E+00
         -2   -1    0    0    0  501 -0.00000000000E+00  0.00000000000E+00  0.12117820774E+03  0.12117820774E+03  0.00000000000E+00 0.  1.
          2   -1    0    0  501    0  0.00000000000E+00 -0.00000000000E+00 -0.53385088256E+03  0.53385088256E+03  0.00000000000E+00 0. -1.
         23    2    1    2    0    0  0.18464366864E+03  0.46529043275E+02 -0.36354947493E+02  0.21511103563E+03  0.93235396745E+02 0.  0.
         23    2    1    2    0    0 -0.18464366864E+03 -0.46529043275E+02 -0.37631772733E+03  0.43991805467E+03  0.12511845063E+03 0.  0.
          5    1    4    4  502    0 -0.17577558208E+03 -0.90056132671E+00 -0.33134191991E+03  0.37510372773E+03  0.41800000000E+01 0. -1.
         -5    1    4    4    0  502 -0.88680865537E+01 -0.45628481948E+02 -0.44975807424E+02  0.64814326946E+02  0.41800000000E+01 0. -1.
        -11    1    3    3    0    0  0.44232984623E+02  0.23653359075E+02  0.29665856483E+02  0.58276078841E+02  0.00000000000E+00 0.  1.
         11    1    3    3    0    0  0.14041068402E+03  0.22875684200E+02 -0.66020803976E+02  0.15683495679E+03  0.00000000000E+00 0. -1.
</event>
<event>
 8    1  0.5900800E-006  0.1027839E+03  0.7561462E-02  0.1274548E+00
          3   -1    0    0  501    0  0.00000000000E+00  0.00000000000E+00  0.47297201195E+02  0.47297201195E+02  0.00000000000E+00 0. -1.
         -3   -1    0    0    0  501 -0.00000000000E+00 -0.00000000000E+00 -0.45489100602E+03  0.45489100602E+03  0.00000000000E+00 0.  1.
         23    2    1    2    0    0 -0.16272201963E+02  0.82516806640E+02 -0.27475991602E+03  0.30127498374E+03  0.90552727421E+02 0.  0.
         23    2    1    2    0    0  0.16272201963E+02 -0.82516806640E+02 -0.13283388881E+03  0.20091322348E+03  0.12508986137E+03 0.  0.
          5    1    4    4  502    0 -0.32166532714E+01  0.14427162171E+02 -0.92944441305E+02  0.94205262252E+02  0.41800000000E+01 0.  1.
         -5    1    4    4    0  502  0.19488855234E+02 -0.96943968811E+02 -0.39889447509E+02  0.10670796123E+03  0.41800000000E+01 0.  1.
        -11    1    3    3    0    0  0.87143508969E+01  0.47051074787E+02 -0.39499853005E+02  0.62048222679E+02  0.00000000000E+00 0. -1.
         11    1    3    3    0    0 -0.24986552859E+02  0.35465731852E+02 -0.23526006301E+03  0.23922676106E+03  0.00000000000E+00 0.  1.
</event>
<event>
 8    1  0.5900800E-006  0.1592001E+03  0.7561462E-02  0.1189603E+00
          1   -1    0    0  501    0  0.00000000000E+00  0.00000000000E+00  0.93866648103E+02  0.93866648103E+02  0.00000000000E+00 0. -1.
         -1   -1    0    0    0  501 -0.00000000000E+00 -0.00000000000E+00 -0.27865927558E+03  0.27865927558E+03  0.00000000000E+00 0.  1.
         23    2    1    2    0    0 -0.61135053181E+02  0.10383642294E+03 -0.10438547501E+03  0.18113196525E+03  0.85982346939E+02 0.  0.
         23    2    1    2    0    0  0.61135053181E+02 -0.10383642294E+03 -0.80407152461E+02  0.19139395843E+03  0.12508732830E+03 0.  0.
          5    1    4    4  502    0  0.71247787063E+01 -0.11663598989E+03 -0.44265080732E+02  0.12502634275E+03  0.41800000000E+01 0. -1.
         -5    1    4    4    0  502  0.54010274474E+02  0.12799566945E+02 -0.36142071729E+02  0.66367615684E+02  0.41800000000E+01 0. -1.
        -11    1    3    3    0    0  0.19813380612E+02  0.31697892639E+02 -0.41226286719E+02  0.55650095828E+02  0.00000000000E+00 0. -1.
         11    1    3    3    0    0 -0.80948433793E+02  0.72138530302E+02 -0.63159188296E+02  0.12548186942E+03  0.00000000000E+00 0.  1.
</event>
<event>
 8    1  0.6762675E-006  0.8002941E+02  0.7561462E-02  0.1328968E+00
          1   -1    0    0  501    0  0.00000000000E+00  0.00000000000E+00  0.81109244296E+03  0.81109244296E+03  0.00000000000E+00 0. -1.
         -1   -1    0    0    0  501 -0.00000000000E+00 -0.00000000000E+00 -0.14598992486E+02  0.14598992486E+02  0.00000000000E+00 0.  1.
         23    2    1    2    0    0  0.32728894444E+02  0.10905622772E+01  0.24865670752E+03  0.26280122295E+03  0.78498119277E+02 0.  0.
         23    2    1    2    0    0 -0.32728894444E+02 -0.10905622772E+01  0.54783674295E+03  0.56289021250E+03  0.12509166455E+03 0.  0.
          5    1    4    4  502    0  0.20131206625E+02 -0.18205976576E+02  0.44568675248E+03  0.44653205573E+03  0.41800000000E+01 0.  1.
         -5    1    4    4    0  502 -0.52860101069E+02  0.17115414298E+02  0.10214999048E+03  0.11635815677E+03  0.41800000000E+01 0.  1.
        -11    1    3    3    0    0  0.34444729690E+02 -0.30037351572E+02  0.19891356030E+03  0.20409626739E+03  0.00000000000E+00 0. -1.
         11    1    3    3    0    0 -0.17158352460E+01  0.31127913850E+02  0.49743147228E+02  0.58704955561E+02  0.00000000000E+00 0.  1.
</event>
<event>
 7    1  0.5900800E-006  0.8138810E+02  0.7561462E-02  0.1325158E+00
         -2   -1    0    0    0  501 -0.00000000000E+00  0.00000000000E+00  0.21182575321E+03  0.21182575321E+03  0.00000000000E+00 0.  1.
          2   -1    0    0  501    0  0.00000000000E+00 -0.00000000000E+00 -0.98832940371E+02  0.98832940371E+02  0.00000000000E+00 0. -1.
         23    2    1    2    0    0  0.21213419021E+02  0.33972529003E+02  0.11877161404E+03  0.15551379937E+03  0.92052721964E+02 0.  0.
          5    1    1    2  502    0 -0.25664019896E+02 -0.45009511273E+02 -0.71402932676E+02  0.88319585693E+02  0.41800000000E+01 0. -1.
         -5    1    1    2    0  502  0.44506008749E+01  0.11036982270E+02  0.65624131481E+02  0.66825308517E+02  0.41800000000E+01 0.  1.
        -11    1    3    3    0    0 -0.22338126707E+02  0.47573169199E+02  0.47223007254E+02  0.70655578311E+02  0.00000000000E+00 0. -1.
         11    1    3    3    0    0  0.43551545728E+02 -0.13600640196E+02  0.71548606782E+02  0.84858221060E+02  0.00000000000E+00 0.  1.
</event>
<event>
 8    1  0.5900800E-006  0.1304981E+03  0.7561462E-02  0.1226718E+00
         -3   -1    0    0    0  501 -0.00000000000E+00  0.00000000000E+00  0.32334783651E+03  0.32334783651E+03  0.00000000000E+00 0.  1.
          3   -1    0    0  501    0  0.00000000000E+00 -0.00000000000E+00 -0.81980337376E+02  0.81980337376E+02  0.00000000000E+00 0. -1.
         23    2    1    2    0    0  0.60139956819E+02 -0.10528848298E+03  0.11323303167E+03  0.18906655964E+03  0.90675054211E+02 0.  0.
         23    2    1    2    0    0 -0.60139956819E+02  0.10528848298E+03  0.12813446746E+03  0.21626161425E+03  0.12509262564E+03 0.  0.
          5    1    4    4  502    0 -0.23338541790E+02  0.57868638753E+02 -0.12069551019E+02  0.63691548464E+02  0.41800000000E+01 0.  1.
         -5    1    4    4    0  502 -0.36801415029E+02  0.47419844231E+02  0.14020401848E+03  0.15257006578E+03  0.41800000000E+01 0.  1.
        -11    1    3    3    0    0  0.51295374671E+02 -0.24196832313E+02  0.10157637844E+02  0.57618397784E+02  0.00000000000E+00 0.  1.
         11    1    3    3    0    0  0.88445821474E+01 -0.81091650672E+02  0.10307539382E+03  0.13144816185E+03  0.00000000000E+00 0. -1.
</event>
<event>
 8    1  0.5900800E-006  0.1545868E+03  0.7561462E-02  0.1194947E+00
          1   -1    0    0  501    0  0.00000000000E+00  0.00000000000E+00  0.18823824142E+03  0.18823824142E+03  0.00000000000E+00 0. -1.
         -1   -1    0    0    0  501 -0.00000000000E+00 -0.00000000000E+00 -0.19060245409E+03  0.19060245409E+03  0.00000000000E+00 0.  1.
         23    2    1    2    0    0  0.46271122936E+02  0.14614245019E+03 -0.21128237299E+02  0.18009878300E+03  0.92144108123E+02 0.  0.
         23    2    1    2    0    0 -0.46271122936E+02 -0.14614245019E+03  0.18764024630E+02  0.19874191250E+03  0.12509047365E+03 0.  0.
          5    1    4    4  502    0 -0.28100024980E+02 -0.99396949355E+02  0.71616850892E+02  0.12576092667E+03  0.41800000000E+01 0. -1.
         -5    1    4    4    0  502 -0.18171097956E+02 -0.46745500839E+02 -0.52852826261E+02  0.72980985835E+02  0.41800000000E+01 0. -1.
        -11    1    3    3    0    0  0.43115611228E+02  0.96113097189E+02 -0.55742804751E+02  0.11918029898E+03  0.00000000000E+00 0.  1.
         11    1    3    3    0    0  0.31555117080E+01  0.50029353006E+02  0.34614567452E+02  0.60918484028E+02  0.00000000000E+00 0. -1.
</event>
<event>
 8    1  0.5900800E-006  0.7597547E+02  0.7561462E-02  0.1340877E+00
          1   -1    0    0  501    0  0.00000000000E+00  0.00000000000E+00  0.90441207600E+02  0.90441207600E+02  0.00000000000E+00 0. -1.
         -1   -1    0    0    0  501 -0.00000000000E+00 -0.00000000000E+00 -0.12972181437E+03  0.12972181437E+03  0.00000000000E+00 0.  1.
         23    2    1    2    0    0  0.14224895608E+02  0.17299672444E+02 -0.19846579891E+02  0.91604834212E+02  0.86579054025E+02 0.  0.
         23    2    1    2    0    0 -0.14224895608E+02 -0.17299672444E+02 -0.19434026884E+02  0.12855818776E+03  0.12509156614E+03 0.  0.
          5    1    4    4  502    0 -0.58167648301E+02  0.29830733105E+01 -0.44945986467E+02  0.73688453198E+02  0.41800000000E+01 0. -1.
         -5    1    4    4    0  502  0.43942752693E+02 -0.20282745755E+02  0.25511959583E+02  0.54869734566E+02  0.41800000000E+01 0. -1.
        -11    1    3    3    0    0 -0.15446211712E+01  0.26617549407E+02 -0.49803843475E+02  0.56491615448E+02  0.00000000000E+00 0.  1.
         11    1    3    3    0    0  0.15769516779E+02 -0.93178769625E+01  0.29957263584E+02  0.35113218764E+02  0.00000000000E+00 0. -1.
</event>
<event>
 8    1  0.5900800E-006  0.1958345E+03  0.7561462E-02  0.1153302E+00
          3   -1    0    0  501    0  0.00000000000E+00  0.00000000000E+00  0.89401792723E+03  0.89401792723E+03  0.00000000000E+00 0. -1.
         -3   -1    0    0    0  501 -0.00000000000E+00 -0.00000000000E+00 -0.48593791650E+02  0.48593791650E+02  0.00000000000E+00 0.  1.
         23    2    1    2    0    0 -0.30901153942E+01  0.17629618007E+03  0.35348125681E+03  0.40526136085E+03  0.90542143575E+02 0.  0.
         23    2    1    2    0    0  0.30901153942E+01 -0.17629618007E+03  0.49194287877E+03  0.53735035803E+03  0.12509084452E+03 0.  0.
          5    1    4    4  502    0  0.13513557893E+02 -0.18936235341E+03  0.38783626565E+03  0.43182769537E+03  0.41800000000E+01 0.  1.
         -5    1    4    4    0  502 -0.10423442499E+02  0.13066173345E+02  0.10410661312E+03  0.10552266266E+03  0.41800000000E+01 0.  1.
        -11    1    3    3    0    0 -0.27346874736E+02  0.12284531634E+03  0.30204687938E+03  0.32721726826E+03  0.00000000000E+00 0. -1.
         11    1    3    3    0    0  0.24256759342E+02  0.53450863725E+02  0.51434377435E+02  0.78044092594E+02  0.00000000000E+00 0.  1.
</event>
<event>
 8    1  0.5900800E-006  0.2298265E+03  0.7561462E-02  0.1126762E+00
          2   -1    0    0  501    0  0.00000000000E+00  0.00000000000E+00  0.17022619678E+04  0.17022619678E+04  0.00000000000E+00 0. -1.
         -2   -1    0    0    0  501 -0.00000000000E+00 -0.00000000000E+00 -0.50548016695E+02  0.50548016695E+02  0.00000000000E+00 0.  1.
         23    2    1    2    0    0 -0.13795144626E+03 -0.14687919803E+03  0.27024594707E+03  0.35113115178E+03  0.98265525498E+02 0.  0.
         23    2    1    2    0    0  0.13795144626E+03  0.14687919803E+03  0.13814680040E+04  0.14016788327E+04  0.12508238715E+03 0.  0.
          5    1    4    4  502    0  0.14705849628E+03  0.78266203945E+02  0.90879389623E+03  0.92394567927E+03  0.41800000000E+01 0. -1.
         -5    1    4    4    0  502 -0.91070500185E+01  0.68612994084E+02  0.47267410776E+03  0.47773315341E+03  0.41800000000E+01 0. -1.
        -11    1    3    3    0    0 -0.44522922658E+02 -0.11762542690E+03  0.16370282676E+03  0.20643799840E+03  0.00000000000E+00 0. -1.
         11    1    3    3    0    0 -0.93428523607E+02 -0.29253771132E+02  0.10654312031E+03  0.14469315338E+03  0.00000000000E+00 0.  1.
</event>
<event>
 8    1  0.5900800E-006  0.1022152E+03  0.7561462E-02  0.1275705E+00
         -1   -1    0    0    0  501 -0.00000000000E+00  0.00000000000E+00  0.42355168740E+02  0.42355168740E+02  0.00000000000E+00 0.  1.
          1   -1    0    0  501    0  0.00000000000E+00 -0.00000000000E+00 -0.34973115910E+03  0.34973115910E+03  0.00000000000E+00 0. -1.
         23    2    1    2    0    0  0.24600270157E+02 -0.50748740848E+02 -0.12334909562E+03  0.16253379711E+03  0.89563540695E+02 0.  0.
         23    2    1    2    0    0 -0.24600270157E+02  0.50748740848E+02 -0.18402689474E+03  0.22955253073E+03  0.12509140014E+03 0.  0.
          5    1    4    4  502    0  0.28121697705E+02  0.33058371438E+02 -0.16494490955E+03  0.17061061336E+03  0.41800000000E+01 0. -1.
         -5    1    4    4    0  502 -0.52721967862E+02  0.17690369410E+02 -0.19081985190E+02  0.58941917375E+02  0.41800000000E+01 0. -1.
        -11    1    3    3    0    0  0.27175874589E+02  0.20327773079E+02 -0.49386199414E+02  0.59922810436E+02  0.00000000000E+00 0. -1.
         11    1    3    3    0    0 -0.25756044312E+01 -0.71076513926E+02 -0.73962896206E+02  0.10261098667E+03  0.00000000000E+00 0.  1.
</event>
<event>
 8    1  0.5900800E-006  0.1063876E+03  0.7561462E-02  0.1267410E+00
          1   -1    0    0  501    0  0.00000000000E+00  0.00000000000E+00  0.90481474282E+03  0.90481474282E+03  0.00000000000E+00 0. -1.
         -1   -1    0    0    0  501 -0.00000000000E+00 -0.00000000000E+00 -0.14994085245E+02  0.14994085245E+02  0.00000000000E+00 0.  1.
         23    2    1    2    0    0  0.21515748660E+02  0.23122242076E+02  0.21629082398E+03  0.23403349560E+03  0.83620517851E+02 0.  0.
         23    2    1    2    0    0 -0.21515748660E+02 -0.23122242076E+02  0.67352983359E+03  0.68577533246E+03  0.12509118417E+03 0.  0.
          5    1    4    4  502    0  0.27404765970E+02  0.37234003792E+02  0.34768713697E+03  0.35077230485E+03  0.41800000000E+01 0.  1.
         -5    1    4    4    0  502 -0.48920514630E+02 -0.60356245867E+02  0.32584269662E+03  0.33500302761E+03  0.41800000000E+01 0.  1.
        -11    1    3    3    0    0 -0.31878460188E+02  0.56913581196E+01  0.95035061636E+02  0.10040065100E+03  0.00000000000E+00 0.  1.
         11    1    3    3    0    0  0.53394208848E+02  0.17430883956E+02  0.12125576234E+03  0.13363284460E+03  0.00000000000E+00 0. -1.
</event>
<event>
 8    1  0.5900800E-006  0.8737994E+02  0.7561462E-02  0.1309324E+00
         -2   -1    0    0    0  501 -0.00000000000E+00  0.00000000000E+00  0.13149023965E+03  0.13149023965E+03  0.00000000000E+00 0. -1.
          2   -1    0    0  501    0  0.00000000000E+00 -0.00000000000E+00 -0.92530718840E+02  0.92530718840E+02  0.00000000000E+00 0.  1.
         23    2    1    2    0    0  0.14293904729E+02 -0.20876096218E+02  0.37526819290E+02  0.96394838706E+02  0.85109198430E+02 0.  0.
         23    2    1    2    0    0 -0.14293904729E+02  0.20876096218E+02  0.14327015227E+01  0.12762611979E+03  0.12508495798E+03 0.  0.
          5    1    4    4  502    0 -0.18799151140E+02  0.61530011273E+02 -0.34409445690E+02  0.73081001112E+02  0.41800000000E+01 0.  1.
         -5    1    4    4    0  502  0.45052464112E+01 -0.40653915054E+02  0.35842147212E+02  0.54545118675E+02  0.41800000000E+01 0.  1.
        -11    1    3    3    0    0 -0.22433939357E+02  0.65067059984E+01 -0.14169747011E+02  0.27320332875E+02  0.00000000000E+00 0.  1.
         11    1    3    3    0    0  0.36727844086E+02 -0.27382802217E+02  0.51696566302E+02  0.69074505831E+02  0.00000000000E+00 0. -1.
</event>
<event>
 8    1  0.5900800E-006  0.8076429E+02  0.7561462E-02  0.1326896E+00
         -1   -1    0    0    0  501 -0.00000000000E+00  0.00000000000E+00  0.89526147271E+02  0.89526147271E+02  0.00000000000E+00 0.  1.
          1   -1    0    0  501    0  0.00000000000E+00 -0.00000000000E+00 -0.17528190439E+03  0.17528190439E+03  0.00000000000E+00 0. -1.
         23    2    1    2    0    0 -0.60479597282E+02 -0.15176755481E+02 -0.29293432285E+02  0.11406488477E+03  0.90909719874E+02 0.  0.
         23    2    1    2    0    0  0.60479597282E+02  0.15176755481E+02 -0.56462324837E+02  0.15074316690E+03  0.12508953851E+03 0.  0.
          5    1    4    4  502    0  0.48893710376E+02 -0.14528853383E+02  0.29424442565E+02  0.59033488083E+02  0.41800000000E+01 0.  1.
         -5    1    4    4    0  502  0.11585886906E+02  0.29705608864E+02 -0.85886767402E+02  0.91709678814E+02  0.41800000000E+01 0.  1.
        -11    1    3    3    0    0 -0.25389126769E+02  0.17022977694E+02  0.26678988939E+02  0.40572872445E+02  0.00000000000E+00 0.  1.
         11    1    3    3    0    0 -0.35090470513E+02 -0.32199733175E+02 -0.55972421225E+02  0.73492012322E+02  0.00000000000E+00 0. -1.
</event>
<event>
 8    1  0.5900800E-006  0.1167436E+03  0.7561462E-02  0.1248568E+00
         -2   -1    0    0    0  501 -0.00000000000E+00  0.00000000000E+00  0.25313046671E+02  0.25313046671E+02  0.00000000000E+00 0.  1.
          2   -1    0    0  501    0  0.00000000000E+00 -0.00000000000E+00 -0.69319507651E+03  0.69319507651E+03  0.00000000000E+00 0. -1.
         23    2    1    2    0    0 -0.10576442495E+02 -0.74191049419E+02 -0.30022884119E+03  0.32299248619E+03  0.92577622049E+02 0.  0.
         23    2    1    2    0    0  0.10576442495E+02  0.74191049419E+02 -0.36765318865E+03  0.39551563699E+03  0.12509028351E+03 0.  0.
          5    1    4    4  502    0 -0.29466228146E+02 -0.10438636600E+02 -0.24907449177E+02  0.40188022591E+02  0.41800000000E+01 0.  1.
         -5    1    4    4    0  502  0.40042670641E+02  0.84629686019E+02 -0.34274573948E+03  0.35532761440E+03  0.41800000000E+01 0.  1.
        -11    1    3    3    0    0  0.21060489969E+02 -0.73635932996E+02 -0.26402967964E+03  0.27491356205E+03  0.00000000000E+00 0. -1.
         11    1    3    3    0    0 -0.31636932464E+02 -0.55511642307E+00 -0.36199161542E+02  0.48078924138E+02  0.00000000000E+00 0.  1.
</event>
<event>
 8    1  0.5900800E-006  0.1517093E+03  0.7561462E-02  0.1198388E+00
         -2   -1    0    0    0  501 -0.00000000000E+00  0.00000000000E+00  0.86058586135E+02  0.86058586135E+02  0.00000000000E+00 0.  1.
          2   -1    0    0  501    0  0.00000000000E+00 -0.00000000000E+00 -0.39710474822E+03  0.39710474822E+03  0.00000000000E+00 0. -1.
         23    2    1    2    0    0 -0.37845485017E+02 -0.11805922230E+03 -0.44540142754E+02  0.16371650812E+03  0.97206018384E+02 0.  0.
         23    2    1    2    0    0  0.37845485017E+02  0.11805922230E+03 -0.26650601933E+03  0.31944682623E+03  0.12510218121E+03 0.  0.
          5    1    4    4  502    0  0.43905584254E+02  0.40626652869E+00 -0.13885069115E+03  0.14568751564E+03  0.41800000000E+01 0. -1.
         -5    1    4    4    0  502 -0.60600992370E+01  0.11765295577E+03 -0.12765532818E+03  0.17375931059E+03  0.41800000000E+01 0.  1.
        -11    1    3    3    0    0  0.17733422052E+02 -0.11181165987E+02 -0.37602266414E+02  0.43051401487E+02  0.00000000000E+00 0. -1.
         11    1    3    3    0    0 -0.55578907069E+02 -0.10687805631E+03 -0.69378763405E+01  0.12066510664E+03  0.00000000000E+00 0.  1.
</event>
<event>
 8    1  0.5900800E-006  0.1112355E+03  0.7561462E-02  0.1258299E+00
         -3   -1    0    0    0  501 -0.00000000000E+00  0.00000000000E+00  0.16523161974E+02  0.16523161974E+02  0.00000000000E+00 0.  1.
          3   -1    0    0  501    0  0.00000000000E+00 -0.00000000000E+00 -0.83916134459E+03  0.83916134459E+03  0.00000000000E+00 0. -1.
         23    2    1    2    0    0  0.30155555995E+01 -0.37306048418E+02 -0.24875246257E+03  0.26708727119E+03  0.89760726225E+02 0.  0.
         23    2    1    2    0    0 -0.30155555995E+01  0.37306048418E+02 -0.57388572005E+03  0.58859723538E+03  0.12530383472E+03 0.  0.
          5    1    4    4  502    0 -0.58613173497E+02  0.42887912050E+02 -0.37381714577E+03  0.38083015634E+03  0.41800000000E+01 0.  1.
         -5    1    4    4    0  502  0.55597617898E+02 -0.55818636319E+01 -0.20006857428E+03  0.20776707904E+03  0.41800000000E+01 0.  1.
        -11    1    3    3    0    0 -0.40989240263E+02 -0.11073766731E+02 -0.77902451135E+02  0.88721688554E+02  0.00000000000E+00 0. -1.
         11    1    3    3    0    0  0.44004795863E+02 -0.26232281688E+02 -0.17085001144E+03  0.17836558264E+03  0.00000000000E+00 0.  1.
</event>
<event>
 8    1  0.5900800E-006  0.1885655E+03  0.7561462E-02  0.1159762E+00
          2   -1    0    0  501    0  0.00000000000E+00  0.00000000000E+00  0.18193900912E+04  0.18193900912E+04  0.00000000000E+00 0.  1.
         -2   -1    0    0    0  501 -0.00000000000E+00 -0.00000000000E+00 -0.24918968907E+02  0.24918968907E+02  0.00000000000E+00 0. -1.
         23    2    1    2    0    0  0.14185253120E+03 -0.66586097494E+02  0.46182997021E+03  0.49665261046E+03  0.93920419025E+02 0.  0.
         23    2    1    2    0    0 -0.14185253120E+03  0.66586097494E+02  0.13326411521E+04  0.13476564497E+04  0.12525820152E+03 0.  0.
          5    1    4    4  502    0 -0.11300093211E+03 -0.12954913278E+02  0.66623201899E+03  0.67588432143E+03  0.41800000000E+01 0. -1.
         -5    1    4    4    0  502 -0.28851599092E+02  0.79541010772E+02  0.66640913312E+03  0.67177212824E+03  0.41800000000E+01 0. -1.
        -11    1    3    3    0    0  0.17249689936E+02 -0.50005070022E+02  0.93001979215E+02  0.10699264913E+03  0.00000000000E+00 0.  1.
         11    1    3    3    0    0  0.12460284126E+03 -0.16581027472E+02  0.36882799099E+03  0.38965996133E+03  0.00000000000E+00 0. -1.
</event>
<event>
 8    1  0.5900800E-006  0.1374187E+03  0.7561462E-02  0.1216845E+00
          2   -1    0    0  501    0  0.00000000000E+00  0.00000000000E+00  0.11919157984E+03  0.11919157984E+03  0.00000000000E+00 0.  1.
         -2   -1    0    0    0  501 -0.00000000000E+00 -0.00000000000E+00 -0.19895054207E+03  0.19895054207E+03  0.00000000000E+00 0. -1.
         23    2    1    2    0    0  0.20957954621E+01  0.10714102513E+03 -0.40485484065E+02  0.14881009728E+03  0.94983045892E+02 0.  0.
         23    2    1    2    0    0 -0.20957954621E+01 -0.10714102513E+03 -0.39273478168E+02  0.16933202464E+03  0.12508931551E+03 0.  0.
          5    1    4    4  502    0 -0.23069424459E+02 -0.13006343295E+03 -0.23481442384E+02  0.13422945084E+03  0.41800000000E+01 0.  1.
         -5    1    4    4    0  502  0.20973628997E+02  0.22922407817E+02 -0.15792035784E+02  0.35102573803E+02  0.41800000000E+01 0.  1.
        -11    1    3    3    0    0 -0.13948399994E+02  0.57048156957E+02  0.25837647498E+02  0.64161001417E+02  0.00000000000E+00 0.  1.
         11    1    3    3    0    0  0.16044195456E+02  0.50092868175E+02 -0.66323131563E+02  0.84649095861E+02  0.00000000000E+00 0. -1.
</event>
<event>
 8    1  0.5900800E-006  0.9146284E+02  0.7561462E-02  0.1299347E+00
         -1   -1    0    0    0  501 -0.00000000000E+00  0.00000000000E+00  0.13759682387E+03  0.13759682387E+03  0.00000000000E+00 0.  1.
          1   -1    0    0  501    0  0.00000000000E+00 -0.00000000000E+00 -0.16404743787E+03  0.16404743787E+03  0.00000000000E+00 0. -1.
         23    2    1    2    0    0 -0.51893224415E+02 -0.57233761234E+02  0.54829032569E+02  0.13364687991E+03  0.94269059245E+02 0.  0.
         23    2    1    2    0    0  0.51893224415E+02  0.57233761234E+02 -0.81279646573E+02  0.16799738183E+03  0.12509248255E+03 0.  0.
          5    1    4    4  502    0  0.10629246294E+02 -0.16318220912E+02 -0.81148705397E+02  0.83557465245E+02  0.41800000000E+01 0.  1.
         -5    1    4    4    0  502  0.41263978121E+02  0.73551982146E+02 -0.13094117561E+00  0.84439916589E+02  0.41800000000E+01 0.  1.
        -11    1    3    3    0    0 -0.36832095379E+02 -0.30236801701E+02  0.80444286136E+02  0.93499468443E+02  0.00000000000E+00 0.  1.
         11    1    3    3    0    0 -0.15061129037E+02 -0.26996959533E+02 -0.25615253567E+02  0.40147411463E+02  0.00000000000E+00 0. -1.
</event>
<event>
 8    1  0.5900800E-006  0.1037784E+03  0.7561462E-02  0.1272545E+00
         -1   -1    0    0    0  501 -0.00000000000E+00  0.00000000000E+00  0.11368872166E+02  0.11368872166E+02  0.00000000000E+00 0.  1.
          1   -1    0    0  501    0  0.00000000000E+00 -0.00000000000E+00 -0.11309729892E+04  0.11309729892E+04  0.00000000000E+00 0. -1.
         23    2    1    2    0    0 -0.35143958585E+02 -0.21069438260E+02 -0.42524656641E+03  0.43561750551E+03  0.85140764707E+02 0.  0.
         23    2    1    2    0    0  0.35143958585E+02  0.21069438260E+02 -0.69435755058E+03  0.70672435581E+03  0.12509151845E+03 0.  0.
          5    1    4    4  502    0  0.52512215595E+02  0.57414142727E+02 -0.58391509044E+03  0.58909101318E+03  0.41800000000E+01 0.  1.
         -5    1    4    4    0  502 -0.17368257010E+02 -0.36344704468E+02 -0.11044246015E+03  0.11763334263E+03  0.41800000000E+01 0.  1.
        -11    1    3    3    0    0 -0.27830193394E+02 -0.51124108655E+02 -0.33969064268E+03  0.34464173699E+03  0.00000000000E+00 0.  1.
         11    1    3    3    0    0 -0.73137651917E+01  0.30054670395E+02 -0.85555923727E+02  0.90975768525E+02  0.00000000000E+00 0. -1.
</event>
<event>
 8    1  0.5900800E-006  0.7936744E+02  0.7561462E-02  0.1330856E+00
         -1   -1    0    0    0  501 -0.00000000000E+00  0.00000000000E+00  0.78280670386E+02  0.78280670386E+02  0.00000000000E+00 0.  1.
          1   -1    0    0  501    0  0.00000000000E+00 -0.00000000000E+00 -0.15265627064E+03  0.15265627064E+03  0.00000000000E+00 0. -1.
         23    2    1    2    0    0  0.12082071864E+01  0.38724898855E+01 -0.20402587458E+02  0.94444873857E+02  0.92125526757E+02 0.  0.
         23    2    1    2    0    0 -0.12082071864E+01 -0.38724898855E+01 -0.53973012798E+02  0.13649206717E+03  0.12530180505E+03 0.  0.
          5    1    4    4  502    0 -0.19744269106E+01 -0.63305401776E+02 -0.40839323396E+02  0.75477115678E+02  0.41800000000E+01 0. -1.
         -5    1    4    4    0  502  0.76621972428E+00  0.59432911891E+02 -0.13133689402E+02  0.61014951494E+02  0.41800000000E+01 0.  1.
        -11    1    3    3    0    0 -0.15822015731E+02 -0.48414109927E+01  0.33437384424E+02  0.37307293112E+02  0.00000000000E+00 0.  1.
         11    1    3    3    0    0  0.17030222918E+02  0.87139008782E+01 -0.53839971882E+02  0.57137580745E+02  0.00000000000E+00 0. -1.
</event>
<event>
 8    1  0.5900800E-006  0.8882337E+02  0.7561462E-02  0.1305726E+00
         -1   -1    0    0    0  501 -0.00000000000E+00  0.00000000000E+00  0.21564453444E+02  0.21564453444E+02  0.00000000000E+00 0.  1.
          1   -1    0    0  501    0  0.00000000000E+00 -0.00000000000E+00 -0.60749183943E+03  0.60749183943E+03  0.00000000000E+00 0. -1.
         23    2    1    2    0    0  0.33575449685E+02 -0.14924897703E+02 -0.24372882833E+03  0.26286314543E+03  0.91341272564E+02 0.  0.
         23    2    1    2    0    0 -0.33575449685E+02  0.14924897703E+02 -0.34219855766E+03  0.36619314745E+03  0.12508998753E+03 0.  0.
          5    1    4    4  502    0  0.11077550160E+02  0.37204147899E+02 -0.28039986073E+02  0.48068429946E+02  0.41800000000E+01 0.  1.
         -5    1    4    4    0  502 -0.44652999844E+02 -0.22279250196E+02 -0.31415857159E+03  0.31812471750E+03  0.41800000000E+01 0.  1.
        -11    1    3    3    0    0  0.54303285238E+02  0.10926511071E+02 -0.90608073886E+02  0.10619820378E+03  0.00000000000E+00 0.  1.
         11    1    3    3    0    0 -0.20727835553E+02 -0.25851408774E+02 -0.15312075444E+03  0.15666494165E+03  0.00000000000E+00 0. -1.
</event>
<event>
 8    1  0.5900800E-006  0.1007547E+03  0.7561462E-02  0.1278717E+00
         -3   -1    0    0    0  501 -0.00000000000E+00  0.00000000000E+00  0.84015551345E+02  0.84015551345E+02  0.00000000000E+00 0.  1.
          3   -1    0    0  501    0  0.00000000000E+00 -0.00000000000E+00 -0.20751867764E+03  0.20751867764E+03  0.00000000000E+00 0. -1.
         23    2    1    2    0    0 -0.51274252463E+02  0.31507618292E+02 -0.28190825786E+02  0.12315077845E+03  0.10368033853E+03 0.  0.
         23    2    1    2    0    0  0.51274252463E+02 -0.31507618292E+02 -0.95312300505E+02  0.16838345053E+03  0.12508706092E+03 0.  0.
          5    1    4    4  502    0  0.10681505191E+02 -0.45662287146E+02  0.15406806004E+02  0.49537673459E+02  0.41800000000E+01 0. -1.
         -5    1    4    4    0  502  0.40592747272E+02  0.14154668854E+02 -0.11071910651E+03  0.11884577707E+03  0.41800000000E+01 0. -1.
        -11    1    3    3    0    0  0.26086308313E+02  0.20328751209E+02  0.12096870909E+02  0.35214881697E+02  0.00000000000E+00 0.  1.
         11    1    3    3    0    0 -0.77360560777E+02  0.11178867083E+02 -0.40287696694E+02  0.87935896754E+02  0.00000000000E+00 0. -1.
</event>
<event>
 8    1  0.5900800E-006  0.2720349E+03  0.7561462E-02  0.1100121E+00
         -2   -1    0    0    0  501 -0.00000000000E+00  0.00000000000E+00  0.13169360723E+03  0.13169360723E+03  0.00000000000E+00 0. -1.
          2   -1    0    0  501    0  0.00000000000E+00 -0.00000000000E+00 -0.12831480053E+04  0.12831480053E+04  0.00000000000E+00 0.  1.
         23    2    1    2    0    0 -0.25641879158E+03 -0.44385044156E+02 -0.53315305691E+02  0.27937830412E+03  0.86539506416E+02 0.  0.
         23    2    1    2    0    0  0.25641879158E+03  0.44385044156E+02 -0.10981390923E+04  0.11354633084E+04  0.12508728844E+03 0.  0.
          5    1    4    4  502    0  0.25766068162E+03  0.33787488933E+02 -0.10919202570E+04  0.11224250270E+04  0.41800000000E+01 0. -1.
         -5    1    4    4    0  502 -0.12418900423E+01  0.10597555223E+02 -0.62188353483E+01  0.13038281354E+02  0.41800000000E+01 0. -1.
        -11    1    3    3    0    0 -0.74401771186E+02  0.24141847996E+02 -0.28781356665E+02  0.83347578679E+02  0.00000000000E+00 0. -1.
         11    1    3    3    0    0 -0.18201702040E+03 -0.68526892151E+02 -0.24533949026E+02  0.19603072544E+03  0.00000000000E+00 0.  1.
</event>
<event>
 8    1  0.5900800E-006  0.7374674E+02  0.7561462E-02  0.1347796E+00
          1   -1    0    0  501    0  0.00000000000E+00  0.00000000000E+00  0.54858595528E+02  0.54858595528E+02  0.00000000000E+00 0. -1.
         -1   -1    0    0    0  501 -0.00000000000E+00 -0.00000000000E+00 -0.19563221330E+03  0.19563221330E+03  0.00000000000E+00 0.  1.
         23    2    1    2    0    0 -0.35884623585E+02  0.98746677698E+01 -0.57289390685E+02  0.95563610767E+02  0.66821509593E+02 0.  0.
         23    2    1    2    0    0  0.35884623585E+02 -0.98746677698E+01 -0.83484227092E+02  0.15492719807E+03  0.12509038834E+03 0.  0.
          5    1    4    4  502    0  0.58399671161E+02 -0.23585868913E+00  0.89342191604E+01  0.59227273220E+02  0.41800000000E+01 0.  1.
         -5    1    4    4    0  502 -0.22515047576E+02 -0.96388090806E+01 -0.92418446252E+02  0.95699924846E+02  0.41800000000E+01 0.  1.
        -11    1    3    3    0    0  0.73924208295E+01  0.18542484597E+02  0.36772697390E+01  0.20297633692E+02  0.00000000000E+00 0. -1.
         11    1    3    3    0    0 -0.43277044415E+02 -0.86678168272E+01 -0.60966660424E+02  0.75265977075E+02  0.00000000000E+00 0.  1.
</event>
<event>
 8    1  0.5900800E-006  0.7336406E+02  0.7561462E-02  0.1349013E+00
          1   -1    0    0  501    0  0.00000000000E+00  0.00000000000E+00  0.23478061185E+03  0.23478061185E+03  0.00000000000E+00 0. -1.
         -1   -1    0    0    0  501 -0.00000000000E+00 -0.00000000000E+00 -0.10859211749E+03  0.10859211749E+03  0.00000000000E+00 0.  1.
         23    2    1    2    0    0 -0.24890074355E+02  0.34320739936E+02 -0.58142284595E+02  0.11661112237E+03  0.91761645645E+02 0.  0.
         23    2    1    2    0    0  0.24890074355E+02 -0.34320739936E+02  0.18433077896E+03  0.22676160697E+03  0.12508221830E+03 0.  0.
          5    1    4    4  502    0  0.19637106138E+02 -0.42424065937E+02  0.50876839331E+01  0.47209895530E+02  0.41800000000E+01 0. -1.
         -5    1    4    4    0  502  0.52529682164E+01  0.81033260011E+01  0.17924309503E+03  0.17955171144E+03  0.41800000000E+01 0. -1.
        -11    1    3    3    0    0 -0.19576426232E+02  0.59965898478E+02 -0.12976466573E+02  0.64401351919E+02  0.00000000000E+00 0. -1.
         11    1    3    3    0    0 -0.53136481227E+01 -0.25645158542E+02 -0.45165818021E+02  0.52209770451E+02  0.00000000000E+00 0.  1.
</event>
<event>
 8    1  0.5900800E-006  0.1058677E+03  0.7561462E-02  0.1268419E+00
          1   -1    0    0  501    0  0.00000000000E+00  0.00000000000E+00  0.81186493051E+03  0.81186493051E+03  0.00000000000E+00 0. -1.
         -1   -1    0    0    0  501 -0.00000000000E+00 -0.00000000000E+00 -0.23722660884E+02  0.23722660884E+02  0.00000000000E+00 0.  1.
         23    2    1    2    0    0  0.14098909849E+02 -0.82444794786E+02  0.30565520466E+03  0.33017954401E+03  0.92722724846E+02 0.  0.
         23    2    1    2    0    0 -0.14098909849E+02  0.82444794786E+02  0.48248706497E+03  0.50540804739E+03  0.12509037953E+03 0.  0.
          5    1    4    4  502    0  0.36022668153E+02  0.58408234859E+02  0.39991179049E+03  0.40577834724E+03  0.41800000000E+01 0.  1.
         -5    1    4    4    0  502 -0.50121578003E+02  0.24036559927E+02  0.82575274484E+02  0.99629700143E+02  0.41800000000E+01 0.  1.
        -11    1    3    3    0    0  0.10686673858E+02 -0.97504487138E+01 -0.14784989671E+01  0.14541740180E+02  0.00000000000E+00 0.  1.
         11    1    3    3    0    0  0.34122359918E+01 -0.72694346072E+02  0.30713370362E+03  0.31563780383E+03  0.00000000000E+00 0. -1.
</event>
<event>
 8    1  0.5900800E-006  0.1013451E+03  0.7561462E-02  0.1277493E+00
          4   -1    0    0  501    0  0.00000000000E+00  0.00000000000E+00  0.74094597222E+03  0.74094597222E+03  0.00000000000E+00 0. -1.
         -4   -1    0    0    0  501 -0.00000000000E+00 -0.00000000000E+00 -0.28519502689E+02  0.28519502689E+02  0.00000000000E+00 0.  1.
         23    2    1    2    0    0  0.55103838827E+02  0.45745511878E+02  0.19796496749E+03  0.23519288234E+03  0.10486409606E+03 0.  0.
         23    2    1    2    0    0 -0.55103838827E+02 -0.45745511878E+02  0.51446150204E+03  0.53427259256E+03  0.12508989237E+03 0.  0.
          5    1    4    4  502    0 -0.18040540458E+02 -0.67655016729E+02  0.13297317330E+03  0.15033961423E+03  0.41800000000E+01 0. -1.
         -5    1    4    4    0  502 -0.37063298369E+02  0.21909504851E+02  0.38148832874E+03  0.38393297834E+03  0.41800000000E+01 0. -1.
        -11    1    3    3    0    0  0.13992312881E+01  0.34363284038E+02  0.17026339775E+03  0.17370209484E+03  0.00000000000E+00 0. -1.
         11    1    3    3    0    0  0.53704607539E+02  0.11382227840E+02  0.27701569732E+02  0.61490787498E+02  0.00000000000E+00 0.  1.
</event>
<event>
 7    1  0.5900800E-006  0.1209971E+03  0.7561462E-02  0.1241461E+00
         -1   -1    0    0    0  501 -0.00000000000E+00  0.00000000000E+00  0.12811384247E+03  0.12811384247E+03  0.00000000000E+00 0.  1.
          1   -1    0    0  501    0  0.00000000000E+00 -0.00000000000E+00 -0.19728838805E+03  0.19728838805E+03  0.00000000000E+00 0. -1.
         23    2    1    2    0    0  0.26652230353E+02 -0.53786051348E+02  0.67888631617E+02  0.12760502348E+03  0.89838160113E+02 0.  0.
          5    1    1    2  502    0 -0.62908519210E+02 -0.10617324785E+02 -0.88823428400E+02  0.10944077489E+03  0.41800000000E+01 0. -1.
         -5    1    1    2    0  502  0.36256288856E+02  0.64403376133E+02 -0.48239748801E+02  0.88356432156E+02  0.41800000000E+01 0.  1.
        -11    1    3    3    0    0 -0.15106158730E+02 -0.59949004505E+02  0.56818579225E+02  0.83966839394E+02  0.00000000000E+00 0. -1.
         11    1    3    3    0    0  0.41758389083E+02  0.61629531577E+01  0.11070052393E+02  0.43638184087E+02  0.00000000000E+00 0.  1.
</event>
<event>
 8    1  0.5900800E-006  0.9886444E+02  0.7561462E-02  0.1282702E+00
          1   -1    0    0  501    0  0.00000000000E+00  0.00000000000E+00  0.75459313720E+02  0.75459313720E+02  0.00000000000E+00 0. -1.
         -1   -1    0    0    0  501 -0.00000000000E+00 -0.00000000000E+00 -0.21017470205E+03  0.21017470205E+03  0.00000000000E+00 0.  1.
         23    2    1    2    0    0  0.23835525022E+02  0.21570604799E+02 -0.13962637768E+03  0.17006178591E+03  0.91608200718E+02 0.  0.
         23    2    1    2    0    0 -0.23835525022E+02 -0.21570604799E+02  0.49109893496E+01  0.11557222986E+03  0.11090265666E+03 0.  0.
          5    1    4    4  502    0 -0.54627918630E+02 -0.49194855658E+02 -0.56407546792E+00  0.73635140375E+02  0.41800000000E+01 0. -1.
         -5    1    4    4    0  502  0.30792393607E+02  0.27624250858E+02  0.54750648175E+01  0.41937089483E+02  0.41800000000E+01 0.  1.
        -11    1    3    3    0    0 -0.10587257707E+02  0.41440673136E+02 -0.11643979793E+03  0.12404695062E+03  0.00000000000E+00 0.  1.
         11    1    3    3    0    0  0.34422782730E+02 -0.19870068337E+02 -0.23186579750E+02  0.46014835293E+02  0.00000000000E+00 0. -1.
</event>
<event>
 8    1  0.5900800E-006  0.1346160E+03  0.7561462E-02  0.1220763E+00
          2   -1    0    0  501    0  0.00000000000E+00  0.00000000000E+00  0.16513922263E+03  0.16513922263E+03  0.00000000000E+00 0. -1.
         -2   -1    0    0    0  501 -0.00000000000E+00 -0.00000000000E+00 -0.11682214310E+03  0.11682214310E+03  0.00000000000E+00 0.  1.
         23    2    1    2    0    0  0.72851364743E+02  0.44287453587E+02  0.31017456844E+02  0.12959469019E+03  0.92541888929E+02 0.  0.
         23    2    1    2    0    0 -0.72851364743E+02 -0.44287453587E+02  0.17299622692E+02  0.15236667554E+03  0.12509047518E+03 0.  0.
          5    1    4    4  502    0  0.33713562308E+02  0.81310042801E+00 -0.52951287951E+01  0.34391513558E+02  0.41800000000E+01 0. -1.
         -5    1    4    4    0  502 -0.10656492705E+03 -0.45100554015E+02  0.22594751487E+02  0.11797516198E+03  0.41800000000E+01 0. -1.
        -11    1    3    3    0    0 -0.59960117204E+01  0.40051814761E+02 -0.83716641342E+01  0.41354380452E+02  0.00000000000E+00 0. -1.
         11    1    3    3    0    0  0.78847376463E+02  0.42356388260E+01  0.39389120978E+02  0.88240309739E+02  0.00000000000E+00 0.  1.
</event>
<event>
 7    1  0.5900800E-006  0.1554777E+03  0.7561462E-02  0.1193899E+00
          2   -1    0    0  501    0  0.00000000000E+00  0.00000000000E+00  0.19161319644E+03  0.19161319644E+03  0.00000000000E+00 0. -1.
         -2   -1    0    0    0  501 -0.00000000000E+00 -0.00000000000E+00 -0.15806947824E+03  0.15806947824E+03  0.00000000000E+00 0.  1.
         23    2    1    2    0    0 -0.89769991085E+02  0.45074316648E+02  0.14556483476E+02  0.13645778738E+03  0.91205762997E+02 0.  0.
          5    1    1    2  502    0 -0.54400039365E+02  0.76753396046E+01  0.22737873634E+02  0.59605020077E+02  0.41800000000E+01 0. -1.
         -5    1    1    2    0  502  0.14417003045E+03 -0.52749656253E+02 -0.37506389153E+01  0.15361986723E+03  0.41800000000E+01 0.  1.
        -11    1    3    3    0    0 -0.14234308074E+02  0.15819320840E+02 -0.35388916487E+02  0.41294574079E+02  0.00000000000E+00 0.  1.
         11    1    3    3    0    0 -0.75535683011E+02  0.29254995808E+02  0.49945399963E+02  0.95163213298E+02  0.00000000000E+00 0. -1.
</event>
<event>
 8    1  0.5900800E-006  0.1008880E+03  0.7561462E-02  0.1278440E+00
          2   -1    0    0  501    0  0.00000000000E+00  0.00000000000E+00  0.51379218410E+03  0.51379218410E+03  0.00000000000E+00 0. -1.
         -2   -1    0    0    0  501 -0.00000000000E+00 -0.00000000000E+00 -0.35898937912E+02  0.35898937912E+02  0.00000000000E+00 0.  1.
         23    2    1    2    0    0 -0.90919647611E+01  0.54252422768E+02  0.13662733085E+03  0.18208301963E+03  0.10705703761E+03 0.  0.
         23    2    1    2    0    0  0.90919647611E+01 -0.54252422768E+02  0.34126591534E+03  0.36760810239E+03  0.12508917926E+03 0.  0.
          5    1    4    4  502    0 -0.20374972680E+02 -0.47690868686E+02  0.42195218319E+02  0.66988561088E+02  0.41800000000E+01 0. -1.
         -5    1    4    4    0  502  0.29466937441E+02 -0.65615540823E+01  0.29907069702E+03  0.30061954130E+03  0.41800000000E+01 0. -1.
        -11    1    3    3    0    0  0.77637075299E+01  0.84386163111E+02  0.85431952611E+02  0.12033253179E+03  0.00000000000E+00 0. -1.
         11    1    3    3    0    0 -0.16855672291E+02 -0.30133740343E+02  0.51195378238E+02  0.61750487840E+02  0.00000000000E+00 0.  1.
</event>
<event>
 8    1  0.5900800E-006  0.8713351E+02  0.7561462E-02  0.1309946E+00
          1   -1    0    0  501    0  0.00000000000E+00  0.00000000000E+00  0.74454196682E+03  0.74454196682E+03  0.00000000000E+00 0. -1.
         -1   -1    0    0    0  501 -0.00000000000E+00 -0.00000000000E+00 -0.24377924635E+02  0.24377924635E+02  0.00000000000E+00 0.  1.
         23    2    1    2    0    0  0.34151593312E+01 -0.37131462771E+02  0.12521394249E+03  0.15981909184E+03  0.92049996645E+02 0.  0.
         23    2    1    2    0    0 -0.34151593312E+01  0.37131462771E+02  0.59495009970E+03  0.60910079962E+03  0.12509098337E+03 0.  0.
          5    1    4    4  502    0  0.27413568333E+02  0.53722761282E+02  0.13641114616E+03  0.14920828397E+03  0.41800000000E+01 0. -1.
         -5    1    4    4    0  502 -0.30828727664E+02 -0.16591298511E+02  0.45853895354E+03  0.45989251565E+03  0.41800000000E+01 0. -1.
        -11    1    3    3    0    0  0.26433459029E+02 -0.46669017844E+02  0.12373473486E+03  0.13485922139E+03  0.00000000000E+00 0. -1.
         11    1    3    3    0    0 -0.23018299698E+02  0.95375550731E+01  0.14792076285E+01  0.24959870451E+02  0.00000000000E+00 0.  1.
</event>
<event>
 8    1  0.5900800E-006  0.1620421E+03  0.7561462E-02  0.1186410E+00
          2   -1    0    0  501    0  0.00000000000E+00  0.00000000000E+00  0.36787871910E+03  0.36787871910E+03  0.00000000000E+00 0. -1.
         -2   -1    0    0    0  501 -0.00000000000E+00 -0.00000000000E+00 -0.12978055031E+03  0.12978055031E+03  0.00000000000E+00 0.  1.
         23    2    1    2    0    0 -0.19821233336E+02  0.14846351004E+03 -0.16616639438E+02  0.17674916738E+03  0.92357243135E+02 0.  0.
         23    2    1    2    0    0  0.19821233336E+02 -0.14846351004E+03  0.25471480823E+03  0.32091010203E+03  0.12517733400E+03 0.  0.
          5    1    4    4  502    0  0.42913112992E+02 -0.14355930560E+03  0.14480112062E+03  0.20841220315E+03  0.41800000000E+01 0.  1.
         -5    1    4    4    0  502 -0.23091879655E+02 -0.49042044426E+01  0.10991368761E+03  0.11249789887E+03  0.41800000000E+01 0.  1.
        -11    1    3    3    0    0 -0.20302525455E+02  0.11698630742E+03 -0.51795984141E+02  0.12954077596E+03  0.00000000000E+00 0.  1.
         11    1    3    3    0    0  0.48129211877E+00  0.31477202624E+02  0.35179344702E+02  0.47208391424E+02  0.00000000000E+00 0. -1.
</event>
<event>
 8    1  0.5900800E-006  0.8534081E+02  0.7561462E-02  0.1314544E+00
          3   -1    0    0  501    0  0.00000000000E+00  0.00000000000E+00  0.74755081346E+02  0.74755081346E+02  0.00000000000E+00 0. -1.
         -3   -1    0    0    0  501 -0.00000000000E+00 -0.00000000000E+00 -0.19028374066E+03  0.19028374066E+03  0.00000000000E+00 0.  1.
         23    2    1    2    0    0 -0.43683844116E+02 -0.25404145330E+02 -0.60294617391E+02  0.11925747879E+03  0.89628435919E+02 0.  0.
         23    2    1    2    0    0  0.43683844116E+02  0.25404145330E+02 -0.55234041921E+02  0.14578134321E+03  0.12509097411E+03 0.  0.
          5    1    4    4  502    0  0.60550075529E+02  0.30470675639E+02  0.18069479468E+02  0.70276256365E+02  0.41800000000E+01 0. -1.
         -5    1    4    4    0  502 -0.16866231413E+02 -0.50665303095E+01 -0.73303521389E+02  0.75505086845E+02  0.41800000000E+01 0. -1.
        -11    1    3    3    0    0 -0.36003116181E+02  0.18235338327E+02 -0.63051559363E+02  0.74861546048E+02  0.00000000000E+00 0.  1.
         11    1    3    3    0    0 -0.76807279350E+01 -0.43639483656E+02  0.27569419712E+01  0.44395932746E+02  0.00000000000E+00 0. -1.
</event>
<event>
 8    1  0.5900800E-006  0.9176531E+02  0.7561462E-02  0.1298632E+00
          1   -1    0    0  501    0  0.00000000000E+00  0.00000000000E+00  0.49722845368E+03  0.49722845368E+03  0.00000000000E+00 0.  1.
         -1   -1    0    0    0  501 -0.00000000000E+00 -0.00000000000E+00 -0.28151351986E+02  0.28151351986E+02  0.00000000000E+00 0. -1.
         23    2    1    2    0    0 -0.36605249769E+02  0.13239087605E+02  0.14940807514E+03  0.17991612614E+03  0.92367861180E+02 0.  0.
         23    2    1    2    0    0  0.36605249769E+02 -0.13239087605E+02  0.31966902656E+03  0.34546367953E+03  0.12506658058E+03 0.  0.
          5    1    4    4  502    0  0.20666816317E+02  0.49940251444E+02  0.21796504545E+03  0.22460494084E+03  0.41800000000E+01 0. -1.
         -5    1    4    4    0  502  0.15938433452E+02 -0.63179339050E+02  0.10170398111E+03  0.12085873869E+03  0.41800000000E+01 0. -1.
        -11    1    3    3    0    0 -0.19369413254E+02 -0.19213991705E+02  0.12957300873E+01  0.27313560066E+02  0.00000000000E+00 0. -1.
         11    1    3    3    0    0 -0.17235836515E+02  0.32453079310E+02  0.14811234505E+03  0.15260256608E+03  0.00000000000E+00 0.  1.
</event>
<event>
 8    1  0.5900800E-006  0.1308319E+03  0.7561462E-02  0.1226226E+00
          2   -1    0    0  501    0  0.00000000000E+00  0.00000000000E+00  0.41933776586E+03  0.41933776586E+03  0.00000000000E+00 0. -1.
         -2   -1    0    0    0  501 -0.00000000000E+00 -0.00000000000E+00 -0.50596005420E+02  0.50596005420E+02  0.00000000000E+00 0.  1.
         23    2    1    2    0    0  0.76266396351E+01  0.92487806605E+02  0.12310340310E+03  0.17907501366E+03  0.91111210390E+02 0.  0.
         23    2    1    2    0    0 -0.76266396351E+01 -0.92487806605E+02  0.24563835734E+03  0.29085875762E+03  0.12509378197E+03 0.  0.
          5    1    4    4  502    0  0.28579647005E+02 -0.10326187536E+03  0.22079319734E+03  0.24545247915E+03  0.41800000000E+01 0.  1.
         -5    1    4    4    0  502 -0.36206286640E+02  0.10774068759E+02  0.24845159998E+02  0.45406278478E+02  0.41800000000E+01 0.  1.
        -11    1    3    3    0    0 -0.21508463031E+02  0.83075809799E+02  0.48821871720E+02  0.98730842769E+02  0.00000000000E+00 0.  1.
         11    1    3    3    0    0  0.29135102666E+02  0.94119968053E+01  0.74281531384E+02  0.80344170890E+02  0.00000000000E+00 0. -1.
</event>
<event>
 8    1  0.5900800E-006  0.1196393E+03  0.7561462E-02  0.1243693E+00
         -2   -1    0    0    0  501 -0.00000000000E+00  0.00000000000E+00  0.16801950225E+02  0.16801950225E+02  0.00000000000E+00 0.  1.
          2   -1    0    0  501    0  0.00000000000E+00 -0.00000000000E+00 -0.10132294976E+04  0.10132294976E+04  0.00000000000E+00 0. -1.
         23    2    1    2    0    0 -0.56774221144E+02  0.45985754037E+02 -0.50634735542E+03  0.51898904392E+03  0.87315414444E+02 0.  0.
         23    2    1    2    0    0  0.56774221144E+02 -0.45985754037E+02 -0.49008019195E+03  0.51104240390E+03  0.12509093608E+03 0.  0.
          5    1    4    4  502    0  0.41693110656E+02  0.33892968786E+02 -0.11190446344E+03  0.12420599884E+03  0.41800000000E+01 0. -1.
         -5    1    4    4    0  502  0.15081110488E+02 -0.79878722824E+02 -0.37817572851E+03  0.38683640507E+03  0.41800000000E+01 0. -1.
        -11    1    3    3    0    0  0.16456883171E+02  0.20851415533E+02 -0.55349909214E+02  0.61393997943E+02  0.00000000000E+00 0.  1.
         11    1    3    3    0    0 -0.73231104315E+02  0.25134338504E+02 -0.45099744621E+03  0.45759504597E+03  0.00000000000E+00 0. -1.
</event>
<event>
 8    1  0.5900800E-006  0.2335469E+03  0.7561462E-02  0.1124168E+00
          1   -1    0    0  501    0  0.00000000000E+00  0.00000000000E+00  0.70418098766E+03  0.70418098766E+03  0.00000000000E+00 0. -1.
         -1   -1    0    0    0  501 -0.00000000000E+00 -0.00000000000E+00 -0.88702978208E+02  0.88702978208E+02  0.00000000000E+00 0.  1.
         23    2    1    2    0    0 -0.17954832265E+03  0.13488963990E+03  0.28902555694E+03  0.37737377286E+03  0.91882407216E+02 0.  0.
         23    2    1    2    0    0  0.17954832265E+03 -0.13488963990E+03  0.32645245251E+03  0.41551019301E+03  0.12507878168E+03 0.  0.
          5    1    4    4  502    0  0.61049181780E+02 -0.51381012318E+02  0.29753976228E+02  0.85263019675E+02  0.41800000000E+01 0. -1.
         -5    1    4    4    0  502  0.11849914087E+03 -0.83508627586E+02  0.29669847628E+03  0.33024717333E+03  0.41800000000E+01 0. -1.
        -11    1    3    3    0    0 -0.33550536261E+02  0.79006378303E+02  0.11395798034E+03  0.14266768232E+03  0.00000000000E+00 0. -1.
         11    1    3    3    0    0 -0.14599778639E+03  0.55883261601E+02  0.17506757660E+03  0.23470609053E+03  0.00000000000E+00 0.  1.
</event>
<event>
 8    1  0.5900800E-006  0.4493015E+03  0.7561462E-02  0.1027931E+00
         -1   -1    0    0    0  501 -0.00000000000E+00  0.00000000000E+00  0.17091993527E+03  0.17091993527E+03  0.00000000000E+00 0.  1.
          1   -1    0    0  501    0  0.00000000000E+00 -0.00000000000E+00 -0.12738340500E+04  0.12738340500E+04  0.00000000000E+00 0. -1.
         23    2    1    2    0    0 -0.21836093924E+03  0.39124834961E+03 -0.43977029694E+03  0.63471512368E+03  0.93319897660E+02 0.  0.
         23    2    1    2    0    0  0.21836093924E+03 -0.39124834961E+03 -0.66314381784E+03  0.81003886163E+03  0.12508582399E+03 0.  0.
          5    1    4    4  502    0  0.10853179300E+02 -0.86094274296E+01  0.25107906895E+01  0.14686395455E+02  0.41800000000E+01 0. -1.
         -5    1    4    4    0  502  0.20750775994E+03 -0.38263892218E+03 -0.66565460853E+03  0.79535246618E+03  0.41800000000E+01 0. -1.
        -11    1    3    3    0    0 -0.84697603583E+02  0.17852405157E+03 -0.25627751664E+03  0.32360884811E+03  0.00000000000E+00 0.  1.
         11    1    3    3    0    0 -0.13366333566E+03  0.21272429804E+03 -0.18349278030E+03  0.31110627556E+03  0.00000000000E+00 0. -1.
</event>
<event>
 8    1  0.5900800E-006  0.1163252E+03  0.7561462E-02  0.1249285E+00
         -2   -1    0    0    0  501 -0.00000000000E+00  0.00000000000E+00  0.49699992561E+02  0.49699992561E+02  0.00000000000E+00 0.  1.
          2   -1    0    0  501    0  0.00000000000E+00 -0.00000000000E+00 -0.30848143115E+03  0.30848143115E+03  0.00000000000E+00 0. -1.
         23    2    1    2    0    0  0.15528763548E+02  0.45373334786E+02 -0.55266318627E+02  0.11452380692E+03  0.88099116743E+02 0.  0.
         23    2    1    2    0    0 -0.15528763548E+02 -0.45373334786E+02 -0.20351511996E+03  0.24365761679E+03  0.12510295024E+03 0.  0.
          5    1    4    4  502    0  0.53386697447E+02 -0.65349927545E+01 -0.95869218221E+02  0.11000556803E+03  0.41800000000E+01 0.  1.
         -5    1    4    4    0  502 -0.68915460995E+02 -0.38838342031E+02 -0.10764590174E+03  0.13365204876E+03  0.41800000000E+01 0.  1.
        -11    1    3    3    0    0 -0.27338037475E+02 -0.10307306086E+02 -0.97510792345E+01  0.30800850605E+02  0.00000000000E+00 0.  1.
         11    1    3    3    0    0  0.42866801024E+02  0.55680640872E+02 -0.45515239392E+02  0.83722956319E+02  0.00000000000E+00 0. -1.
</event>
<event>
 8    1  0.5900800E-006  0.6901932E+02  0.7561462E-02  0.1363460E+00
          2   -1    0    0  501    0  0.00000000000E+00  0.00000000000E+00  0.10765002727E+04  0.10765002727E+04  0.00000000000E+00 0. -1.
         -2   -1    0    0    0  501 -0.00000000000E+00 -0.00000000000E+00 -0.12564355398E+02  0.12564355398E+02  0.00000000000E+00 0.  1.
         23    2    1    2    0    0  0.24442329373E+02 -0.13630158986E+02  0.31004673170E+03  0.32435508030E+03  0.91071584912E+02 0.  0.
         23    2    1    2    0    0 -0.24442329373E+02  0.13630158986E+02  0.75388918559E+03  0.76470954779E+03  0.12509428295E+03 0.  0.
          5    1    4    4  502    0 -0.11074881728E+01  0.18731448223E+02  0.12514911595E+02  0.22938811975E+02  0.41800000000E+01 0.  1.
         -5    1    4    4    0  502 -0.23334841201E+02 -0.51012892371E+01  0.74137427400E+03  0.74177073581E+03  0.41800000000E+01 0.  1.
        -11    1    3    3    0    0  0.42553859384E+02  0.26782164440E+02  0.14499710610E+03  0.15346750815E+03  0.00000000000E+00 0. -1.
         11    1    3    3    0    0 -0.18111530011E+02 -0.40412323425E+02  0.16504962560E+03  0.17088757214E+03  0.00000000000E+00 0.  1.
</event>
<event>
 8    1  0.5900800E-006  0.7507362E+02  0.7561462E-02  0.1343643E+00
         -4   -1    0    0    0  501 -0.00000000000E+00  0.00000000000E+00  0.93041089449E+02  0.93041089449E+02  0.00000000000E+00 0.  1.
          4   -1    0    0  501    0  0.00000000000E+00 -0.00000000000E+00 -0.16673544504E+03  0.16673544504E+03  0.00000000000E+00 0. -1.
         23    2    1    2    0    0  0.40309180324E+02  0.19726571639E+02  0.45625169051E+01  0.10553448573E+03  0.95408298755E+02 0.  0.
         23    2    1    2    0    0 -0.40309180324E+02 -0.19726571639E+02 -0.78256872495E+02  0.15424204876E+03  0.12510996709E+03 0.  0.
          5    1    4    4  502    0 -0.29478796665E+02 -0.15050239889E+01  0.30918221602E+02  0.42949660966E+02  0.41800000000E+01 0. -1.
         -5    1    4    4    0  502 -0.10830383659E+02 -0.18221547650E+02 -0.10917509410E+03  0.11129238779E+03  0.41800000000E+01 0. -1.
        -11    1    3    3    0    0 -0.21562069887E+02  0.29031771432E+02  0.19674048013E+02  0.41168371058E+02  0.00000000000E+00 0. -1.
         11    1    3    3    0    0  0.61871250211E+02 -0.93051997933E+01 -0.15111531108E+02  0.64366114675E+02  0.00000000000E+00 0.  1.
</event>
<event>
 8    1  0.5900800E-006  0.1754141E+03  0.7561462E-02  0.1172317E+00
          2   -1    0    0  501    0  0.00000000000E+00  0.00000000000E+00  0.16404321794E+04  0.16404321794E+04  0.00000000000E+00 0. -1.
         -2   -1    0    0    0  501 -0.00000000000E+00 -0.00000000000E+00 -0.20864683523E+02  0.20864683523E+02  0.00000000000E+00 0.  1.
         23    2    1    2    0    0 -0.13779278137E+03 -0.58304482677E+02  0.68557720997E+03  0.70716278293E+03  0.87617506453E+02 0.  0.
         23    2    1    2    0    0  0.13779278137E+03  0.58304482677E+02  0.93399028592E+03  0.95413408001E+03  0.12509086751E+03 0.  0.
          5    1    4    4  502    0  0.92574671479E+02  0.92692421527E+02  0.75518071343E+03  0.76647070208E+03  0.41800000000E+01 0.  1.
         -5    1    4    4    0  502  0.45218109890E+02 -0.34387938849E+02  0.17880957250E+03  0.18766337793E+03  0.41800000000E+01 0.  1.
        -11    1    3    3    0    0 -0.11796641603E+03 -0.19979722720E+02  0.59398709900E+03  0.60591743530E+03  0.00000000000E+00 0. -1.
         11    1    3    3    0    0 -0.19826365338E+02 -0.38324759958E+02  0.91590110976E+02  0.10124534763E+03  0.00000000000E+00 0.  1.
</event>
<event>
 8    1  0.5900800E-006  0.9697160E+02  0.7561462E-02  0.1286796E+00
         -1   -1    0    0    0  501 -0.00000000000E+00  0.00000000000E+00  0.23690264020E+02  0.23690264020E+02  0.00000000000E+00 0.  1.
          1   -1    0    0  501    0  0.00000000000E+00 -0.00000000000E+00 -0.59187990098E+03  0.59187990098E+03  0.00000000000E+00 0. -1.
         23    2    1    2    0    0 -0.19313753295E+02 -0.11950155217E+01 -0.13646299277E+03  0.16567098275E+03  0.91925388229E+02 0.  0.
         23    2    1    2    0    0  0.19313753295E+02  0.11950155217E+01 -0.43172664418E+03  0.44989918225E+03  0.12508768827E+03 0.  0.
          5    1    4    4  502    0 -0.38109298455E+02 -0.23999633418E+02 -0.74260208258E+02  0.86950284435E+02  0.41800000000E+01 0. -1.
         -5    1    4    4    0  502  0.57423051749E+02  0.25194648939E+02 -0.35746643593E+03  0.36294889781E+03  0.41800000000E+01 0. -1.
        -11    1    3    3    0    0 -0.45703340077E+02 -0.23429598353E+02 -0.46367594183E+02  0.69193172810E+02  0.00000000000E+00 0.  1.
         11    1    3    3    0    0  0.26389586782E+02  0.22234582831E+02 -0.90095398588E+02  0.96477809941E+02  0.00000000000E+00 0. -1.
</event>
<event>
 8    1  0.5900800E-006  0.1365385E+03  0.7561462E-02  0.1218064E+00
          1   -1    0    0  501    0  0.00000000000E+00  0.00000000000E+00  0.19653401214E+04  0.19653401214E+04  0.00000000000E+00 0. -1.
         -1   -1    0    0    0  501 -0.00000000000E+00 -0.00000000000E+00 -0.17007352878E+02  0.17007352878E+02  0.00000000000E+00 0.  1.
         23    2    1    2    0    0  0.89174124097E+02  0.62511890975E+02  0.38513843947E+03  0.41038005946E+03  0.90666502773E+02 0.  0.
         23    2    1    2    0    0 -0.89174124097E+02 -0.62511890975E+02  0.15631943290E+04  0.15719674148E+04  0.12508110145E+03 0.  0.
          5    1    4    4  502    0 -0.79242137857E+02 -0.90788365770E+01  0.42321684336E+03  0.43068748599E+03  0.41800000000E+01 0.  1.
         -5    1    4    4    0  502 -0.99319862400E+01 -0.53433054398E+02  0.11399774857E+04  0.11412799288E+04  0.41800000000E+01 0.  1.
        -11    1    3    3    0    0  0.26267969635E+02  0.70549112393E+02  0.16645442404E+03  0.18268623038E+03  0.00000000000E+00 0.  1.
         11    1    3    3    0    0  0.62906154462E+02 -0.80372214184E+01  0.21868401543E+03  0.22769382908E+03  0.00000000000E+00 0. -1.
</event>
<event>
 8    1  0.5900800E-006  0.5851016E+02  0.7561462E-02  0.1404192E+00
         -1   -1    0    0    0  501 -0.00000000000E+00  0.00000000000E+00  0.45936929544E+02  0.45936929544E+02  0.00000000000E+00 0.  1.
          1   -1    0    0  501    0  0.00000000000E+00 -0.00000000000E+00 -0.37234274102E+03  0.37234274102E+03  0.00000000000E+00 0. -1.
         23    2    1    2    0    0  0.49991307569E+02  0.39621140601E+01 -0.59767245934E+02  0.11951983363E+03  0.90543016098E+02 0.  0.
         23    2    1    2    0    0 -0.49991307569E+02 -0.39621140601E+01 -0.26663856555E+03  0.29875983694E+03  0.12508591588E+03 0.  0.
          5    1    4    4  502    0 -0.19173003617E+00 -0.13608157480E+02 -0.24163264621E+03  0.24205170280E+03  0.41800000000E+01 0.  1.
         -5    1    4    4    0  502 -0.49799577533E+02  0.96460434198E+01 -0.25005919331E+02  0.56708134140E+02  0.41800000000E+01 0.  1.
        -11    1    3    3    0    0  0.15157077343E+02  0.74292504710E+01 -0.78169522396E+02  0.79971276016E+02  0.00000000000E+00 0. -1.
         11    1    3    3    0    0  0.34834230225E+02 -0.34671364109E+01  0.18402276462E+02  0.39548557613E+02  0.00000000000E+00 0.  1.
</event>
<event>
 8    1  0.5900800E-006  0.1163806E+03  0.7561462E-02  0.1249190E+00
          2   -1    0    0  501    0  0.00000000000E+00  0.00000000000E+00  0.72459868326E+03  0.72459868326E+03  0.00000000000E+00 0. -1.
         -2   -1    0    0    0  501 -0.00000000000E+00 -0.00000000000E+00 -0.26142813825E+02  0.26142813825E+02  0.00000000000E+00 0.  1.
         23    2    1    2    0    0  0.66393129914E+02  0.56501763946E+01  0.18188764123E+03  0.21508288052E+03  0.93474912515E+02 0.  0.
         23    2    1    2    0    0 -0.66393129914E+02 -0.56501763946E+01  0.51656822821E+03  0.53565861656E+03  0.12508975542E+03 0.  0.
          5    1    4    4  502    0  0.33219417469E+02  0.20336876254E+01  0.64924379321E+02  0.73077445307E+02  0.41800000000E+01 0.  1.
         -5    1    4    4    0  502 -0.99612547383E+02 -0.76838640200E+01  0.45164384889E+03  0.46258117125E+03  0.41800000000E+01 0.  1.
        -11    1    3    3    0    0  0.82389378180E+02  0.89987836710E+01  0.92436732092E+02  0.12415126735E+03  0.00000000000E+00 0.  1.
         11    1    3    3    0    0 -0.15996248266E+02 -0.33486072764E+01  0.89450909138E+02  0.90931613176E+02  0.00000000000E+00 0. -1.
</event>
<event>
 8    1  0.5900800E-006  0.9842143E+02  0.7561462E-02  0.1283651E+00
          2   -1    0    0  501    0  0.00000000000E+00  0.00000000000E+00  0.99797964175E+03  0.99797964175E+03  0.00000000000E+00 0. -1.
         -2   -1    0    0    0  501 -0.00000000000E+00 -0.00000000000E+00 -0.15630390008E+02  0.15630390008E+02  0.00000000000E+00 0.  1.
         23    2    1    2    0    0 -0.30409539042E+02 -0.18872246038E+02  0.22850063882E+03  0.24857765438E+03  0.91090101443E+02 0.  0.
         23    2    1    2    0    0  0.30409539042E+02  0.18872246038E+02  0.75384861293E+03  0.76503237738E+03  0.12532320414E+03 0.  0.
          5    1    4    4  502    0 -0.28000968728E+02  0.28002813137E+02  0.88461387448E+02  0.97010830645E+02  0.41800000000E+01 0.  1.
         -5    1    4    4    0  502  0.58410507769E+02 -0.91305670990E+01  0.66538722548E+03  0.66802154674E+03  0.41800000000E+01 0.  1.
        -11    1    3    3    0    0  0.14923396017E+02  0.28509760811E+02  0.69671333509E+02  0.76743787522E+02  0.00000000000E+00 0.  1.
         11    1    3    3    0    0 -0.45332935059E+02 -0.47382006849E+02  0.15882930531E+03  0.17183386686E+03  0.00000000000E+00 0. -1.
</event>
<event>
 8    1  0.5900800E-006  0.1179119E+03  0.7561462E-02  0.1246582E+00
         -2   -1    0    0    0  501 -0.00000000000E+00  0.00000000000E+00  0.20980845916E+03  0.20980845916E+03  0.00000000000E+00 0.  1.
          2   -1    0    0  501    0  0.00000000000E+00 -0.00000000000E+00 -0.19124521421E+03  0.19124521421E+03  0.00000000000E+00 0. -1.
         23    2    1    2    0    0 -0.17680538797E+02 -0.70706778097E+02  0.16039166365E+03  0.19837776572E+03  0.91193213814E+02 0.  0.
         23    2    1    2    0    0  0.17680538797E+02  0.70706778097E+02 -0.14182841869E+03  0.20267590765E+03  0.12510065256E+03 0.  0.
          5    1    4    4  502    0 -0.14692355517E+02 -0.28738612080E+02 -0.93932832758E+01  0.33874463916E+02  0.41800000000E+01 0.  1.
         -5    1    4    4    0  502  0.32372894314E+02  0.99445390176E+02 -0.13243513542E+03  0.16880144373E+03  0.41800000000E+01 0.  1.
        -11    1    3    3    0    0 -0.35950824865E+02 -0.13240565215E+02  0.15298703661E+02  0.41253178173E+02  0.00000000000E+00 0. -1.
         11    1    3    3    0    0  0.18270286068E+02 -0.57466212882E+02  0.14509295998E+03  0.15712458755E+03  0.00000000000E+00 0.  1.
</event>
<event>
 8    1  0.5900800E-006  0.1516759E+03  0.7561462E-02  0.1198429E+00
          4   -1    0    0  501    0  0.00000000000E+00  0.00000000000E+00  0.16669369645E+03  0.16669369645E+03  0.00000000000E+00 0. -1.
         -4   -1    0    0    0  501 -0.00000000000E+00 -0.00000000000E+00 -0.19398006903E+03  0.19398006903E+03  0.00000000000E+00 0.  1.
         23    2    1    2    0    0  0.21279165304E+02 -0.13834718893E+03 -0.41920015357E+02  0.17238020664E+03  0.91459829392E+02 0.  0.
         23    2    1    2    0    0 -0.21279165304E+02  0.13834718893E+03  0.14633642774E+02  0.18829355884E+03  0.12509026037E+03 0.  0.
          5    1    4    4  502    0 -0.45727825124E+02  0.82898169398E+02 -0.43447003477E+02  0.10425092322E+03  0.41800000000E+01 0.  1.
         -5    1    4    4    0  502  0.24448659820E+02  0.55449019533E+02  0.58080646250E+02  0.84042635627E+02  0.41800000000E+01 0.  1.
        -11    1    3    3    0    0 -0.66036241874E+01 -0.10109573474E+03 -0.65070770568E+02  0.12040830792E+03  0.00000000000E+00 0.  1.
         11    1    3    3    0    0  0.27882789491E+02 -0.37251454193E+02  0.23150755211E+02  0.51971898716E+02  0.00000000000E+00 0. -1.
</event>
<event>
 7    1  0.5900800E-006  0.3344995E+03  0.7561462E-02  0.1069163E+00
          2   -1    0    0  501    0  0.00000000000E+00  0.00000000000E+00  0.58982863570E+03  0.58982863570E+03  0.00000000000E+00 0. -1.
         -2   -1    0    0    0  501 -0.00000000000E+00 -0.00000000000E+00 -0.38665503118E+03  0.38665503118E+03  0.00000000000E+00 0.  1.
         23    2    1    2    0    0  0.91241846925E+01 -0.27849864148E+03 -0.24602196946E+03  0.38286120380E+03  0.91712310343E+02 0.  0.
          5    1    1    2  502    0  0.30597503004E+02  0.32272475521E+03  0.40825270150E+03  0.52132064557E+03  0.41800000000E+01 0. -1.
         -5    1    1    2    0  502 -0.39721687697E+02 -0.44226113732E+02  0.40942872466E+02  0.72301817509E+02  0.41800000000E+01 0.  1.
        -11    1    3    3    0    0  0.32759912201E+02 -0.10194906892E+03 -0.50585913753E+02  0.11843039800E+03  0.00000000000E+00 0. -1.
         11    1    3    3    0    0 -0.23635727508E+02 -0.17654957256E+03 -0.19543605571E+03  0.26443080580E+03  0.00000000000E+00 0.  1.
</event>
<event>
 8    1  0.5900800E-006  0.1170796E+03  0.7561462E-02  0.1247994E+00
          1   -1    0    0  501    0  0.00000000000E+00  0.00000000000E+00  0.11111360270E+03  0.11111360270E+03  0.00000000000E+00 0. -1.
         -1   -1    0    0    0  501 -0.00000000000E+00 -0.00000000000E+00 -0.17458017443E+03  0.17458017443E+03  0.00000000000E+00 0.  1.
         23    2    1    2    0    0  0.35142904847E+01 -0.86565694657E+02 -0.39989940408E+02  0.13173036810E+03  0.90816985282E+02 0.  0.
         23    2    1    2    0    0 -0.35142904847E+01  0.86565694657E+02 -0.23476631322E+02  0.15396340904E+03  0.12509040481E+03 0.  0.
          5    1    4    4  502    0  0.53427114942E+02  0.59771424475E+02 -0.38645597353E+02  0.89095647422E+02  0.41800000000E+01 0.  1.
         -5    1    4    4    0  502 -0.56941405427E+02  0.26794270182E+02  0.15168966031E+02  0.64867761616E+02  0.41800000000E+01 0.  1.
        -11    1    3    3    0    0 -0.11865672541E+02 -0.43192079355E+02  0.25611114345E+02  0.51597277853E+02  0.00000000000E+00 0. -1.
         11    1    3    3    0    0  0.15379963025E+02 -0.43373615302E+02 -0.65601054753E+02  0.80133090242E+02  0.00000000000E+00 0.  1.
</event>
<event>
 8    1  0.5900800E-006  0.1106157E+03  0.7561462E-02  0.1259434E+00
          1   -1    0    0  501    0  0.00000000000E+00  0.00000000000E+00  0.25017024436E+03  0.25017024436E+03  0.00000000000E+00 0. -1.
         -1   -1    0    0    0  501 -0.00000000000E+00 -0.00000000000E+00 -0.57396779007E+02  0.57396779007E+02  0.00000000000E+00 0.  1.
         23    2    1    2    0    0  0.12126504769E+02  0.45678532540E+02  0.42024607879E+02  0.11202514220E+03  0.92466125494E+02 0.  0.
         23    2    1    2    0    0 -0.12126504769E+02 -0.45678532540E+02  0.15074885748E+03  0.19554188118E+03  0.11522946155E+03 0.  0.
          5    1    4    4  502    0  0.38473231256E+02 -0.56374501309E+02  0.11019687158E+03  0.12968846066E+03  0.41800000000E+01 0. -1.
         -5    1    4    4    0  502 -0.50599736025E+02  0.10695968770E+02  0.40551985898E+02  0.65853420519E+02  0.41800000000E+01 0.  1.
        -11    1    3    3    0    0 -0.81337445266E+01 -0.25601232114E+02  0.55277802060E-01  0.26862314521E+02  0.00000000000E+00 0. -1.
         11    1    3    3    0    0  0.20260249296E+02  0.71279764654E+02  0.41969330076E+02  0.85162827676E+02  0.00000000000E+00 0.  1.
</event>
<event>
 8    1  0.5900800E-006  0.1747697E+03  0.7561462E-02  0.1172963E+00
         -1   -1    0    0    0  501 -0.00000000000E+00  0.00000000000E+00  0.79531938594E+02  0.79531938594E+02  0.00000000000E+00 0.  1.
          1   -1    0    0  501    0  0.00000000000E+00 -0.00000000000E+00 -0.52101959221E+03  0.52101959221E+03  0.00000000000E+00 0. -1.
         23    2    1    2    0    0  0.14672106121E+03  0.83400586982E+02 -0.26041463451E+03  0.32321061191E+03  0.90369187609E+02 0.  0.
         23    2    1    2    0    0 -0.14672106121E+03 -0.83400586982E+02 -0.18107301910E+03  0.27734091889E+03  0.12509124404E+03 0.  0.
          5    1    4    4  502    0 -0.32958240143E+02 -0.46582456602E+02  0.35650614099E+01  0.57326720814E+02  0.41800000000E+01 0. -1.
         -5    1    4    4    0  502 -0.11376282107E+03 -0.36818130380E+02 -0.18463808051E+03  0.22001419808E+03  0.41800000000E+01 0. -1.
        -11    1    3    3    0    0  0.11254372001E+03  0.80515350085E+02 -0.25261928978E+03  0.28803700471E+03  0.00000000000E+00 0. -1.
         11    1    3    3    0    0  0.34177341202E+02  0.28852368970E+01 -0.77953447277E+01  0.35173607194E+02  0.00000000000E+00 0.  1.
</event>
<event>
 8    1  0.5900800E-006  0.2167515E+03  0.7561462E-02  0.1136328E+00
          1   -1    0    0  501    0  0.00000000000E+00  0.00000000000E+00  0.48621169640E+03  0.48621169640E+03  0.00000000000E+00 0. -1.
         -1   -1    0    0    0  501 -0.00000000000E+00 -0.00000000000E+00 -0.11129050187E+03  0.11129050187E+03  0.00000000000E+00 0.  1.
         23    2    1    2    0    0 -0.15929355164E+03  0.12437030259E+03  0.22658950223E+03  0.31733852081E+03  0.92295863978E+02 0.  0.
         23    2    1    2    0    0  0.15929355164E+03 -0.12437030259E+03  0.14833169230E+03  0.28016367747E+03  0.12508791898E+03 0.  0.
          5    1    4    4  502    0  0.47237016925E+02 -0.45017224401E+01 -0.13652399750E+02  0.49552615389E+02  0.41800000000E+01 0. -1.
         -5    1    4    4    0  502  0.11205653471E+03 -0.11986858015E+03  0.16198409205E+03  0.23061106208E+03  0.41800000000E+01 0. -1.
        -11    1    3    3    0    0 -0.54647967500E+02 -0.55202153867E+01  0.47667974118E+02  0.72726259950E+02  0.00000000000E+00 0.  1.
         11    1    3    3    0    0 -0.10464558414E+03  0.12989051797E+03  0.17892152812E+03  0.24461226086E+03  0.00000000000E+00 0. -1.
</event>
<event>
 8    1  0.5900800E-006  0.1114204E+03  0.7561462E-02  0.1257962E+00
         -2   -1    0    0    0  501 -0.00000000000E+00  0.00000000000E+00  0.97131231420E+02  0.97131231420E+02  0.00000000000E+00 0.  1.
          2   -1    0    0  501    0  0.00000000000E+00 -0.00000000000E+00 -0.17461373003E+03  0.17461373003E+03  0.00000000000E+00 0. -1.
         23    2    1    2    0    0 -0.26031571124E+02 -0.15164852786E+02  0.33223230375E+02  0.10201070105E+03  0.91623057349E+02 0.  0.
         23    2    1    2    0    0  0.26031571124E+02  0.15164852786E+02 -0.11070572899E+03  0.16973426039E+03  0.12508535193E+03 0.  0.
          5    1    4    4  502    0 -0.16630592505E+02  0.61568433337E+02 -0.68915046720E+02  0.93989385864E+02  0.41800000000E+01 0.  1.
         -5    1    4    4    0  502  0.42662163629E+02 -0.46403580551E+02 -0.41790682265E+02  0.75744874531E+02  0.41800000000E+01 0.  1.
        -11    1    3    3    0    0 -0.47678854807E+02 -0.40410435786E+02  0.15796269772E+02  0.64465484213E+02  0.00000000000E+00 0. -1.
         11    1    3    3    0    0  0.21647283682E+02  0.25245583000E+02  0.17426960604E+02  0.37545216842E+02  0.00000000000E+00 0.  1.
</event>
<event>
 8    1  0.5900800E-006  0.1082123E+03  0.7561462E-02  0.1263917E+00
          3   -1    0    0  501    0  0.00000000000E+00  0.00000000000E+00  0.10339949565E+03  0.10339949565E+03  0.00000000000E+00 0. -1.
         -3   -1    0    0    0  501 -0.00000000000E+00 -0.00000000000E+00 -0.12591734834E+03  0.12591734834E+03  0.00000000000E+00 0.  1.
         23    2    1    2    0    0  0.19863052501E+02 -0.19360342137E+02  0.13843745972E+01  0.98969156000E+02  0.94992703109E+02 0.  0.
         23    2    1    2    0    0 -0.19863052501E+02  0.19360342137E+02 -0.23902227287E+02  0.13034768799E+03  0.12509931891E+03 0.  0.
          5    1    4    4  502    0 -0.61573698711E+02  0.47258490641E+02 -0.16313779705E+02  0.79424789071E+02  0.41800000000E+01 0. -1.
         -5    1    4    4    0  502  0.41710646210E+02 -0.27898148504E+02 -0.75884475813E+01  0.50922898915E+02  0.41800000000E+01 0. -1.
        -11    1    3    3    0    0 -0.40991389886E+01 -0.49592842576E+02 -0.21397424078E+02  0.54167358551E+02  0.00000000000E+00 0.  1.
         11    1    3    3    0    0  0.23962191490E+02  0.30232500439E+02  0.22781798676E+02  0.44801797449E+02  0.00000000000E+00 0. -1.
</event>
<event>
 8    1  0.5900800E-006  0.1346429E+03  0.7561462E-02  0.1220725E+00
         -2   -1    0    0    0  501 -0.00000000000E+00  0.00000000000E+00  0.13663161900E+03  0.13663161900E+03  0.00000000000E+00 0.  1.
          2   -1    0    0  501    0  0.00000000000E+00 -0.00000000000E+00 -0.19112541607E+03  0.19112541607E+03  0.00000000000E+00 0. -1.
         23    2    1    2    0    0  0.90679280329E+02 -0.70984628190E+02  0.13546140227E+01  0.14879665466E+03  0.94218151855E+02 0.  0.
         23    2    1    2    0    0 -0.90679280329E+02  0.70984628190E+02 -0.55848411101E+02  0.17896038041E+03  0.12508486484E+03 0.  0.
          5    1    4    4  502    0 -0.13139859281E+01  0.23984528268E+02  0.35278638379E+02  0.42884016616E+02  0.41800000000E+01 0.  1.
         -5    1    4    4    0  502 -0.89365294401E+02  0.47000099923E+02 -0.91127049480E+02  0.13607636379E+03  0.41800000000E+01 0.  1.
        -11    1    3    3    0    0  0.39493190473E+02 -0.82424800960E+02 -0.17506759986E+02  0.93059371114E+02  0.00000000000E+00 0. -1.
         11    1    3    3    0    0  0.51186089856E+02  0.11440172769E+02  0.18861374009E+02  0.55737283547E+02  0.00000000000E+00 0.  1.
</event>
<event>
 8    1  0.5900800E-006  0.1290174E+03  0.7561462E-02  0.1228921E+00
         -1   -1    0    0    0  501 -0.00000000000E+00  0.00000000000E+00  0.28033282693E+02  0.28033282693E+02  0.00000000000E+00 0.  1.
          1   -1    0    0  501    0  0.00000000000E+00 -0.00000000000E+00 -0.13984216949E+04  0.13984216949E+04  0.00000000000E+00 0. -1.
         23    2    1    2    0    0 -0.42518848306E+02  0.73381781845E+02 -0.14610691615E+03  0.19288069556E+03  0.93075202960E+02 0.  0.
         23    2    1    2    0    0  0.42518848306E+02 -0.73381781845E+02 -0.12242814961E+04  0.12335742821E+04  0.12509032470E+03 0.  0.
          5    1    4    4  502    0 -0.72500184069E+01 -0.81160084142E+02 -0.10150507507E+04  0.10183246147E+04  0.41800000000E+01 0.  1.
         -5    1    4    4    0  502  0.49768866713E+02  0.77783022975E+01 -0.20923074545E+03  0.21524966741E+03  0.41800000000E+01 0.  1.
        -11    1    3    3    0    0 -0.47739700549E+02 -0.43994035550E+01 -0.57368248631E+02  0.74763291201E+02  0.00000000000E+00 0.  1.
         11    1    3    3    0    0  0.52208522424E+01  0.77781185400E+02 -0.88738667519E+02  0.11811740436E+03  0.00000000000E+00 0. -1.
</event>
<event>
 8    1  0.5900800E-006  0.9091516E+02  0.7561462E-02  0.1300651E+00
         -2   -1    0    0    0  501 -0.00000000000E+00  0.00000000000E+00  0.17216101502E+02  0.17216101502E+02  0.00000000000E+00 0.  1.
          2   -1    0    0  501    0  0.00000000000E+00 -0.00000000000E+00 -0.74520151888E+03  0.74520151888E+03  0.00000000000E+00 0. -1.
         23    2    1    2    0    0  0.24572311390E+00  0.41048653993E+01 -0.22249205153E+03  0.24166039530E+03  0.94234406462E+02 0.  0.
         23    2    1    2    0    0 -0.24572311390E+00 -0.41048653993E+01 -0.50549336585E+03  0.52075722509E+03  0.12509050429E+03 0.  0.
          5    1    4    4  502    0  0.25772373373E+02  0.46178717977E+02 -0.12130815600E+03  0.13240026562E+03  0.41800000000E+01 0.  1.
         -5    1    4    4    0  502 -0.26018096487E+02 -0.50283583376E+02 -0.38418520985E+03  0.38835695947E+03  0.41800000000E+01 0.  1.
        -11    1    3    3    0    0  0.19421319566E+02 -0.28320729401E+02 -0.18623867256E+03  0.18937817859E+03  0.00000000000E+00 0. -1.
         11    1    3    3    0    0 -0.19175596452E+02  0.32425594800E+02 -0.36253378968E+02  0.52282216710E+02  0.00000000000E+00 0.  1.
</event>
<event>
 8    1  0.5900800E-006  0.1269878E+03  0.7561462E-02  0.1231995E+00
          1   -1    0    0  501    0  0.00000000000E+00  0.00000000000E+00  0.27939532281E+04  0.27939532281E+04  0.00000000000E+00 0. -1.
         -1   -1    0    0    0  501 -0.00000000000E+00 -0.00000000000E+00 -0.12252946654E+02  0.12252946654E+02  0.00000000000E+00 0.  1.
         23    2    1    2    0    0  0.69768754476E+02 -0.63894483367E+02  0.45058979757E+03  0.46982562924E+03  0.93566939166E+02 0.  0.
         23    2    1    2    0    0 -0.69768754476E+02  0.63894483367E+02  0.23311104839E+04  0.23363805456E+04  0.12509109218E+03 0.  0.
          5    1    4    4  502    0 -0.61046101115E+02  0.86508979395E+02  0.22223000743E+04  0.22248248296E+04  0.41800000000E+01 0. -1.
         -5    1    4    4    0  502 -0.87226533606E+01 -0.22614496029E+02  0.10881040963E+03  0.11155571593E+03  0.41800000000E+01 0. -1.
        -11    1    3    3    0    0  0.11665194165E+02 -0.64262654538E+02  0.14894758369E+03  0.16263808966E+03  0.00000000000E+00 0.  1.
         11    1    3    3    0    0  0.58103560311E+02  0.36817117179E+00  0.30164221389E+03  0.30718753957E+03  0.00000000000E+00 0. -1.
</event>
<event>
 8    1  0.5900800E-006  0.3269011E+03  0.7561462E-02  0.1072516E+00
          1   -1    0    0  501    0  0.00000000000E+00  0.00000000000E+00  0.16130927589E+04  0.16130927589E+04  0.00000000000E+00 0. -1.
         -1   -1    0    0    0  501 -0.00000000000E+00 -0.00000000000E+00 -0.73079343442E+02  0.73079343442E+02  0.00000000000E+00 0.  1.
         23    2    1    2    0    0  0.14569632152E+03 -0.27938686519E+03  0.55871325273E+03  0.64796108530E+03  0.91698586388E+02 0.  0.
         23    2    1    2    0    0 -0.14569632152E+03  0.27938686519E+03  0.98130016277E+03  0.10382110171E+04  0.12509063911E+03 0.  0.
          5    1    4    4  502    0 -0.15791283262E+03  0.28368245728E+03  0.95328296135E+03  0.10070640874E+04  0.41800000000E+01 0. -1.
         -5    1    4    4    0  502  0.12216511105E+02 -0.42955920862E+01  0.28017201422E+02  0.31146929712E+02  0.41800000000E+01 0. -1.
        -11    1    3    3    0    0  0.83464450786E+02 -0.14287774631E+03  0.20293798350E+03  0.26184764670E+03  0.00000000000E+00 0.  1.
         11    1    3    3    0    0  0.62231870731E+02 -0.13650911888E+03  0.35577526923E+03  0.38611343860E+03  0.00000000000E+00 0. -1.
</event>
<event>
 8    1  0.5900800E-006  0.1005247E+03  0.7561462E-02  0.1279196E+00
         -1   -1    0    0    0  501 -0.00000000000E+00  0.00000000000E+00  0.29721298269E+02  0.29721298269E+02  0.00000000000E+00 0.  1.
          1   -1    0    0  501    0  0.00000000000E+00 -0.00000000000E+00 -0.58529140070E+03  0.58529140070E+03  0.00000000000E+00 0. -1.
         23    2    1    2    0    0  0.29154613860E+02 -0.53295530548E+02 -0.14500834671E+03  0.18153966064E+03  0.90767960677E+02 0.  0.
         23    2    1    2    0    0 -0.29154613860E+02  0.53295530548E+02 -0.41056175572E+03  0.43347303833E+03  0.12509002602E+03 0.  0.
          5    1    4    4  502    0 -0.47399310806E+02 -0.10634486186E+02 -0.63410671790E+02  0.79988578299E+02  0.41800000000E+01 0. -1.
         -5    1    4    4    0  502  0.18244696947E+02  0.63930016734E+02 -0.34715108393E+03  0.35348446003E+03  0.41800000000E+01 0. -1.
        -11    1    3    3    0    0 -0.18198328886E+02 -0.23534862979E+02 -0.42183636996E+01  0.30047687798E+02  0.00000000000E+00 0.  1.
         11    1    3    3    0    0  0.47352942746E+02 -0.29760667569E+02 -0.14078998301E+03  0.15149197284E+03  0.00000000000E+00 0. -1.
</event>
<event>
 8    1  0.5900800E-006  0.1316953E+03  0.7561462E-02  0.1224962E+00
         -2   -1    0    0    0  501 -0.00000000000E+00  0.00000000000E+00  0.30833095546E+02  0.30833095546E+02  0.00000000000E+00 0.  1.
          2   -1    0    0  501    0  0.00000000000E+00 -0.00000000000E+00 -0.88076162190E+03  0.88076162190E+03  0.00000000000E+00 0. -1.
         23    2    1    2    0    0  0.72026747063E+02  0.59281430402E+02 -0.17264503965E+03  0.21656775855E+03  0.91614103950E+02 0.  0.
         23    2    1    2    0    0 -0.72026747063E+02 -0.59281430402E+02 -0.67728348670E+03  0.69502695889E+03  0.12508961569E+03 0.  0.
          5    1    4    4  502    0 -0.91693937988E+02 -0.82943248518E+02 -0.57382391221E+03  0.58700827538E+03  0.41800000000E+01 0. -1.
         -5    1    4    4    0  502  0.19667190925E+02  0.23661818116E+02 -0.10345957449E+03  0.10801868351E+03  0.41800000000E+01 0. -1.
        -11    1    3    3    0    0  0.49533237434E+02  0.48972677010E+01 -0.21222153037E+02  0.54110115700E+02  0.00000000000E+00 0.  1.
         11    1    3    3    0    0  0.22493509629E+02  0.54384162701E+02 -0.15142288662E+03  0.16245764285E+03  0.00000000000E+00 0. -1.
</event>
<event>
 8    1  0.5900800E-006  0.3026734E+03  0.7561462E-02  0.1083912E+00
         -2   -1    0    0    0  501 -0.00000000000E+00  0.00000000000E+00  0.74462769112E+02  0.74462769112E+02  0.00000000000E+00 0. -1.
          2   -1    0    0  501    0  0.00000000000E+00 -0.00000000000E+00 -0.17248347079E+04  0.17248347079E+04  0.00000000000E+00 0.  1.
         23    2    1    2    0    0  0.24066866220E+03  0.16311334058E+03 -0.36622591833E+03  0.47672202521E+03  0.92817558794E+02 0.  0.
         23    2    1    2    0    0 -0.24066866220E+03 -0.16311334058E+03 -0.12841460205E+04  0.13225754518E+04  0.12508979580E+03 0.  0.
          5    1    4    4  502    0 -0.20933838807E+03 -0.18207196167E+03 -0.11771184732E+04  0.12093792343E+04  0.41800000000E+01 0.  1.
         -5    1    4    4    0  502 -0.31330274127E+02  0.18958621090E+02 -0.10702754726E+03  0.11319621753E+03  0.41800000000E+01 0.  1.
        -11    1    3    3    0    0  0.98053494531E+01  0.99387868290E+01 -0.68977176621E+02  0.70375956521E+02  0.00000000000E+00 0.  1.
         11    1    3    3    0    0  0.23086331275E+03  0.15317455376E+03 -0.29724874171E+03  0.40634606869E+03  0.00000000000E+00 0. -1.
</event>
<event>
 8    1  0.5900800E-006  0.1516107E+03  0.7561462E-02  0.1198508E+00
         -3   -1    0    0    0  501 -0.00000000000E+00  0.00000000000E+00  0.85051647314E+02  0.85051647314E+02  0.00000000000E+00 0.  1.
          3   -1    0    0  501    0  0.00000000000E+00 -0.00000000000E+00 -0.62338456074E+03  0.62338456074E+03  0.00000000000E+00 0. -1.
         23    2    1    2    0    0 -0.10382726886E+03  0.43062581665E+02 -0.31921935966E+01  0.14749283999E+03  0.95443491401E+02 0.  0.
         23    2    1    2    0    0  0.10382726886E+03 -0.43062581665E+02 -0.53514071983E+03  0.56094336806E+03  0.12508950576E+03 0.  0.
          5    1    4    4  502    0  0.10066420671E+03 -0.79278977008E+02 -0.36350869870E+03  0.38545360958E+03  0.41800000000E+01 0. -1.
         -5    1    4    4    0  502  0.31630621520E+01  0.36216395343E+02 -0.17163202113E+03  0.17548975848E+03  0.41800000000E+01 0. -1.
        -11    1    3    3    0    0 -0.98258876187E+02  0.63666360654E+02  0.16760753061E+02  0.11827567405E+03  0.00000000000E+00 0.  1.
         11    1    3    3    0    0 -0.55683926746E+01 -0.20603778989E+02 -0.19952946658E+02  0.29217165946E+02  0.00000000000E+00 0. -1.
</event>
<event>
 8    1  0.5900800E-006  0.1063867E+03  0.7561462E-02  0.1267411E+00
         -1   -1    0    0    0  501 -0.00000000000E+00  0.00000000000E+00  0.39896376331E+03  0.39896376331E+03  0.00000000000E+00 0.  1.
          1   -1    0    0  501    0  0.00000000000E+00 -0.00000000000E+00 -0.50737567590E+02  0.50737567590E+02  0.00000000000E+00 0. -1.
         23    2    1    2    0    0  0.20389469703E+01 -0.77745808962E+02  0.23270266832E+03  0.26250368222E+03  0.93322469002E+02 0.  0.
         23    2    1    2    0    0 -0.20389469703E+01  0.77745808962E+02  0.11552352740E+03  0.18719764868E+03  0.12509478875E+03 0.  0.
          5    1    4    4  502    0  0.26362711956E+02  0.27122269373E+02  0.12278770545E+03  0.12854922438E+03  0.41800000000E+01 0.  1.
         -5    1    4    4    0  502 -0.28401658927E+02  0.50623539589E+02 -0.72641780522E+01  0.58648424302E+02  0.41800000000E+01 0.  1.
        -11    1    3    3    0    0  0.44081724657E+02 -0.32558864967E+02  0.72940744911E+02  0.91233932311E+02  0.00000000000E+00 0. -1.
         11    1    3    3    0    0 -0.42042777687E+02 -0.45186943995E+02  0.15976192340E+03  0.17126974991E+03  0.00000000000E+00 0.  1.
</event>
<event>
 8    1  0.5900800E-006  0.1328021E+03  0.7561462E-02  0.1223356E+00
          4   -1    0    0  501    0  0.00000000000E+00  0.00000000000E+00  0.16215454353E+03  0.16215454353E+03  0.00000000000E+00 0. -1.
         -4   -1    0    0    0  501 -0.00000000000E+00 -0.00000000000E+00 -0.18436344594E+03  0.18436344594E+03  0.00000000000E+00 0.  1.
         23    2    1    2    0    0 -0.12050545201E+03  0.23211597639E+02 -0.35443821058E+02  0.17083530022E+03  0.11343761776E+03 0.  0.
         23    2    1    2    0    0  0.12050545201E+03 -0.23211597639E+02  0.13234918653E+02  0.17568268925E+03  0.12501560703E+03 0.  0.
          5    1    4    4  502    0  0.60653626017E+02 -0.20609376411E+02  0.68635085553E+02  0.93977955468E+02  0.41800000000E+01 0.  1.
         -5    1    4    4    0  502  0.59851825992E+02 -0.26022212279E+01 -0.55400166900E+02  0.81704733783E+02  0.41800000000E+01 0.  1.
        -11    1    3    3    0    0 -0.11711828558E+03 -0.78412333815E+00 -0.63932217018E+02  0.13343401380E+03  0.00000000000E+00 0.  1.
         11    1    3    3    0    0 -0.33871664297E+01  0.23995720977E+02  0.28488395960E+02  0.37401286421E+02  0.00000000000E+00 0. -1.
</event>
<event>
 7    1  0.5900800E-006  0.1923793E+03  0.7561462E-02  0.1156333E+00
         -1   -1    0    0    0  501 -0.00000000000E+00  0.00000000000E+00  0.64156261300E+02  0.64156261300E+02  0.00000000000E+00 0.  1.
          1   -1    0    0  501    0  0.00000000000E+00 -0.00000000000E+00 -0.17040560324E+04  0.17040560324E+04  0.00000000000E+00 0. -1.
         23    2    1    2    0    0 -0.80485324785E+02 -0.10251264609E+03 -0.58593897939E+02  0.16940683769E+03  0.90987370913E+02 0.  0.
          5    1    1    2  502    0  0.12885376749E+03  0.11809146385E+03 -0.13847921144E+04  0.13957849260E+04  0.41800000000E+01 0. -1.
         -5    1    1    2    0  502 -0.48368442700E+02 -0.15578817764E+02 -0.19651375878E+03  0.20302053000E+03  0.41800000000E+01 0.  1.
        -11    1    3    3    0    0 -0.60317920931E+02 -0.63119825364E+01 -0.23365319249E+02  0.64992544592E+02  0.00000000000E+00 0.  1.
         11    1    3    3    0    0 -0.20167403855E+02 -0.96200663552E+02 -0.35228578690E+02  0.10441429310E+03  0.00000000000E+00 0. -1.
</event>
<event>
 8    1  0.5900800E-006  0.1134484E+03  0.7561462E-02  0.1254314E+00
          2   -1    0    0  501    0  0.00000000000E+00  0.00000000000E+00  0.24291096816E+03  0.24291096816E+03  0.00000000000E+00 0. -1.
         -2   -1    0    0    0  501 -0.00000000000E+00 -0.00000000000E+00 -0.60816472191E+02  0.60816472191E+02  0.00000000000E+00 0.  1.
         23    2    1    2    0    0  0.10802535158E+02 -0.53395853076E+02  0.98984306373E+02  0.14396995845E+03  0.89228045676E+02 0.  0.
         23    2    1    2    0    0 -0.10802535158E+02  0.53395853076E+02  0.83110189597E+02  0.15975748191E+03  0.12508931816E+03 0.  0.
          5    1    4    4  502    0 -0.31299649842E+02 -0.26906498381E+02  0.61191748166E+02  0.73929224120E+02  0.41800000000E+01 0.  1.
         -5    1    4    4    0  502  0.20497114685E+02  0.80302351457E+02  0.21918441431E+02  0.85828257787E+02  0.41800000000E+01 0.  1.
        -11    1    3    3    0    0 -0.37816985589E+02 -0.30997330715E+02  0.32948267314E+02  0.58962252581E+02  0.00000000000E+00 0.  1.
         11    1    3    3    0    0  0.48619520747E+02 -0.22398522361E+02  0.66036039060E+02  0.85007705864E+02  0.00000000000E+00 0. -1.
</event>
<event>
 8    1  0.5900800E-006  0.9324631E+02  0.7561462E-02  0.1295175E+00
          2   -1    0    0  501    0  0.00000000000E+00  0.00000000000E+00  0.22322797333E+03  0.22322797333E+03  0.00000000000E+00 0.  1.
         -2   -1    0    0    0  501 -0.00000000000E+00 -0.00000000000E+00 -0.81368906639E+02  0.81368906639E+02  0.00000000000E+00 0. -1.
         23    2    1    2    0    0 -0.66100431927E+02  0.43466359604E+02  0.47313079401E+02  0.12896596999E+03  0.90194802587E+02 0.  0.
         23    2    1    2    0    0  0.66100431927E+02 -0.43466359604E+02  0.94545987289E+02  0.17563090998E+03  0.12509468938E+03 0.  0.
          5    1    4    4  502    0  0.43110408049E+02 -0.62101898522E+02  0.11622278981E+03  0.13870963324E+03  0.41800000000E+01 0.  1.
         -5    1    4    4    0  502  0.22990023878E+02  0.18635538917E+02 -0.21676802523E+02  0.36921276742E+02  0.41800000000E+01 0.  1.
        -11    1    3    3    0    0 -0.57926072617E+02  0.30246351757E+02  0.73602413589E+02  0.98425540230E+02  0.00000000000E+00 0.  1.
         11    1    3    3    0    0 -0.81743593095E+01  0.13220007847E+02 -0.26289334188E+02  0.30540429756E+02  0.00000000000E+00 0. -1.
</event>
<event>
 8    1  0.5900800E-006  0.8197724E+02  0.7561462E-02  0.1323532E+00
          1   -1    0    0  501    0  0.00000000000E+00  0.00000000000E+00  0.41786016338E+03  0.41786016338E+03  0.00000000000E+00 0. -1.
         -1   -1    0    0    0  501 -0.00000000000E+00 -0.00000000000E+00 -0.37558540420E+02  0.37558540420E+02  0.00000000000E+00 0.  1.
         23    2    1    2    0    0  0.17751840534E+02  0.26098567515E+02  0.71711047237E+02  0.12094607256E+03  0.92136936693E+02 0.  0.
         23    2    1    2    0    0 -0.17751840534E+02 -0.26098567515E+02  0.30859057572E+03  0.33447263124E+03  0.12509010575E+03 0.  0.
          5    1    4    4  502    0  0.62022824815E+00  0.19900179403E+02  0.27197436975E+03  0.27273417832E+03  0.41800000000E+01 0. -1.
         -5    1    4    4    0  502 -0.18372068783E+02 -0.45998746918E+02  0.36616205977E+02  0.61738452925E+02  0.41800000000E+01 0. -1.
        -11    1    3    3    0    0 -0.20069385839E+02  0.46703274468E+02  0.54605538965E+02  0.74603893864E+02  0.00000000000E+00 0. -1.
         11    1    3    3    0    0  0.37821226373E+02 -0.20604706954E+02  0.17105508272E+02  0.46342178696E+02  0.00000000000E+00 0.  1.
</event>
<event>
 8    1  0.7449173E-006  0.5081180E+03  0.7561462E-02  0.1011681E+00
         -2   -1    0    0    0  501 -0.00000000000E+00  0.00000000000E+00  0.42338626897E+03  0.42338626897E+03  0.00000000000E+00 0.  1.
          2   -1    0    0  501    0  0.00000000000E+00 -0.00000000000E+00 -0.93089172755E+03  0.93089172755E+03  0.00000000000E+00 0. -1.
         23    2    1    2    0    0 -0.48455439123E+03 -0.11446493514E+03  0.14211121020E+03  0.52630150745E+03  0.94353066942E+02 0.  0.
         23    2    1    2    0    0  0.48455439123E+03  0.11446493514E+03 -0.64961666878E+03  0.82797648907E+03  0.12509224862E+03 0.  0.
          5    1    4    4  502    0  0.81618175589E+00 -0.10917266525E+02 -0.61225246350E+01  0.13221594796E+02  0.41800000000E+01 0. -1.
         -5    1    4    4    0  502  0.48373820947E+03  0.12538220166E+03 -0.64349414414E+03  0.81475489427E+03  0.41800000000E+01 0. -1.
        -11    1    3    3    0    0 -0.40057540560E+03 -0.12619344698E+03  0.10046243848E+03  0.43183115124E+03  0.00000000000E+00 0.  1.
         11    1    3    3    0    0 -0.83978985625E+02  0.11728511837E+02  0.41648771720E+02  0.94470356209E+02  0.00000000000E+00 0. -1.
</event>
<event>
 8    1  0.5900800E-006  0.9068831E+02  0.7561462E-02  0.1301193E+00
         -2   -1    0    0    0  501 -0.00000000000E+00  0.00000000000E+00  0.46963334048E+02  0.46963334048E+02  0.00000000000E+00 0.  1.
          2   -1    0    0  501    0  0.00000000000E+00 -0.00000000000E+00 -0.31140352275E+03  0.31140352275E+03  0.00000000000E+00 0. -1.
         23    2    1    2    0    0  0.15453701462E+02 -0.29070968695E+02 -0.47071188887E+02  0.10541728016E+03  0.88392126476E+02 0.  0.
         23    2    1    2    0    0 -0.15453701462E+02  0.29070968695E+02 -0.21736899981E+03  0.25294957664E+03  0.12510103170E+03 0.  0.
          5    1    4    4  502    0 -0.36770580832E+02  0.46338642237E+02 -0.35797116111E+02  0.69269411005E+02  0.41800000000E+01 0. -1.
         -5    1    4    4    0  502  0.21316879370E+02 -0.17267673542E+02 -0.18157188370E+03  0.18368016563E+03  0.41800000000E+01 0. -1.
        -11    1    3    3    0    0  0.41080992267E+02 -0.47468604056E+02 -0.31170415620E+02  0.70089308076E+02  0.00000000000E+00 0.  1.
         11    1    3    3    0    0 -0.25627290805E+02  0.18397635361E+02 -0.15900773267E+02  0.35327972081E+02  0.00000000000E+00 0. -1.
</event>
<event>
 8    1  0.5900800E-006  0.9107188E+02  0.7561462E-02  0.1300277E+00
         -2   -1    0    0    0  501 -0.00000000000E+00  0.00000000000E+00  0.71078101911E+02  0.71078101911E+02  0.00000000000E+00 0.  1.
          2   -1    0    0  501    0  0.00000000000E+00 -0.00000000000E+00 -0.19755076439E+03  0.19755076439E+03  0.00000000000E+00 0. -1.
         23    2    1    2    0    0  0.28288885590E+02 -0.27145068273E+02 -0.38570603997E+02  0.11079553120E+03  0.96181299963E+02 0.  0.
         23    2    1    2    0    0 -0.28288885590E+02  0.27145068273E+02 -0.87902058483E+02  0.15783333510E+03  0.12508986371E+03 0.  0.
          5    1    4    4  502    0  0.44798449295E+02  0.11693372049E+02 -0.64367529692E+02  0.79399542113E+02  0.41800000000E+01 0.  1.
         -5    1    4    4    0  502 -0.73087334884E+02  0.15451696224E+02 -0.23534528792E+02  0.78433792986E+02  0.41800000000E+01 0.  1.
        -11    1    3    3    0    0  0.22528759245E+02 -0.40470900741E+02 -0.65487916673E+02  0.80212879452E+02  0.00000000000E+00 0. -1.
         11    1    3    3    0    0  0.57601263445E+01  0.13325832469E+02  0.26917312675E+02  0.30582651751E+02  0.00000000000E+00 0.  1.
</event>
<event>
 8    1  0.5900800E-006  0.1187843E+03  0.7561462E-02  0.1245116E+00
         -2   -1    0    0    0  501 -0.00000000000E+00  0.00000000000E+00  0.23889941925E+03  0.23889941925E+03  0.00000000000E+00 0.  1.
          2   -1    0    0  501    0  0.00000000000E+00 -0.00000000000E+00 -0.63989095884E+02  0.63989095884E+02  0.00000000000E+00 0. -1.
         23    2    1    2    0    0 -0.56540569550E+02  0.11550403560E+02  0.87044138470E+02  0.13949016165E+03  0.92469321005E+02 0.  0.
         23    2    1    2    0    0  0.56540569550E+02 -0.11550403560E+02  0.87866184898E+02  0.16339835349E+03  0.12509319584E+03 0.  0.
          5    1    4    4  502    0  0.88818583309E+02 -0.30629250528E+02  0.82860567343E+02  0.12534048727E+03  0.41800000000E+01 0. -1.
         -5    1    4    4    0  502 -0.32278013759E+02  0.19078846967E+02  0.50056175545E+01  0.38057866216E+02  0.41800000000E+01 0. -1.
        -11    1    3    3    0    0 -0.26368578707E+02  0.50236324986E+02  0.63236919293E+02  0.84958214746E+02  0.00000000000E+00 0.  1.
         11    1    3    3    0    0 -0.30171990843E+02 -0.38685921426E+02  0.23807219178E+02  0.54531946902E+02  0.00000000000E+00 0. -1.
</event>
<event>
 8    1  0.5900800E-006  0.1396735E+03  0.7561462E-02  0.1213769E+00
         -2   -1    0    0    0  501 -0.00000000000E+00  0.00000000000E+00  0.22385874499E+02  0.22385874499E+02  0.00000000000E+00 0.  1.
          2   -1    0    0  501    0  0.00000000000E+00 -0.00000000000E+00 -0.98965712178E+03  0.98965712178E+03  0.00000000000E+00 0. -1.
         23    2    1    2    0    0 -0.77915115215E+02 -0.64504055804E+02 -0.41469135007E+03  0.43652523488E+03  0.91399269552E+02 0.  0.
         23    2    1    2    0    0  0.77915115215E+02  0.64504055804E+02 -0.55257989721E+03  0.57551776139E+03  0.12507842533E+03 0.  0.
          5    1    4    4  502    0 -0.11502441977E+02 -0.18089025892E+02 -0.21487742186E+02  0.30638447960E+02  0.41800000000E+01 0.  1.
         -5    1    4    4    0  502  0.89417557193E+02  0.82593081696E+02 -0.53109215503E+03  0.54487931343E+03  0.41800000000E+01 0.  1.
        -11    1    3    3    0    0 -0.98531179298E+02 -0.49912013471E+02 -0.35254704252E+03  0.36944420360E+03  0.00000000000E+00 0.  1.
         11    1    3    3    0    0  0.20616064083E+02 -0.14592042333E+02 -0.62144307547E+02  0.67081031285E+02  0.00000000000E+00 0. -1.
</event>
<event>
 8    1  0.5900800E-006  0.1025185E+03  0.7561462E-02  0.1275087E+00
         -2   -1    0    0    0  501 -0.00000000000E+00  0.00000000000E+00  0.33135142550E+02  0.33135142550E+02  0.00000000000E+00 0.  1.
          2   -1    0    0  501    0  0.00000000000E+00 -0.00000000000E+00 -0.60019699295E+03  0.60019699295E+03  0.00000000000E+00 0. -1.
         23    2    1    2    0    0  0.14383263980E+02  0.53684340677E+02 -0.10036668149E+03  0.14697748657E+03  0.91869603723E+02 0.  0.
         23    2    1    2    0    0 -0.14383263980E+02 -0.53684340677E+02 -0.46669516891E+03  0.48635464893E+03  0.12509027594E+03 0.  0.
          5    1    4    4  502    0  0.40053605646E+02  0.12917909672E+02 -0.83480476773E+02  0.93582189105E+02  0.41800000000E+01 0.  1.
         -5    1    4    4    0  502 -0.54436869627E+02 -0.66602250349E+02 -0.38321469214E+03  0.39277245982E+03  0.41800000000E+01 0.  1.
        -11    1    3    3    0    0 -0.11066854777E+02 -0.53837213463E+01  0.12201684430E+02  0.17330344288E+02  0.00000000000E+00 0.  1.
         11    1    3    3    0    0  0.25450118758E+02  0.59068062023E+02 -0.11256836592E+03  0.12964714228E+03  0.00000000000E+00 0. -1.
</event>
<event>
 8    1  0.5900800E-006  0.1219099E+03  0.7561462E-02  0.1239979E+00
         -1   -1    0    0    0  501 -0.00000000000E+00  0.00000000000E+00  0.22714465410E+03  0.22714465410E+03  0.00000000000E+00 0.  1.
          1   -1    0    0  501    0  0.00000000000E+00 -0.00000000000E+00 -0.17067258474E+03  0.17067258474E+03  0.00000000000E+00 0. -1.
         23    2    1    2    0    0 -0.94242857522E+02  0.43780680623E+01  0.16243191401E+03  0.20867404715E+03  0.90883703672E+02 0.  0.
         23    2    1    2    0    0  0.94242857522E+02 -0.43780680623E+01 -0.10595984464E+03  0.18914319169E+03  0.12508706812E+03 0.  0.
          5    1    4    4  502    0  0.10307937171E+03 -0.34353276104E+02 -0.11302086174E+03  0.15683332566E+03  0.41800000000E+01 0.  1.
         -5    1    4    4    0  502 -0.88365141858E+01  0.29975208041E+02  0.70610170910E+01  0.32309866023E+02  0.41800000000E+01 0.  1.
        -11    1    3    3    0    0 -0.60551258108E+02 -0.17929725997E+02  0.29432939560E+02  0.69672289067E+02  0.00000000000E+00 0. -1.
         11    1    3    3    0    0 -0.33691599415E+02  0.22307794059E+02  0.13299897445E+03  0.13900175808E+03  0.00000000000E+00 0.  1.
</event>
<event>
 8    1  0.5900800E-006  0.1706326E+03  0.7561462E-02  0.1177190E+00
          1   -1    0    0  501    0  0.00000000000E+00  0.00000000000E+00  0.26801563970E+03  0.26801563970E+03  0.00000000000E+00 0. -1.
         -1   -1    0    0    0  501 -0.00000000000E+00 -0.00000000000E+00 -0.16346315009E+03  0.16346315009E+03  0.00000000000E+00 0.  1.
         23    2    1    2    0    0 -0.61802993385E+02  0.13650502296E+03 -0.51070182470E+02  0.18183998968E+03  0.89467239953E+02 0.  0.
         23    2    1    2    0    0  0.61802993385E+02 -0.13650502296E+03  0.15562267208E+03  0.24963880012E+03  0.12509149922E+03 0.  0.
          5    1    4    4  502    0  0.20787575882E+02 -0.13529956715E+03  0.15704151582E+03  0.20836891868E+03  0.41800000000E+01 0.  1.
         -5    1    4    4    0  502  0.41015417502E+02 -0.12054558057E+01 -0.14188437382E+01  0.41269881441E+02  0.41800000000E+01 0.  1.
        -11    1    3    3    0    0 -0.25985131399E+02  0.46026237600E+01  0.14647977514E+02  0.30182353197E+02  0.00000000000E+00 0. -1.
         11    1    3    3    0    0 -0.35817861986E+02  0.13190239920E+03 -0.65718159985E+02  0.15165763648E+03  0.00000000000E+00 0.  1.
</event>
<event>
 8    1  0.5900800E-006  0.7575816E+02  0.7561462E-02  0.1341539E+00
          3   -1    0    0  501    0  0.00000000000E+00  0.00000000000E+00  0.40426595541E+03  0.40426595541E+03  0.00000000000E+00 0. -1.
         -3   -1    0    0    0  501 -0.00000000000E+00 -0.00000000000E+00 -0.38224046608E+02  0.38224046608E+02  0.00000000000E+00 0.  1.
         23    2    1    2    0    0 -0.50387150231E+02  0.97742508979E+01  0.10074900670E+03  0.14473292194E+03  0.90348522147E+02 0.  0.
         23    2    1    2    0    0  0.50387150231E+02 -0.97742508979E+01  0.26529290210E+03  0.29775708008E+03  0.12507819130E+03 0.  0.
          5    1    4    4  502    0  0.47260986749E+02  0.22180112602E+01  0.27648985595E+03  0.28053989607E+03  0.41800000000E+01 0. -1.
         -5    1    4    4    0  502  0.31261634824E+01 -0.11992262158E+02 -0.11196953845E+02  0.17217184009E+02  0.41800000000E+01 0. -1.
        -11    1    3    3    0    0 -0.11553659967E+02  0.40060154147E+02  0.82087215046E+02  0.92068528189E+02  0.00000000000E+00 0. -1.
         11    1    3    3    0    0 -0.38833490264E+02 -0.30285903249E+02  0.18661791652E+02  0.52664393753E+02  0.00000000000E+00 0.  1.
</event>
<event>
 8    1  0.5900800E-006  0.2025978E+03  0.7561462E-02  0.1147566E+00
         -2   -1    0    0    0  501 -0.00000000000E+00  0.00000000000E+00  0.41732845632E+02  0.41732845632E+02  0.00000000000E+00 0.  1.
          2   -1    0    0  501    0  0.00000000000E+00 -0.00000000000E+00 -0.12022745284E+04  0.12022745284E+04  0.00000000000E+00 0. -1.
         23    2    1    2    0    0  0.11676962333E+03  0.14297719244E+03 -0.37894391564E+03  0.43122176983E+03  0.90973078907E+02 0.  0.
         23    2    1    2    0    0 -0.11676962333E+03 -0.14297719244E+03 -0.78159776714E+03  0.81278560421E+03  0.12509095222E+03 0.  0.
          5    1    4    4  502    0 -0.64436975114E+02  0.15320187838E+01 -0.16212116646E+03  0.17451422824E+03  0.41800000000E+01 0.  1.
         -5    1    4    4    0  502 -0.52332648219E+02 -0.14450921122E+03 -0.61947660068E+03  0.63827137597E+03  0.41800000000E+01 0.  1.
        -11    1    3    3    0    0  0.31517532498E+02  0.60597870080E+02 -0.59843989387E+02  0.90811672040E+02  0.00000000000E+00 0.  1.
         11    1    3    3    0    0  0.85252090835E+02  0.82379322358E+02 -0.31909992626E+03  0.34041009779E+03  0.00000000000E+00 0. -1.
</event>
<event>
 8    1  0.5900800E-006  0.1299279E+03  0.7561462E-02  0.1227563E+00
          1   -1    0    0  501    0  0.00000000000E+00  0.00000000000E+00  0.79054857011E+03  0.79054857011E+03  0.00000000000E+00 0. -1.
         -1   -1    0    0    0  501 -0.00000000000E+00 -0.00000000000E+00 -0.34120120719E+02  0.34120120719E+02  0.00000000000E+00 0.  1.
         23    2    1    2    0    0  0.21532639515E+02 -0.92293122965E+02  0.17412275730E+03  0.22158598585E+03  0.98994643315E+02 0.  0.
         23    2    1    2    0    0 -0.21532639515E+02  0.92293122965E+02  0.58230569209E+03  0.60308270498E+03  0.12508858818E+03 0.  0.
          5    1    4    4  502    0 -0.29841736722E+02  0.10376042939E+03  0.27561686500E+03  0.29603865395E+03  0.41800000000E+01 0.  1.
         -5    1    4    4    0  502  0.83090972071E+01 -0.11467306422E+02  0.30668882709E+03  0.30704405103E+03  0.41800000000E+01 0.  1.
        -11    1    3    3    0    0  0.60441309353E+02 -0.42673480613E+02  0.93292137986E+02  0.11906973097E+03  0.00000000000E+00 0.  1.
         11    1    3    3    0    0 -0.38908669838E+02 -0.49619642351E+02  0.80830619317E+02  0.10251625488E+03  0.00000000000E+00 0. -1.
</event>
<event>
 8    1  0.5900800E-006  0.1117802E+03  0.7561462E-02  0.1257308E+00
         -2   -1    0    0    0  501 -0.00000000000E+00  0.00000000000E+00  0.90135406007E+01  0.90135406007E+01  0.00000000000E+00 0.  1.
          2   -1    0    0  501    0  0.00000000000E+00 -0.00000000000E+00 -0.15819034746E+04  0.15819034746E+04  0.00000000000E+00 0. -1.
         23    2    1    2    0    0  0.23691389238E+02 -0.14404973894E+02 -0.41460496862E+03  0.42556637877E+03  0.91873160053E+02 0.  0.
         23    2    1    2    0    0 -0.23691389238E+02  0.14404973894E+02 -0.11582849654E+04  0.11653506365E+04  0.12509700080E+03 0.  0.
          5    1    4    4  502    0 -0.67101432580E+02 -0.22225509647E+02 -0.68555145860E+03  0.68919870163E+03  0.41800000000E+01 0.  1.
         -5    1    4    4    0  502  0.43410043342E+02  0.36630483541E+02 -0.47273350682E+03  0.47615193484E+03  0.41800000000E+01 0.  1.
        -11    1    3    3    0    0  0.55664248114E+02 -0.26452190077E+02 -0.27861511958E+03  0.28534998114E+03  0.00000000000E+00 0. -1.
         11    1    3    3    0    0 -0.31972858876E+02  0.12047216183E+02 -0.13598984905E+03  0.14021639764E+03  0.00000000000E+00 0.  1.
</event>
<event>
 8    1  0.5900800E-006  0.1540428E+03  0.7561462E-02  0.1195591E+00
          2   -1    0    0  501    0  0.00000000000E+00  0.00000000000E+00  0.18583248410E+04  0.18583248410E+04  0.00000000000E+00 0. -1.
         -2   -1    0    0    0  501 -0.00000000000E+00 -0.00000000000E+00 -0.24207327836E+02  0.24207327836E+02  0.00000000000E+00 0.  1.
         23    2    1    2    0    0 -0.54006025596E+02  0.11527769127E+03  0.30077272036E+03  0.33883579799E+03  0.90221237977E+02 0.  0.
         23    2    1    2    0    0  0.54006025596E+02 -0.11527769127E+03  0.15333447928E+04  0.15436963709E+04  0.12508650939E+03 0.  0.
          5    1    4    4  502    0  0.39585569735E+02  0.18092813779E+02  0.32767473659E+03  0.33057914731E+03  0.41800000000E+01 0. -1.
         -5    1    4    4    0  502  0.14420455861E+02 -0.13337050505E+03  0.12056700562E+04  0.12131172236E+04  0.41800000000E+01 0. -1.
        -11    1    3    3    0    0 -0.12356257069E+02  0.58157036572E+02  0.48146456436E+02  0.76504896960E+02  0.00000000000E+00 0.  1.
         11    1    3    3    0    0 -0.41649768527E+02  0.57120654703E+02  0.25262626393E+03  0.26233090103E+03  0.00000000000E+00 0. -1.
</event>
<event>
 8    1  0.5900800E-006  0.1007946E+03  0.7561462E-02  0.1278634E+00
         -2   -1    0    0    0  501 -0.00000000000E+00  0.00000000000E+00  0.14945221724E+02  0.14945221724E+02  0.00000000000E+00 0. -1.
          2   -1    0    0  501    0  0.00000000000E+00 -0.00000000000E+00 -0.12505626469E+04  0.12505626469E+04  0.00000000000E+00 0.  1.
         23    2    1    2    0    0 -0.37990232612E+02 -0.40584374507E+02 -0.26241947656E+03  0.28273031418E+03  0.89342597068E+02 0.  0.
         23    2    1    2    0    0  0.37990232612E+02  0.40584374507E+02 -0.97319794861E+03  0.98277755444E+03  0.12508846909E+03 0.  0.
          5    1    4    4  502    0  0.75970321917E+02  0.63259992616E+01 -0.74387068688E+03  0.74777842927E+03  0.41800000000E+01 0.  1.
         -5    1    4    4    0  502 -0.37980089305E+02  0.34258375245E+02 -0.22932726172E+03  0.23499912516E+03  0.41800000000E+01 0.  1.
        -11    1    3    3    0    0 -0.36658029610E+02 -0.51340543748E+02 -0.26430491484E+03  0.27172918610E+03  0.00000000000E+00 0.  1.
         11    1    3    3    0    0 -0.13322030022E+01  0.10756169241E+02  0.18854382832E+01  0.11001128083E+02  0.00000000000E+00 0. -1.
</event>
<event>
 8    1  0.5900800E-006  0.1151527E+03  0.7561462E-02  0.1251315E+00
          3   -1    0    0  501    0  0.00000000000E+00  0.00000000000E+00  0.15635799212E+03  0.15635799212E+03  0.00000000000E+00 0. -1.
         -3   -1    0    0    0  501 -0.00000000000E+00 -0.00000000000E+00 -0.21125540037E+03  0.21125540037E+03  0.00000000000E+00 0.  1.
         23    2    1    2    0    0  0.25352474444E+02 -0.42738021845E+02 -0.16726024410E+03  0.19668886172E+03  0.90781234841E+02 0.  0.
         23    2    1    2    0    0 -0.25352474444E+02  0.42738021845E+02  0.11236283584E+03  0.17092453076E+03  0.11882971794E+03 0.  0.
          5    1    4    4  502    0 -0.72983025654E+02  0.20004459403E+02  0.68875999681E+02  0.10241130876E+03  0.41800000000E+01 0. -1.
         -5    1    4    4    0  502  0.47630551210E+02  0.22733562442E+02  0.43486836162E+02  0.68513222003E+02  0.41800000000E+01 0.  1.
        -11    1    3    3    0    0  0.44605910254E+02  0.97544934330E+01 -0.94259890671E+02  0.10473664288E+03  0.00000000000E+00 0.  1.
         11    1    3    3    0    0 -0.19253435810E+02 -0.52492515278E+02 -0.73000353426E+02  0.91952218847E+02  0.00000000000E+00 0. -1.
</event>
<event>
 8    1  0.5900800E-006  0.1083981E+03  0.7561462E-02  0.1263566E+00
         -1   -1    0    0    0  501 -0.00000000000E+00  0.00000000000E+00  0.60245292257E+01  0.60245292257E+01  0.00000000000E+00 0.  1.
          1   -1    0    0  501    0  0.00000000000E+00 -0.00000000000E+00 -0.35216256207E+04  0.35216256207E+04  0.00000000000E+00 0. -1.
         23    2    1    2    0    0 -0.28680361778E+02  0.12905438416E+02 -0.43896895807E+03  0.44831604081E+03  0.85465857533E+02 0.  0.
         23    2    1    2    0    0  0.28680361778E+02 -0.12905438416E+02 -0.30766321334E+04  0.30793341091E+04  0.12507660769E+03 0.  0.
          5    1    4    4  502    0  0.36912340409E+02  0.51298658294E+02 -0.13523536700E+04  0.13538360293E+04  0.41800000000E+01 0.  1.
         -5    1    4    4    0  502 -0.82319786315E+01 -0.64204096710E+02 -0.17242784634E+04  0.17254980798E+04  0.41800000000E+01 0.  1.
        -11    1    3    3    0    0 -0.44145221987E+02  0.38576472618E+02 -0.33592939254E+03  0.34100660058E+03  0.00000000000E+00 0. -1.
         11    1    3    3    0    0  0.15464860209E+02 -0.25671034202E+02 -0.10303956553E+03  0.10730944023E+03  0.00000000000E+00 0.  1.
</event>
<event>
 8    1  0.5900800E-006  0.1361768E+03  0.7561462E-02  0.1218568E+00
          1   -1    0    0  501    0  0.00000000000E+00  0.00000000000E+00  0.15690455808E+03  0.15690455808E+03  0.00000000000E+00 0. -1.
         -1   -1    0    0    0  501 -0.00000000000E+00 -0.00000000000E+00 -0.16534268209E+03  0.16534268209E+03  0.00000000000E+00 0.  1.
         23    2    1    2    0    0 -0.46235613673E+02  0.10332226430E+03 -0.33149289428E+02  0.15174759376E+03  0.95473737481E+02 0.  0.
         23    2    1    2    0    0  0.46235613673E+02 -0.10332226430E+03  0.24711165409E+02  0.17049964641E+03  0.12508503291E+03 0.  0.
          5    1    4    4  502    0  0.69363422740E+02 -0.55240588277E+02 -0.30252661715E+02  0.93784342767E+02  0.41800000000E+01 0. -1.
         -5    1    4    4    0  502 -0.23127809067E+02 -0.48081676026E+02  0.54963827124E+02  0.76715303648E+02  0.41800000000E+01 0. -1.
        -11    1    3    3    0    0  0.16206738848E+02  0.26536325880E+02 -0.42139718667E+02  0.52369751428E+02  0.00000000000E+00 0.  1.
         11    1    3    3    0    0 -0.62442352521E+02  0.76785938423E+02  0.89904292390E+01  0.99377842328E+02  0.00000000000E+00 0. -1.
</event>
<event>
 8    1  0.5900800E-006  0.1377022E+03  0.7561462E-02  0.1216455E+00
          1   -1    0    0  501    0  0.00000000000E+00  0.00000000000E+00  0.18933335982E+03  0.18933335982E+03  0.00000000000E+00 0. -1.
         -1   -1    0    0    0  501 -0.00000000000E+00 -0.00000000000E+00 -0.13026548829E+03  0.13026548829E+03  0.00000000000E+00 0.  1.
         23    2    1    2    0    0 -0.26819949766E+02 -0.85939257430E+02 -0.42336357337E+02  0.13511662676E+03  0.91429043531E+02 0.  0.
         23    2    1    2    0    0  0.26819949766E+02  0.85939257430E+02  0.10140422887E+03  0.18448222135E+03  0.12508399853E+03 0.  0.
          5    1    4    4  502    0 -0.40723380550E+02  0.66486752877E+02  0.28477705868E+02  0.83110373379E+02  0.41800000000E+01 0. -1.
         -5    1    4    4    0  502  0.67543330316E+02  0.19452504552E+02  0.72926523007E+02  0.10137184797E+03  0.41800000000E+01 0. -1.
        -11    1    3    3    0    0 -0.34943379480E+02 -0.10259427633E+03 -0.28723681236E+02  0.11212348179E+03  0.00000000000E+00 0.  1.
         11    1    3    3    0    0  0.81234297147E+01  0.16655018900E+02 -0.13612676101E+02  0.22993144968E+02  0.00000000000E+00 0. -1.
</event>
<event>
 8    1  0.5900800E-006  0.1685338E+03  0.7561462E-02  0.1179385E+00
          3   -1    0    0  501    0  0.00000000000E+00  0.00000000000E+00  0.16342950519E+03  0.16342950519E+03  0.00000000000E+00 0. -1.
         -3   -1    0    0    0  501 -0.00000000000E+00 -0.00000000000E+00 -0.52935132157E+03  0.52935132157E+03  0.00000000000E+00 0.  1.
         23    2    1    2    0    0  0.56105564121E+02 -0.15503035685E+03 -0.43530829341E+03  0.47450401217E+03  0.92078778163E+02 0.  0.
         23    2    1    2    0    0 -0.56105564121E+02  0.15503035685E+03  0.69386477028E+02  0.21827681458E+03  0.12509212093E+03 0.  0.
          5    1    4    4  502    0 -0.62754676631E+02  0.14860520372E+03  0.14004600223E+02  0.16197301393E+03  0.41800000000E+01 0.  1.
         -5    1    4    4    0  502  0.66491125102E+01  0.64251531242E+01  0.55381876805E+02  0.56303800656E+02  0.41800000000E+01 0.  1.
        -11    1    3    3    0    0  0.43579594983E+02 -0.13564715500E+03 -0.42672419377E+03  0.44988095015E+03  0.00000000000E+00 0.  1.
         11    1    3    3    0    0  0.12525969138E+02 -0.19383201849E+02 -0.85840996363E+01  0.24623062022E+02  0.00000000000E+00 0. -1.
</event>
<event>
 8    1  0.5900800E-006  0.1025826E+03  0.7561462E-02  0.1274957E+00
         -1   -1    0    0    0  501 -0.00000000000E+00  0.00000000000E+00  0.86043751536E+02  0.86043751536E+02  0.00000000000E+00 0.  1.
          1   -1    0    0  501    0  0.00000000000E+00 -0.00000000000E+00 -0.28571050281E+03  0.28571050281E+03  0.00000000000E+00 0. -1.
         23    2    1    2    0    0  0.49740882542E+02 -0.58503129455E+02 -0.62609886225E+01  0.12892898863E+03  0.10337655719E+03 0.  0.
         23    2    1    2    0    0 -0.49740882542E+02  0.58503129455E+02 -0.19340576265E+03  0.24282526572E+03  0.12514611098E+03 0.  0.
          5    1    4    4  502    0 -0.42234444316E+02 -0.12643311017E+02 -0.15564473398E+03  0.16182199237E+03  0.41800000000E+01 0.  1.
         -5    1    4    4    0  502 -0.75064382263E+01  0.71146440472E+02 -0.37761028673E+02  0.81003273348E+02  0.41800000000E+01 0.  1.
        -11    1    3    3    0    0  0.57894692233E+01 -0.41800873892E+02 -0.49503456185E+02  0.65049390360E+02  0.00000000000E+00 0. -1.
         11    1    3    3    0    0  0.43951413319E+02 -0.16702255563E+02  0.43242467563E+02  0.63879598265E+02  0.00000000000E+00 0.  1.
</event>
<event>
 8    1  0.5900800E-006  0.1238066E+03  0.7561462E-02  0.1236946E+00
         -1   -1    0    0    0  501 -0.00000000000E+00  0.00000000000E+00  0.10414919443E+03  0.10414919443E+03  0.00000000000E+00 0.  1.
          1   -1    0    0  501    0  0.00000000000E+00 -0.00000000000E+00 -0.20034422274E+03  0.20034422274E+03  0.00000000000E+00 0. -1.
         23    2    1    2    0    0 -0.34640927342E+02  0.72143751588E+02  0.10168580270E+02  0.12183093395E+03  0.91294368399E+02 0.  0.
         23    2    1    2    0    0  0.34640927342E+02 -0.72143751588E+02 -0.10636360858E+03  0.18266248322E+03  0.12509057042E+03 0.  0.
          5    1    4    4  502    0  0.69708499594E+02 -0.67309719532E+01 -0.30663707681E+02  0.76565764333E+02  0.41800000000E+01 0.  1.
         -5    1    4    4    0  502 -0.35067572253E+02 -0.65412779635E+02 -0.75699900895E+02  0.10609671889E+03  0.41800000000E+01 0.  1.
        -11    1    3    3    0    0 -0.35293664072E+02  0.46236107821E+01  0.34967879808E+02  0.49897626382E+02  0.00000000000E+00 0.  1.
         11    1    3    3    0    0  0.65273672992E+00  0.67520140806E+02 -0.24799299538E+02  0.71933307565E+02  0.00000000000E+00 0. -1.
</event>
<event>
 8    1  0.5900800E-006  0.8890066E+02  0.7561462E-02  0.1305536E+00
          2   -1    0    0  501    0  0.00000000000E+00  0.00000000000E+00  0.21841493462E+03  0.21841493462E+03  0.00000000000E+00 0. -1.
         -2   -1    0    0    0  501 -0.00000000000E+00 -0.00000000000E+00 -0.14332282662E+03  0.14332282662E+03  0.00000000000E+00 0.  1.
         23    2    1    2    0    0  0.37771531578E+02  0.26378715584E+02 -0.98889831855E+02  0.14255926755E+03  0.91768298921E+02 0.  0.
         23    2    1    2    0    0 -0.37771531578E+02 -0.26378715584E+02  0.17398193985E+03  0.21917849369E+03  0.12508785500E+03 0.  0.
          5    1    4    4  502    0 -0.68457481187E+02 -0.48284791594E+02  0.15617373978E+03  0.17727255068E+03  0.41800000000E+01 0.  1.
         -5    1    4    4    0  502  0.30685949609E+02  0.21906076010E+02  0.17808200074E+02  0.41905943009E+02  0.41800000000E+01 0.  1.
        -11    1    3    3    0    0  0.25266919648E+01  0.20017545440E+02 -0.10439277112E+03  0.10632467709E+03  0.00000000000E+00 0.  1.
         11    1    3    3    0    0  0.35244839613E+02  0.63611701442E+01  0.55029392630E+01  0.36234590456E+02  0.00000000000E+00 0. -1.
</event>
<event>
 8    1  0.5900800E-006  0.1505253E+03  0.7561462E-02  0.1199829E+00
          1   -1    0    0  501    0  0.00000000000E+00  0.00000000000E+00  0.13978497169E+04  0.13978497169E+04  0.00000000000E+00 0. -1.
         -1   -1    0    0    0  501 -0.00000000000E+00 -0.00000000000E+00 -0.16850963452E+02  0.16850963452E+02  0.00000000000E+00 0.  1.
         23    2    1    2    0    0  0.57960757367E+02 -0.88941949344E+02  0.52964219523E+03  0.54767972843E+03  0.90344397784E+02 0.  0.
         23    2    1    2    0    0 -0.57960757367E+02  0.88941949344E+02  0.85135655821E+03  0.86702095192E+03  0.12508885687E+03 0.  0.
          5    1    4    4  502    0 -0.90860214879E+02  0.91899714575E+02  0.62560161137E+03  0.63882390745E+03  0.41800000000E+01 0. -1.
         -5    1    4    4    0  502  0.32899457511E+02 -0.29577652310E+01  0.22575494684E+03  0.22819704447E+03  0.41800000000E+01 0. -1.
        -11    1    3    3    0    0  0.81747397319E+02 -0.62605946010E+02  0.41999655213E+03  0.43243409353E+03  0.00000000000E+00 0. -1.
         11    1    3    3    0    0 -0.23786639952E+02 -0.26336003334E+02  0.10964564311E+03  0.11524563490E+03  0.00000000000E+00 0.  1.
</event>
<event>
 8    1  0.5900800E-006  0.8879658E+02  0.7561462E-02  0.1305792E+00
         -1   -1    0    0    0  501 -0.00000000000E+00  0.00000000000E+00  0.13836371387E+03  0.13836371387E+03  0.00000000000E+00 0.  1.
          1   -1    0    0  501    0  0.00000000000E+00 -0.00000000000E+00 -0.89564869429E+02  0.89564869429E+02  0.00000000000E+00 0. -1.
         23    2    1    2    0    0  0.90963698375E+01  0.50070600867E+01  0.46930893498E+02  0.10239320654E+03  0.90410427420E+02 0.  0.
         23    2    1    2    0    0 -0.90963698375E+01 -0.50070600867E+01  0.18679509441E+01  0.12553537676E+03  0.12509127460E+03 0.  0.
          5    1    4    4  502    0 -0.59141930786E+02 -0.24580792091E+02  0.22221469612E+02  0.67920905682E+02  0.41800000000E+01 0. -1.
         -5    1    4    4    0  502  0.50045560949E+02  0.19573732004E+02 -0.20353518668E+02  0.57614471076E+02  0.41800000000E+01 0. -1.
        -11    1    3    3    0    0  0.16592347293E+02  0.29527477674E+02 -0.13721360770E+02  0.36543859510E+02  0.00000000000E+00 0. -1.
         11    1    3    3    0    0 -0.74959774559E+01 -0.24520417587E+02  0.60652254268E+02  0.65849347031E+02  0.00000000000E+00 0.  1.
</event>
<event>
 8    1  0.5900800E-006  0.1132893E+03  0.7561462E-02  0.1254597E+00
         -4   -1    0    0    0  501 -0.00000000000E+00  0.00000000000E+00  0.99132570905E+02  0.99132570905E+02  0.00000000000E+00 0.  1.
          4   -1    0    0  501    0  0.00000000000E+00 -0.00000000000E+00 -0.33367094330E+03  0.33367094330E+03  0.00000000000E+00 0. -1.
         23    2    1    2    0    0 -0.12139114398E+02  0.81779065854E+02  0.31026619574E+02  0.12784331260E+03  0.92445052561E+02 0.  0.
         23    2    1    2    0    0  0.12139114398E+02 -0.81779065854E+02 -0.26556499197E+03  0.30496020161E+03  0.12506312764E+03 0.  0.
          5    1    4    4  502    0  0.15914045593E+02 -0.10562425849E+03 -0.13541338951E+03  0.17252246024E+03  0.41800000000E+01 0. -1.
         -5    1    4    4    0  502 -0.37749311947E+01  0.23845192632E+02 -0.13015160246E+03  0.13243774137E+03  0.41800000000E+01 0. -1.
        -11    1    3    3    0    0  0.15982733009E+02  0.12122163377E+02  0.46949087624E+02  0.51054984361E+02  0.00000000000E+00 0.  1.
         11    1    3    3    0    0 -0.28121847407E+02  0.69656902478E+02 -0.15922468050E+02  0.76788328235E+02  0.00000000000E+00 0. -1.
</event>
<event>
 8    1  0.5900800E-006  0.1546682E+03  0.7561462E-02  0.1194851E+00
         -1   -1    0    0    0  501 -0.00000000000E+00  0.00000000000E+00  0.28609345410E+03  0.28609345410E+03  0.00000000000E+00 0.  1.
          1   -1    0    0  501    0  0.00000000000E+00 -0.00000000000E+00 -0.96061444480E+02  0.96061444480E+02  0.00000000000E+00 0. -1.
         23    2    1    2    0    0  0.30930032586E+02  0.12180599608E+03  0.87237607521E+02  0.17719672093E+03  0.89414261424E+02 0.  0.
         23    2    1    2    0    0 -0.30930032586E+02 -0.12180599608E+03  0.10279440210E+03  0.20495817765E+03  0.12509115831E+03 0.  0.
          5    1    4    4  502    0  0.41751822911E+02 -0.83253003555E+02  0.40352655569E+02  0.10158782668E+03  0.41800000000E+01 0.  1.
         -5    1    4    4    0  502 -0.72681855497E+02 -0.38552992522E+02  0.62441746533E+02  0.10337035098E+03  0.41800000000E+01 0.  1.
        -11    1    3    3    0    0  0.59509733937E+01  0.10111861263E+03  0.10000351052E+03  0.14234145574E+03  0.00000000000E+00 0.  1.
         11    1    3    3    0    0  0.24979059192E+02  0.20687383444E+02 -0.12765903003E+02  0.34855265189E+02  0.00000000000E+00 0. -1.
</event>
<event>
 8    1  0.5900800E-006  0.2077635E+03  0.7561462E-02  0.1143349E+00
         -1   -1    0    0    0  501 -0.00000000000E+00  0.00000000000E+00  0.83506374842E+02  0.83506374842E+02  0.00000000000E+00 0.  1.
          1   -1    0    0  501    0  0.00000000000E+00 -0.00000000000E+00 -0.64493235990E+03  0.64493235990E+03  0.00000000000E+00 0. -1.
         23    2    1    2    0    0 -0.89859756527E+02  0.16351330172E+03 -0.15190558930E+03  0.26135253993E+03  0.10207088902E+03 0.  0.
         23    2    1    2    0    0  0.89859756527E+02 -0.16351330172E+03 -0.40952039576E+03  0.46708619482E+03  0.12510468880E+03 0.  0.
          5    1    4    4  502    0  0.38259851461E+02  0.68522812811E+01 -0.12929839068E+03  0.13507892591E+03  0.41800000000E+01 0.  1.
         -5    1    4    4    0  502  0.51599905066E+02 -0.17036558300E+03 -0.28022200508E+03  0.33200726890E+03  0.41800000000E+01 0.  1.
        -11    1    3    3    0    0 -0.61988922526E+02  0.44922245306E+02 -0.10689597753E+03  0.13148149927E+03  0.00000000000E+00 0.  1.
         11    1    3    3    0    0 -0.27870834001E+02  0.11859105641E+03 -0.45009611768E+02  0.12987104065E+03  0.00000000000E+00 0. -1.
</event>
<event>
 7    1  0.5900800E-006  0.6991547E+02  0.7561462E-02  0.1360381E+00
          2   -1    0    0  501    0  0.00000000000E+00  0.00000000000E+00  0.11519490879E+03  0.11519490879E+03  0.00000000000E+00 0.  1.
         -2   -1    0    0    0  501 -0.00000000000E+00 -0.00000000000E+00 -0.59456350642E+02  0.59456350642E+02  0.00000000000E+00 0. -1.
         23    2    1    2    0    0 -0.24847449673E+02  0.10683163847E+02  0.72553640957E+02  0.13894311472E+03  0.11536738086E+03 0.  0.
          5    1    3    3  502    0 -0.66934389338E+02  0.10480782696E+02  0.18586916368E+02  0.70377589772E+02  0.41800000000E+01 0. -1.
         -5    1    3    3    0  502  0.42086939665E+02  0.20238115109E+00  0.53966724589E+02  0.68565524948E+02  0.41800000000E+01 0.  1.
        -11    1    1    2    0    0  0.11375275352E+02 -0.11480831792E+02 -0.15074067358E+02  0.22100540597E+02  0.00000000000E+00 0. -1.
         11    1    1    2    0    0  0.13472174321E+02  0.79766794476E+00 -0.17410154460E+01  0.13607604120E+02  0.00000000000E+00 0.  1.
</event>
<event>
 8    1  0.5900800E-006  0.1220312E+03  0.7561462E-02  0.1239783E+00
          1   -1    0    0  501    0  0.00000000000E+00  0.00000000000E+00  0.37808617874E+03  0.37808617874E+03  0.00000000000E+00 0. -1.
         -1   -1    0    0    0  501 -0.00000000000E+00 -0.00000000000E+00 -0.63856956816E+02  0.63856956816E+02  0.00000000000E+00 0.  1.
         23    2    1    2    0    0 -0.52935244041E+02 -0.78863349009E+02  0.65735141285E+02  0.14796443381E+03  0.92470519592E+02 0.  0.
         23    2    1    2    0    0  0.52935244041E+02  0.78863349009E+02  0.24849408063E+03  0.29397870175E+03  0.12511035565E+03 0.  0.
          5    1    4    4  502    0  0.90286078228E+01  0.71858751646E+02  0.23701583807E+03  0.24786927169E+03  0.41800000000E+01 0. -1.
         -5    1    4    4    0  502  0.43906636218E+02  0.70045973628E+01  0.11478242560E+02  0.46109430060E+02  0.41800000000E+01 0. -1.
        -11    1    3    3    0    0 -0.53155338031E+02 -0.95993864167E+02  0.39480896001E+02  0.11661497789E+03  0.00000000000E+00 0. -1.
         11    1    3    3    0    0  0.22009399028E+00  0.17130515158E+02  0.26254245284E+02  0.31349455918E+02  0.00000000000E+00 0.  1.
</event>
<event>
 8    1  0.5900800E-006  0.6668562E+02  0.7561462E-02  0.1371741E+00
         -3   -1    0    0    0  501 -0.00000000000E+00  0.00000000000E+00  0.19601471244E+03  0.19601471244E+03  0.00000000000E+00 0.  1.
          3   -1    0    0  501    0  0.00000000000E+00 -0.00000000000E+00 -0.66107817804E+02  0.66107817804E+02  0.00000000000E+00 0. -1.
         23    2    1    2    0    0  0.27388060397E+02  0.12605171706E+02  0.75808476873E+02  0.12254066418E+03  0.91434637893E+02 0.  0.
         23    2    1    2    0    0 -0.27388060397E+02 -0.12605171706E+02  0.54098417764E+02  0.13958186606E+03  0.12508981702E+03 0.  0.
          5    1    4    4  502    0 -0.40175736353E+02  0.14513098526E+02 -0.28560025191E+02  0.51554507652E+02  0.41800000000E+01 0. -1.
         -5    1    4    4    0  502  0.12787675955E+02 -0.27118270232E+02  0.82658442955E+02  0.88027358409E+02  0.41800000000E+01 0. -1.
        -11    1    3    3    0    0  0.25123551388E+02  0.31981891780E+02 -0.35452837333E+01  0.40824052627E+02  0.00000000000E+00 0. -1.
         11    1    3    3    0    0  0.22645090092E+01 -0.19376720074E+02  0.79353760606E+02  0.81716611556E+02  0.00000000000E+00 0.  1.
</event>
<event>
 8    1  0.5900800E-006  0.1771546E+03  0.7561462E-02  0.1170586E+00
          1   -1    0    0  501    0  0.00000000000E+00  0.00000000000E+00  0.34624417477E+03  0.34624417477E+03  0.00000000000E+00 0. -1.
         -1   -1    0    0    0  501 -0.00000000000E+00 -0.00000000000E+00 -0.11086796718E+03  0.11086796718E+03  0.00000000000E+00 0.  1.
         23    2    1    2    0    0 -0.10629383449E+03  0.11546844642E+03  0.60029325608E+02  0.19060509496E+03  0.89974668217E+02 0.  0.
         23    2    1    2    0    0  0.10629383449E+03 -0.11546844642E+03  0.17534688199E+03  0.26650704699E+03  0.12509250858E+03 0.  0.
          5    1    4    4  502    0  0.11118884139E+03 -0.58583832605E+02  0.16639139845E+03  0.20856316494E+03  0.41800000000E+01 0.  1.
         -5    1    4    4    0  502 -0.48950068992E+01 -0.56884613818E+02  0.89554835417E+01  0.57943882052E+02  0.41800000000E+01 0.  1.
        -11    1    3    3    0    0 -0.13066909334E+02  0.62990498050E+02  0.53070502495E+02  0.83396793699E+02  0.00000000000E+00 0.  1.
         11    1    3    3    0    0 -0.93226925156E+02  0.52477948373E+02  0.69588231123E+01  0.10720830126E+03  0.00000000000E+00 0. -1.
</event>
<event>
 8    1  0.5900800E-006  0.1071083E+03  0.7561462E-02  0.1266021E+00
         -1   -1    0    0    0  501 -0.00000000000E+00  0.00000000000E+00  0.73255051198E+02  0.73255051198E+02  0.00000000000E+00 0.  1.
          1   -1    0    0  501    0  0.00000000000E+00 -0.00000000000E+00 -0.18287615203E+03  0.18287615203E+03  0.00000000000E+00 0. -1.
         23    2    1    2    0    0  0.40495298665E+02 -0.22976260087E+02 -0.46850383271E+02  0.10863866707E+03  0.86253254011E+02 0.  0.
         23    2    1    2    0    0 -0.40495298665E+02  0.22976260087E+02 -0.62770717560E+02  0.14749253616E+03  0.12508440150E+03 0.  0.
          5    1    4    4  502    0 -0.16882226024E+02 -0.49584109532E+02 -0.44647638520E+02  0.68952719301E+02  0.41800000000E+01 0.  1.
         -5    1    4    4    0  502 -0.23613072641E+02  0.72560369619E+02 -0.18123079040E+02  0.78539816861E+02  0.41800000000E+01 0.  1.
        -11    1    3    3    0    0 -0.20858151370E+01 -0.39515196343E+02  0.45990176867E+01  0.39836570266E+02  0.00000000000E+00 0.  1.
         11    1    3    3    0    0  0.42581113802E+02  0.16538936256E+02 -0.51449400958E+02  0.68802096800E+02  0.00000000000E+00 0. -1.
</event>
<event>
 8    1  0.5900800E-006  0.9926190E+02  0.7561462E-02  0.1281856E+00
          1   -1    0    0  501    0  0.00000000000E+00  0.00000000000E+00  0.63535331209E+03  0.63535331209E+03  0.00000000000E+00 0. -1.
         -1   -1    0    0    0  501 -0.00000000000E+00 -0.00000000000E+00 -0.95375822940E+02  0.95375822940E+02  0.00000000000E+00 0.  1.
         23    2    1    2    0    0 -0.12982014686E+02 -0.43411253672E+02 -0.57540891318E+02  0.11857791968E+03  0.93256094770E+02 0.  0.
         23    2    1    2    0    0  0.12982014686E+02  0.43411253672E+02  0.59751838046E+03  0.61215121534E+03  0.12509126989E+03 0.  0.
          5    1    4    4  502    0  0.44074835475E+02 -0.18548723367E+02  0.39814198914E+03  0.40102513908E+03  0.41800000000E+01 0.  1.
         -5    1    4    4    0  502 -0.31092820789E+02  0.61959977040E+02  0.19937639132E+03  0.21112607626E+03  0.41800000000E+01 0.  1.
        -11    1    3    3    0    0 -0.37274506766E+02 -0.42822910026E+02 -0.70914803987E+02  0.90841069469E+02  0.00000000000E+00 0.  1.
         11    1    3    3    0    0  0.24292492080E+02 -0.58834364603E+00  0.13373912669E+02  0.27736850213E+02  0.00000000000E+00 0. -1.
</event>
<event>
 8    1  0.5900800E-006  0.2083332E+03  0.7561462E-02  0.1142893E+00
         -2   -1    0    0    0  501 -0.00000000000E+00  0.00000000000E+00  0.36696711839E+02  0.36696711839E+02  0.00000000000E+00 0.  1.
          2   -1    0    0  501    0  0.00000000000E+00 -0.00000000000E+00 -0.12613033496E+04  0.12613033496E+04  0.00000000000E+00 0. -1.
         23    2    1    2    0    0  0.16691440183E+03  0.78812463198E+02 -0.56750838833E+03  0.60409957155E+03  0.93801383948E+02 0.  0.
         23    2    1    2    0    0 -0.16691440183E+03 -0.78812463198E+02 -0.65709824942E+03  0.69390048988E+03  0.12509180055E+03 0.  0.
          5    1    4    4  502    0 -0.81162995430E+02 -0.93514520070E+02 -0.49050981892E+03  0.50591476767E+03  0.41800000000E+01 0. -1.
         -5    1    4    4    0  502 -0.85751406401E+02  0.14702056872E+02 -0.16658843050E+03  0.18798572220E+03  0.41800000000E+01 0. -1.
        -11    1    3    3    0    0  0.10884905216E+03  0.13471098992E+01 -0.33494721159E+03  0.35219251186E+03  0.00000000000E+00 0.  1.
         11    1    3    3    0    0  0.58065349674E+02  0.77465353299E+02 -0.23256117674E+03  0.25190705969E+03  0.00000000000E+00 0. -1.
</event>
<event>
 8    1  0.5900800E-006  0.1767702E+03  0.7561462E-02  0.1170966E+00
          1   -1    0    0  501    0  0.00000000000E+00  0.00000000000E+00  0.13511542027E+04  0.13511542027E+04  0.00000000000E+00 0. -1.
         -1   -1    0    0    0  501 -0.00000000000E+00 -0.00000000000E+00 -0.27145041136E+02  0.27145041136E+02  0.00000000000E+00 0.  1.
         23    2    1    2    0    0  0.80450039361E+02  0.11644374508E+03  0.37265196089E+03  0.40837185032E+03  0.88694585958E+02 0.  0.
         23    2    1    2    0    0 -0.80450039361E+02 -0.11644374508E+03  0.95135720071E+03  0.96992739355E+03  0.12508905154E+03 0.  0.
          5    1    4    4  502    0 -0.11649543483E+01  0.24478288034E+02  0.18686640781E+03  0.18851278597E+03  0.41800000000E+01 0. -1.
         -5    1    4    4    0  502 -0.79285085013E+02 -0.14092203311E+03  0.76449079290E+03  0.78141460758E+03  0.41800000000E+01 0. -1.
        -11    1    3    3    0    0  0.99933649732E+02  0.93791823194E+02  0.30052525888E+03  0.33030148602E+03  0.00000000000E+00 0. -1.
         11    1    3    3    0    0 -0.19483610370E+02  0.22651921886E+02  0.72126702014E+02  0.78070364298E+02  0.00000000000E+00 0.  1.
</event>
<event>
 8    1  0.5900800E-006  0.9885682E+02  0.7561462E-02  0.1282718E+00
         -2   -1    0    0    0  501 -0.00000000000E+00  0.00000000000E+00  0.10434316607E+02  0.10434316607E+02  0.00000000000E+00 0. -1.
          2   -1    0    0  501    0  0.00000000000E+00 -0.00000000000E+00 -0.13758156134E+04  0.13758156134E+04  0.00000000000E+00 0.  1.
         23    2    1    2    0    0 -0.64427272887E+01 -0.10639797024E+02 -0.34253545393E+03  0.35570878260E+03  0.95097249178E+02 0.  0.
         23    2    1    2    0    0  0.64427272887E+01  0.10639797024E+02 -0.10228458429E+04  0.10305411474E+04  0.12508686673E+03 0.  0.
          5    1    4    4  502    0 -0.49798527701E+01 -0.44963184140E+02 -0.77127411359E+03  0.77261097427E+03  0.41800000000E+01 0.  1.
         -5    1    4    4    0  502  0.11422580059E+02  0.55602981164E+02 -0.25157172929E+03  0.25793017317E+03  0.41800000000E+01 0.  1.
        -11    1    3    3    0    0 -0.41863084182E+02  0.21918731801E+02 -0.18863162053E+03  0.19446037356E+03  0.00000000000E+00 0.  1.
         11    1    3    3    0    0  0.35420356894E+02 -0.32558528825E+02 -0.15390383341E+03  0.16124840904E+03  0.00000000000E+00 0. -1.
</event>
<event>
 8    1  0.5900800E-006  0.1224541E+03  0.7561462E-02  0.1239103E+00
         -2   -1    0    0    0  501 -0.00000000000E+00  0.00000000000E+00  0.12755246115E+02  0.12755246115E+02  0.00000000000E+00 0.  1.
          2   -1    0    0  501    0  0.00000000000E+00 -0.00000000000E+00 -0.18255911126E+04  0.18255911126E+04  0.00000000000E+00 0. -1.
         23    2    1    2    0    0  0.18834361566E+02 -0.81341552139E+02 -0.41920337635E+03  0.43662359849E+03  0.89092731083E+02 0.  0.
         23    2    1    2    0    0 -0.18834361566E+02  0.81341552139E+02 -0.13936324901E+04  0.14017227602E+04  0.12507596774E+03 0.  0.
          5    1    4    4  502    0  0.28837447550E+02  0.86017388078E+02 -0.62219512223E+03  0.62878838408E+03  0.41800000000E+01 0.  1.
         -5    1    4    4    0  502 -0.47671809116E+02 -0.46758359385E+01 -0.77143736791E+03  0.77293437615E+03  0.41800000000E+01 0.  1.
        -11    1    3    3    0    0 -0.24559739915E+02 -0.28056598576E+02 -0.58074015076E+02  0.69014091136E+02  0.00000000000E+00 0.  1.
         11    1    3    3    0    0  0.43394101482E+02 -0.53284953563E+02 -0.36112936128E+03  0.36760950735E+03  0.00000000000E+00 0. -1.
</event>
<event>
 8    1  0.5900800E-006  0.1234875E+03  0.7561462E-02  0.1237452E+00
          2   -1    0    0  501    0  0.00000000000E+00  0.00000000000E+00  0.29479522089E+03  0.29479522089E+03  0.00000000000E+00 0. -1.
         -2   -1    0    0    0  501 -0.00000000000E+00 -0.00000000000E+00 -0.62945670439E+02  0.62945670439E+02  0.00000000000E+00 0.  1.
         23    2    1    2    0    0  0.10626343434E+01 -0.88366527487E+02  0.69825377168E+02  0.13478290769E+03  0.74034292974E+02 0.  0.
         23    2    1    2    0    0 -0.10626343434E+01  0.88366527487E+02  0.16202417328E+03  0.22295798364E+03  0.12509459369E+03 0.  0.
          5    1    4    4  502    0 -0.58498371337E+02  0.66767398392E+02  0.74384461509E+02  0.11588988502E+03  0.41800000000E+01 0.  1.
         -5    1    4    4    0  502  0.57435736994E+02  0.21599129095E+02  0.87639711775E+02  0.10706809862E+03  0.41800000000E+01 0.  1.
        -11    1    3    3    0    0  0.20003199464E+02 -0.42153626913E+02 -0.26856689324E+01  0.46736164459E+02  0.00000000000E+00 0.  1.
         11    1    3    3    0    0 -0.18940565121E+02 -0.46212900573E+02  0.72511046101E+02  0.88046743228E+02  0.00000000000E+00 0. -1.
</event>
<event>
 8    1  0.5900800E-006  0.9818378E+02  0.7561462E-02  0.1284162E+00
          1   -1    0    0  501    0  0.00000000000E+00  0.00000000000E+00  0.63822199121E+02  0.63822199121E+02  0.00000000000E+00 0. -1.
         -1   -1    0    0    0  501 -0.00000000000E+00 -0.00000000000E+00 -0.24998472645E+03  0.24998472645E+03  0.00000000000E+00 0.  1.
         23    2    1    2    0    0 -0.59192834000E+02  0.25412461032E+02 -0.93432852372E+02  0.14529569620E+03  0.90727926573E+02 0.  0.
         23    2    1    2    0    0  0.59192834000E+02 -0.25412461032E+02 -0.92729674961E+02  0.16851122937E+03  0.12509059530E+03 0.  0.
          5    1    4    4  502    0  0.30389951606E+02 -0.58392410509E+02 -0.10395542067E+03  0.12311549314E+03  0.41800000000E+01 0.  1.
         -5    1    4    4    0  502  0.28802882394E+02  0.32979949476E+02  0.11225745709E+02  0.45395736236E+02  0.41800000000E+01 0.  1.
        -11    1    3    3    0    0 -0.69872094338E+02  0.28258197946E+02 -0.30348644566E+02  0.81250695661E+02  0.00000000000E+00 0. -1.
         11    1    3    3    0    0  0.10679260339E+02 -0.28457369133E+01 -0.63084207806E+02  0.64045000542E+02  0.00000000000E+00 0.  1.
</event>
<event>
 8    1  0.5900800E-006  0.1338928E+03  0.7561462E-02  0.1221791E+00
         -1   -1    0    0    0  501 -0.00000000000E+00  0.00000000000E+00  0.20987121840E+02  0.20987121840E+02  0.00000000000E+00 0.  1.
          1   -1    0    0  501    0  0.00000000000E+00 -0.00000000000E+00 -0.89827389919E+03  0.89827389919E+03  0.00000000000E+00 0. -1.
         23    2    1    2    0    0 -0.45368305721E+02 -0.69904492235E+02 -0.41508540963E+03  0.43323372944E+03  0.91927394391E+02 0.  0.
         23    2    1    2    0    0  0.45368305721E+02  0.69904492235E+02 -0.46220136772E+03  0.48602729159E+03  0.12508997821E+03 0.  0.
          5    1    4    4  502    0  0.28655980481E+02 -0.31071024366E+02 -0.83032280660E+02  0.93265244353E+02  0.41800000000E+01 0.  1.
         -5    1    4    4    0  502  0.16712325240E+02  0.10097551660E+03 -0.37916908706E+03  0.39276204723E+03  0.41800000000E+01 0.  1.
        -11    1    3    3    0    0  0.23745907033E+02 -0.42189307988E+02 -0.13498307287E+03  0.14340235623E+03  0.00000000000E+00 0.  1.
         11    1    3    3    0    0 -0.69114212754E+02 -0.27715184247E+02 -0.28010233676E+03  0.28983137321E+03  0.00000000000E+00 0. -1.
</event>
<event>
 8    1  0.5900800E-006  0.1555901E+03  0.7561462E-02  0.1193767E+00
         -1   -1    0    0    0  501 -0.00000000000E+00  0.00000000000E+00  0.12109259201E+03  0.12109259201E+03  0.00000000000E+00 0.  1.
          1   -1    0    0  501    0  0.00000000000E+00 -0.00000000000E+00 -0.27100238553E+03  0.27100238553E+03  0.00000000000E+00 0. -1.
         23    2    1    2    0    0 -0.55044404759E+02 -0.12956471690E+03 -0.28225396516E+02  0.17276485140E+03  0.96094320914E+02 0.  0.
         23    2    1    2    0    0  0.55044404759E+02  0.12956471690E+03 -0.12168439700E+03  0.21933012614E+03  0.11611076349E+03 0.  0.
          5    1    4    4  502    0  0.46322529342E+02  0.83657068937E+02 -0.13947079748E+03  0.16915631131E+03  0.41800000000E+01 0. -1.
         -5    1    4    4    0  502  0.87218754177E+01  0.45907647959E+02  0.17786400482E+02  0.50173814824E+02  0.41800000000E+01 0.  1.
        -11    1    3    3    0    0  0.95575225927E+01 -0.94617673598E+02 -0.28629285547E+02  0.99315086398E+02  0.00000000000E+00 0. -1.
         11    1    3    3    0    0 -0.64601927352E+02 -0.34947043298E+02  0.40388903162E+00  0.73449765005E+02  0.00000000000E+00 0.  1.
</event>
<event>
 8    1  0.5900800E-006  0.1246267E+03  0.7561462E-02  0.1235654E+00
          2   -1    0    0  501    0  0.00000000000E+00  0.00000000000E+00  0.29473883707E+03  0.29473883707E+03  0.00000000000E+00 0. -1.
         -2   -1    0    0    0  501 -0.00000000000E+00 -0.00000000000E+00 -0.58640291557E+02  0.58640291557E+02  0.00000000000E+00 0.  1.
         23    2    1    2    0    0  0.34739295635E+02  0.63255347314E+02  0.70662556810E+02  0.13377854445E+03  0.87723682069E+02 0.  0.
         23    2    1    2    0    0 -0.34739295635E+02 -0.63255347314E+02  0.16543598870E+03  0.21960058417E+03  0.12508913856E+03 0.  0.
          5    1    4    4  502    0  0.31012780019E+02 -0.65427785500E+02  0.55141892216E+02  0.91108113344E+02  0.41800000000E+01 0.  1.
         -5    1    4    4    0  502 -0.65752075653E+02  0.21724381861E+01  0.11029409648E+03  0.12849247083E+03  0.41800000000E+01 0.  1.
        -11    1    3    3    0    0 -0.24253056013E+02 -0.80057666581E-01  0.41155285788E+01  0.24599892494E+02  0.00000000000E+00 0.  1.
         11    1    3    3    0    0  0.58992351648E+02  0.63335404981E+02  0.66547028231E+02  0.10917865196E+03  0.00000000000E+00 0. -1.
</event>
<event>
 8    1  0.5900800E-006  0.1278078E+03  0.7561462E-02  0.1230745E+00
          2   -1    0    0  501    0  0.00000000000E+00  0.00000000000E+00  0.12683245939E+04  0.12683245939E+04  0.00000000000E+00 0. -1.
         -2   -1    0    0    0  501 -0.00000000000E+00 -0.00000000000E+00 -0.19292789011E+02  0.19292789011E+02  0.00000000000E+00 0.  1.
         23    2    1    2    0    0  0.15050281753E+02 -0.98851249845E+02  0.36251294117E+03  0.38675019136E+03  0.90343773587E+02 0.  0.
         23    2    1    2    0    0 -0.15050281753E+02  0.98851249845E+02  0.88651886370E+03  0.90086719153E+03  0.12509164842E+03 0.  0.
          5    1    4    4  502    0 -0.50149386506E+02  0.10188461981E+03  0.78808080253E+03  0.79623128577E+03  0.41800000000E+01 0.  1.
         -5    1    4    4    0  502  0.35099104753E+02 -0.30333699600E+01  0.98438061165E+02  0.10463590576E+03  0.41800000000E+01 0.  1.
        -11    1    3    3    0    0  0.23513784856E+02 -0.35446582063E+02  0.41504541530E+02  0.59430507535E+02  0.00000000000E+00 0.  1.
         11    1    3    3    0    0 -0.84635031034E+01 -0.63404667782E+02  0.32100839964E+03  0.32731968382E+03  0.00000000000E+00 0. -1.
</event>
<event>
 8    1  0.5900800E-006  0.2375795E+03  0.7561462E-02  0.1121416E+00
         -1   -1    0    0    0  501 -0.00000000000E+00  0.00000000000E+00  0.10104944148E+03  0.10104944148E+03  0.00000000000E+00 0.  1.
          1   -1    0    0  501    0  0.00000000000E+00 -0.00000000000E+00 -0.14043933244E+04  0.14043933244E+04  0.00000000000E+00 0. -1.
         23    2    1    2    0    0  0.22746174864E+03 -0.35996638969E+02 -0.99859885442E+02  0.27375733433E+03  0.10925418193E+03 0.  0.
         23    2    1    2    0    0 -0.22746174864E+03  0.35996638969E+02 -0.12034839975E+04  0.12316854316E+04  0.12506264428E+03 0.  0.
          5    1    4    4  502    0 -0.83250556485E+02 -0.19442642589E+02 -0.21880681495E+03  0.23495226361E+03  0.41800000000E+01 0. -1.
         -5    1    4    4    0  502 -0.14421119215E+03  0.55439281558E+02 -0.98467718254E+03  0.99673316795E+03  0.41800000000E+01 0. -1.
        -11    1    3    3    0    0  0.17369239789E+03 -0.47400048060E+02 -0.26337413045E+02  0.18196008619E+03  0.00000000000E+00 0.  1.
         11    1    3    3    0    0  0.53769350746E+02  0.11403409091E+02 -0.73522472397E+02  0.91797248139E+02  0.00000000000E+00 0. -1.
</event>
<event>
 8    1  0.5900800E-006  0.9716886E+02  0.7561462E-02  0.1286365E+00
         -2   -1    0    0    0  501 -0.00000000000E+00  0.00000000000E+00  0.22823223604E+03  0.22823223604E+03  0.00000000000E+00 0.  1.
          2   -1    0    0  501    0  0.00000000000E+00 -0.00000000000E+00 -0.11680488768E+03  0.11680488768E+03  0.00000000000E+00 0. -1.
         23    2    1    2    0    0  0.35574912271E+02 -0.26531217339E+02  0.16638496401E+03  0.20138098267E+03  0.10440720308E+03 0.  0.
         23    2    1    2    0    0 -0.35574912271E+02  0.26531217339E+02 -0.54957615649E+02  0.14365614105E+03  0.12508903815E+03 0.  0.
          5    1    4    4  502    0 -0.79844457839E+02  0.21967047845E+02 -0.16180777606E+02  0.84480640401E+02  0.41800000000E+01 0. -1.
         -5    1    4    4    0  502  0.44269545568E+02  0.45641694940E+01 -0.38776838043E+02  0.59175500645E+02  0.41800000000E+01 0. -1.
        -11    1    3    3    0    0  0.41542366094E+01 -0.34140336934E+02  0.16550448494E+03  0.16904009827E+03  0.00000000000E+00 0.  1.
         11    1    3    3    0    0  0.31420675662E+02  0.76091195950E+01  0.88047907004E+00  0.32340884395E+02  0.00000000000E+00 0. -1.
</event>
<event>
 8    1  0.5900800E-006  0.1251419E+03  0.7561462E-02  0.1234848E+00
          1   -1    0    0  501    0  0.00000000000E+00  0.00000000000E+00  0.66059495897E+02  0.66059495897E+02  0.00000000000E+00 0. -1.
         -1   -1    0    0    0  501 -0.00000000000E+00 -0.00000000000E+00 -0.25247269232E+03  0.25247269232E+03  0.00000000000E+00 0.  1.
         23    2    1    2    0    0 -0.61071323041E+02 -0.18419712768E+02 -0.10503653054E+03  0.15623811843E+03  0.96481524581E+02 0.  0.
         23    2    1    2    0    0  0.61071323041E+02  0.18419712768E+02 -0.81376665878E+02  0.16229406979E+03  0.12509280963E+03 0.  0.
          5    1    4    4  502    0 -0.30019396084E+02 -0.19558104637E+02 -0.29963502797E+01  0.36195774798E+02  0.41800000000E+01 0. -1.
         -5    1    4    4    0  502  0.91090719125E+02  0.37977817405E+02 -0.78380315598E+02  0.12609829499E+03  0.41800000000E+01 0. -1.
        -11    1    3    3    0    0 -0.77181597993E+02  0.14731348211E+02 -0.66842931121E+02  0.10316001711E+03  0.00000000000E+00 0. -1.
         11    1    3    3    0    0  0.16110274953E+02 -0.33151060979E+02 -0.38193599421E+02  0.53078101321E+02  0.00000000000E+00 0.  1.
</event>
<event>
 8    1  0.5900800E-006  0.1317202E+03  0.7561462E-02  0.1224925E+00
          1   -1    0    0  501    0  0.00000000000E+00  0.00000000000E+00  0.55900532780E+02  0.55900532780E+02  0.00000000000E+00 0. -1.
         -1   -1    0    0    0  501 -0.00000000000E+00 -0.00000000000E+00 -0.37731565170E+03  0.37731565170E+03  0.00000000000E+00 0.  1.
         23    2    1    2    0    0  0.71974288807E+02 -0.12768383153E+02 -0.23797112877E+03  0.26598167104E+03  0.93662486310E+02 0.  0.
         23    2    1    2    0    0 -0.71974288807E+02  0.12768383153E+02 -0.83443990143E+02  0.16723451344E+03  0.12514452899E+03 0.  0.
          5    1    4    4  502    0 -0.26269991340E+02  0.67933558309E+02 -0.46597484011E+02  0.86567191855E+02  0.41800000000E+01 0.  1.
         -5    1    4    4    0  502 -0.45704297467E+02 -0.55165175155E+02 -0.36846506132E+02  0.80667321581E+02  0.41800000000E+01 0.  1.
        -11    1    3    3    0    0  0.72471523302E+02 -0.45772644424E+02 -0.16718318280E+03  0.18787621797E+03  0.00000000000E+00 0. -1.
         11    1    3    3    0    0 -0.49723449530E+00  0.33004261271E+02 -0.70787945977E+02  0.78105453074E+02  0.00000000000E+00 0.  1.
</event>
<event>
 8    1  0.5900800E-006  0.1212737E+03  0.7561462E-02  0.1241011E+00
         -3   -1    0    0    0  501 -0.00000000000E+00  0.00000000000E+00  0.49490874950E+03  0.49490874950E+03  0.00000000000E+00 0.  1.
          3   -1    0    0  501    0  0.00000000000E+00 -0.00000000000E+00 -0.45841067040E+02  0.45841067040E+02  0.00000000000E+00 0. -1.
         23    2    1    2    0    0 -0.56922989221E+02  0.12563546558E+02  0.36145247113E+03  0.37728169484E+03  0.91079739613E+02 0.  0.
         23    2    1    2    0    0  0.56922989221E+02 -0.12563546558E+02  0.87615211330E+02  0.16346812170E+03  0.12508929672E+03 0.  0.
          5    1    4    4  502    0  0.89962560770E+02  0.18335241595E+02  0.66056568230E+02  0.11318297589E+03  0.41800000000E+01 0. -1.
         -5    1    4    4    0  502 -0.33039571549E+02 -0.30898788153E+02  0.21558643099E+02  0.50285145816E+02  0.41800000000E+01 0. -1.
        -11    1    3    3    0    0 -0.41153808920E+02 -0.35672672381E+02  0.23032482882E+03  0.23667636619E+03  0.00000000000E+00 0.  1.
         11    1    3    3    0    0 -0.15769180301E+02  0.48236218939E+02  0.13112764231E+03  0.14060532865E+03  0.00000000000E+00 0. -1.
</event>
<event>
 8    1  0.5900800E-006  0.1377360E+03  0.7561462E-02  0.1216408E+00
         -2   -1    0    0    0  501 -0.00000000000E+00  0.00000000000E+00  0.24151024425E+02  0.24151024425E+02  0.00000000000E+00 0. -1.
          2   -1    0    0  501    0  0.00000000000E+00 -0.00000000000E+00 -0.13071309091E+04  0.13071309091E+04  0.00000000000E+00 0.  1.
         23    2    1    2    0    0 -0.12276887918E+03 -0.79764599213E+00 -0.35478622979E+03  0.38668488172E+03  0.92623404017E+02 0.  0.
         23    2    1    2    0    0  0.12276887918E+03  0.79764599213E+00 -0.92819365485E+03  0.94459705177E+03  0.12508914968E+03 0.  0.
          5    1    4    4  502    0  0.55349692789E+02  0.21832155152E+02 -0.12725861321E+03  0.14054344000E+03  0.41800000000E+01 0. -1.
         -5    1    4    4    0  502  0.67419186388E+02 -0.21034509160E+02 -0.80093504164E+03  0.80405361177E+03  0.41800000000E+01 0. -1.
        -11    1    3    3    0    0 -0.23727021606E+02  0.32808928699E+02 -0.49327571596E+02  0.63816977963E+02  0.00000000000E+00 0.  1.
         11    1    3    3    0    0 -0.99041857572E+02 -0.33606574692E+02 -0.30545865819E+03  0.32286790376E+03  0.00000000000E+00 0. -1.
</event>
<event>
 8    1  0.5900800E-006  0.1110574E+03  0.7561462E-02  0.1258624E+00
          1   -1    0    0  501    0  0.00000000000E+00  0.00000000000E+00  0.17547036978E+03  0.17547036978E+03  0.00000000000E+00 0. -1.
         -1   -1    0    0    0  501 -0.00000000000E+00 -0.00000000000E+00 -0.11677789712E+03  0.11677789712E+03  0.00000000000E+00 0.  1.
         23    2    1    2    0    0 -0.30582648567E+02 -0.32495099748E+02 -0.56317437234E+02  0.11656189243E+03  0.91781213384E+02 0.  0.
         23    2    1    2    0    0  0.30582648567E+02  0.32495099748E+02  0.11500990989E+03  0.17568637446E+03  0.12508874009E+03 0.  0.
          5    1    4    4  502    0 -0.38755638580E+02  0.40789381449E+02  0.78792266098E+02  0.96909580319E+02  0.41800000000E+01 0. -1.
         -5    1    4    4    0  502  0.69338287147E+02 -0.82942817006E+01  0.36217643797E+02  0.78776794144E+02  0.41800000000E+01 0. -1.
        -11    1    3    3    0    0 -0.37957666156E+02  0.19877655484E+02 -0.45647814118E+02  0.62606936846E+02  0.00000000000E+00 0.  1.
         11    1    3    3    0    0  0.73750175893E+01 -0.52372755232E+02 -0.10669623116E+02  0.53954955588E+02  0.00000000000E+00 0. -1.
</event>
<event>
 8    1  0.5900800E-006  0.1431045E+03  0.7561462E-02  0.1209212E+00
          1   -1    0    0  501    0  0.00000000000E+00  0.00000000000E+00  0.44565733861E+02  0.44565733861E+02  0.00000000000E+00 0. -1.
         -1   -1    0    0    0  501 -0.00000000000E+00 -0.00000000000E+00 -0.56307789450E+03  0.56307789450E+03  0.00000000000E+00 0.  1.
         23    2    1    2    0    0 -0.44895674544E+02 -0.11265202284E+03 -0.26813587199E+03  0.30806983185E+03  0.91126700823E+02 0.  0.
         23    2    1    2    0    0  0.44895674544E+02  0.11265202284E+03 -0.25037628864E+03  0.29957379651E+03  0.11113088588E+03 0.  0.
          5    1    4    4  502    0 -0.91426974995E+01  0.76387109702E+02 -0.57976856873E+02  0.96422859214E+02  0.41800000000E+01 0. -1.
         -5    1    4    4    0  502  0.54038372044E+02  0.36264913140E+02 -0.19239943177E+03  0.20315093730E+03  0.41800000000E+01 0.  1.
        -11    1    3    3    0    0 -0.59847371068E+02 -0.11418659370E+03 -0.26167673852E+03  0.29171047545E+03  0.00000000000E+00 0.  1.
         11    1    3    3    0    0  0.14951696523E+02  0.15345708603E+01 -0.64591334789E+01  0.16359356404E+02  0.00000000000E+00 0. -1.
</event>
<event>
 8    1  0.5900800E-006  0.3346528E+03  0.7561462E-02  0.1069097E+00
          2   -1    0    0  501    0  0.00000000000E+00  0.00000000000E+00  0.91557584120E+03  0.91557584120E+03  0.00000000000E+00 0. -1.
         -2   -1    0    0    0  501 -0.00000000000E+00 -0.00000000000E+00 -0.23158810715E+03  0.23158810715E+03  0.00000000000E+00 0.  1.
         23    2    1    2    0    0 -0.47446636816E+02  0.31944300206E+03 -0.47081682949E+02  0.33821100526E+03  0.88741108299E+02 0.  0.
         23    2    1    2    0    0  0.47446636816E+02 -0.31944300206E+03  0.73106941699E+03  0.80895294309E+03  0.12508939507E+03 0.  0.
          5    1    4    4  502    0  0.59928405927E+02 -0.54807807221E+02  0.16616725769E+03  0.18499821485E+03  0.41800000000E+01 0. -1.
         -5    1    4    4    0  502 -0.12481769110E+02 -0.26463519484E+03  0.56490215930E+03  0.62395472824E+03  0.41800000000E+01 0. -1.
        -11    1    3    3    0    0 -0.15769605684E+02  0.12970247989E+03  0.24543295452E+02  0.13294279636E+03  0.00000000000E+00 0.  1.
         11    1    3    3    0    0 -0.31677031132E+02  0.18974052217E+03 -0.71624978401E+02  0.20526820890E+03  0.00000000000E+00 0. -1.
</event>
<event>
 8    1  0.5900800E-006  0.2090182E+03  0.7561462E-02  0.1142346E+00
         -2   -1    0    0    0  501 -0.00000000000E+00  0.00000000000E+00  0.55135303007E+02  0.55135303007E+02  0.00000000000E+00 0.  1.
          2   -1    0    0  501    0  0.00000000000E+00 -0.00000000000E+00 -0.97585209654E+03  0.97585209654E+03  0.00000000000E+00 0. -1.
         23    2    1    2    0    0 -0.15305663584E+02 -0.18563476343E+03 -0.26015246288E+03  0.33335319406E+03  0.93544210500E+02 0.  0.
         23    2    1    2    0    0  0.15305663584E+02  0.18563476343E+03 -0.66056433065E+03  0.69763420548E+03  0.12511483124E+03 0.  0.
          5    1    4    4  502    0  0.30542721897E+02 -0.61945290339E+01 -0.10930770713E+03  0.11374039427E+03  0.41800000000E+01 0.  1.
         -5    1    4    4    0  502 -0.15237058313E+02  0.19182929246E+03 -0.55125662352E+03  0.58389381121E+03  0.41800000000E+01 0.  1.
        -11    1    3    3    0    0  0.18216235070E+02 -0.10837351083E+03 -0.20525044618E+03  0.23281837283E+03  0.00000000000E+00 0.  1.
         11    1    3    3    0    0 -0.33521898654E+02 -0.77261252599E+02 -0.54902016696E+02  0.10053482123E+03  0.00000000000E+00 0. -1.
</event>
<event>
 8    1  0.5900800E-006  0.1250812E+03  0.7561462E-02  0.1234942E+00
         -3   -1    0    0    0  501 -0.00000000000E+00  0.00000000000E+00  0.15419189385E+03  0.15419189385E+03  0.00000000000E+00 0.  1.
          3   -1    0    0  501    0  0.00000000000E+00 -0.00000000000E+00 -0.16886895268E+03  0.16886895268E+03  0.00000000000E+00 0. -1.
         23    2    1    2    0    0  0.10033910029E+03  0.16291131993E+02  0.58662650134E+02  0.14799206456E+03  0.90149923033E+02 0.  0.
         23    2    1    2    0    0 -0.10033910029E+03 -0.16291131993E+02 -0.73339708966E+02  0.17506878198E+03  0.12221714071E+03 0.  0.
          5    1    4    4  502    0 -0.77975739797E+02  0.27027645134E+02  0.49121454481E+01  0.82778687905E+02  0.41800000000E+01 0. -1.
         -5    1    4    4    0  502 -0.22363360493E+02 -0.43318777127E+02 -0.78251854414E+02  0.92290094071E+02  0.41800000000E+01 0. -1.
        -11    1    3    3    0    0  0.21294120133E+02  0.31581503983E+02 -0.12960209035E+02  0.40234288416E+02  0.00000000000E+00 0. -1.
         11    1    3    3    0    0  0.79044980157E+02 -0.15290371991E+02  0.71622859169E+02  0.10775777614E+03  0.00000000000E+00 0.  1.
</event>
<event>
 8    1  0.5900800E-006  0.1785143E+03  0.7561462E-02  0.1169249E+00
          2   -1    0    0  501    0  0.00000000000E+00  0.00000000000E+00  0.97557146338E+03  0.97557146338E+03  0.00000000000E+00 0.  1.
         -2   -1    0    0    0  501 -0.00000000000E+00 -0.00000000000E+00 -0.88716275062E+02  0.88716275062E+02  0.00000000000E+00 0. -1.
         23    2    1    2    0    0  0.15293453976E+03  0.20682884917E+02  0.28202566075E+02  0.18295237376E+03  0.94124551255E+02 0.  0.
         23    2    1    2    0    0 -0.15293453976E+03 -0.20682884917E+02  0.85865262224E+03  0.88133536469E+03  0.12510373370E+03 0.  0.
          5    1    4    4  502    0 -0.11730074218E+03  0.23298769681E+02  0.74222058153E+03  0.75180526789E+03  0.41800000000E+01 0.  1.
         -5    1    4    4    0  502 -0.35633797576E+02 -0.43981654599E+02  0.11643204071E+03  0.12953009679E+03  0.41800000000E+01 0.  1.
        -11    1    3    3    0    0  0.65830510840E+02 -0.37588255135E+02  0.80247684283E+01  0.76229456182E+02  0.00000000000E+00 0. -1.
         11    1    3    3    0    0  0.87104028921E+02  0.58271140053E+02  0.20177797647E+02  0.10672291757E+03  0.00000000000E+00 0.  1.
</event>
<event>
 8    1  0.5900800E-006  0.1127772E+03  0.7561462E-02  0.1255512E+00
          3   -1    0    0  501    0  0.00000000000E+00  0.00000000000E+00  0.98546883626E+02  0.98546883626E+02  0.00000000000E+00 0.  1.
         -3   -1    0    0    0  501 -0.00000000000E+00 -0.00000000000E+00 -0.14101351924E+03  0.14101351924E+03  0.00000000000E+00 0. -1.
         23    2    1    2    0    0 -0.45680607691E+02 -0.71983423716E+01 -0.22334077677E+02  0.10470082227E+03  0.91240983700E+02 0.  0.
         23    2    1    2    0    0  0.45680607691E+02  0.71983423716E+01 -0.20132557935E+02  0.13485958059E+03  0.12507298884E+03 0.  0.
          5    1    4    4  502    0 -0.43318298458E+02 -0.31594328070E+01 -0.55710002575E+01  0.43988242075E+02  0.41800000000E+01 0.  1.
         -5    1    4    4    0  502  0.88998906148E+02  0.10357775179E+02 -0.14561557677E+02  0.90871338519E+02  0.41800000000E+01 0.  1.
        -11    1    3    3    0    0 -0.42753485160E+02  0.31694552135E+02 -0.34994315800E+02  0.63694640800E+02  0.00000000000E+00 0. -1.
         11    1    3    3    0    0 -0.29271225307E+01 -0.38892894506E+02  0.12660238124E+02  0.41006181470E+02  0.00000000000E+00 0.  1.
</event>
<event>
 8    1  0.5900800E-006  0.1144066E+03  0.7561462E-02  0.1252620E+00
          2   -1    0    0  501    0  0.00000000000E+00  0.00000000000E+00  0.64136532178E+02  0.64136532178E+02  0.00000000000E+00 0. -1.
         -2   -1    0    0    0  501 -0.00000000000E+00 -0.00000000000E+00 -0.27732638136E+03  0.27732638136E+03  0.00000000000E+00 0.  1.
         23    2    1    2    0    0  0.73685537699E+02  0.12737840124E+01 -0.12529757855E+03  0.17174484357E+03  0.91463802176E+02 0.  0.
         23    2    1    2    0    0 -0.73685537699E+02 -0.12737840124E+01 -0.87892270623E+02  0.16971806997E+03  0.12509193038E+03 0.  0.
          5    1    4    4  502    0 -0.55271718104E+02 -0.46008352827E+02 -0.32162769334E+01  0.72107892698E+02  0.41800000000E+01 0. -1.
         -5    1    4    4    0  502 -0.18413819595E+02  0.44734568815E+02 -0.84675993690E+02  0.97610177269E+02  0.41800000000E+01 0. -1.
        -11    1    3    3    0    0 -0.16032427778E+02  0.86194845672E+01 -0.94130504481E+00  0.18226911692E+02  0.00000000000E+00 0. -1.
         11    1    3    3    0    0  0.89717965477E+02 -0.73457005548E+01 -0.12435627351E+03  0.15351793187E+03  0.00000000000E+00 0.  1.
</event>
<event>
 8    1  0.5900800E-006  0.1258815E+03  0.7561462E-02  0.1233698E+00
         -2   -1    0    0    0  501 -0.00000000000E+00  0.00000000000E+00  0.78419044024E+02  0.78419044024E+02  0.00000000000E+00 0.  1.
          2   -1    0    0  501    0  0.00000000000E+00 -0.00000000000E+00 -0.29135658811E+03  0.29135658811E+03  0.00000000000E+00 0. -1.
         23    2    1    2    0    0 -0.60601595254E+02 -0.27810541026E+02 -0.49395491521E+01  0.11806452290E+03  0.97308030921E+02 0.  0.
         23    2    1    2    0    0  0.60601595254E+02  0.27810541026E+02 -0.20799799493E+03  0.25171110923E+03  0.12509731043E+03 0.  0.
          5    1    4    4  502    0  0.96690253889E+02  0.13835144038E+02 -0.17596590618E+03  0.20130049415E+03  0.41800000000E+01 0. -1.
         -5    1    4    4    0  502 -0.36088658635E+02  0.13975396989E+02 -0.32032088749E+02  0.50410615079E+02  0.41800000000E+01 0. -1.
        -11    1    3    3    0    0 -0.33183599999E+02 -0.62556155515E+02  0.96370795230E+01  0.71465356666E+02  0.00000000000E+00 0.  1.
         11    1    3    3    0    0 -0.27417995255E+02  0.34745614488E+02 -0.14576628675E+02  0.46599166232E+02  0.00000000000E+00 0. -1.
</event>
<event>
 8    1  0.5900800E-006  0.8778657E+02  0.7561462E-02  0.1308302E+00
         -1   -1    0    0    0  501 -0.00000000000E+00  0.00000000000E+00  0.29945868884E+03  0.29945868884E+03  0.00000000000E+00 0.  1.
          1   -1    0    0  501    0  0.00000000000E+00 -0.00000000000E+00 -0.47771424344E+02  0.47771424344E+02  0.00000000000E+00 0. -1.
         23    2    1    2    0    0  0.27030976824E+02  0.28548428944E+02  0.18731653672E+03  0.21172000201E+03  0.90510705552E+02 0.  0.
         23    2    1    2    0    0 -0.27030976824E+02 -0.28548428944E+02  0.64370727782E+02  0.13551011118E+03  0.11257758717E+03 0.  0.
          5    1    4    4  502    0  0.21315739026E+02  0.41861366244E+01 -0.21982944881E+02  0.31186643547E+02  0.41800000000E+01 0. -1.
         -5    1    4    4    0  502 -0.48346715850E+02 -0.32734565568E+02  0.86353672664E+02  0.10432346763E+03  0.41800000000E+01 0.  1.
        -11    1    3    3    0    0  0.46770475575E+02 -0.13317809201E+02  0.12475006101E+03  0.13389331257E+03  0.00000000000E+00 0.  1.
         11    1    3    3    0    0 -0.19739498751E+02  0.41866238145E+02  0.62566475702E+02  0.77826689440E+02  0.00000000000E+00 0. -1.
</event>
<event>
 8    1  0.5900800E-006  0.5358251E+02  0.7561462E-02  0.1426924E+00
         -1   -1    0    0    0  501 -0.00000000000E+00  0.00000000000E+00  0.38463648290E+02  0.38463648290E+02  0.00000000000E+00 0.  1.
          1   -1    0    0  501    0  0.00000000000E+00 -0.00000000000E+00 -0.29282002623E+03  0.29282002623E+03  0.00000000000E+00 0. -1.
         23    2    1    2    0    0  0.16441643859E+02 -0.14018610037E+02 -0.81037529482E+02  0.11645048151E+03  0.80788516388E+02 0.  0.
         23    2    1    2    0    0 -0.16441643859E+02  0.14018610037E+02 -0.17331884846E+03  0.21483319301E+03  0.12508808299E+03 0.  0.
          5    1    4    4  502    0 -0.11045731479E+02  0.26717633619E+02 -0.19031621413E+03  0.19254499187E+03  0.41800000000E+01 0.  1.
         -5    1    4    4    0  502 -0.53959123803E+01 -0.12699023582E+02  0.16997365674E+02  0.22288201143E+02  0.41800000000E+01 0.  1.
        -11    1    3    3    0    0 -0.22148602329E+02  0.88985887673E+00  0.33974255479E+01  0.22425319046E+02  0.00000000000E+00 0.  1.
         11    1    3    3    0    0  0.38590246188E+02 -0.14908468914E+02 -0.84434955030E+02  0.94025162468E+02  0.00000000000E+00 0. -1.
</event>
<event>
 8    1  0.5900800E-006  0.2929641E+03  0.7561462E-02  0.1088812E+00
          2   -1    0    0  501    0  0.00000000000E+00  0.00000000000E+00  0.53401472194E+03  0.53401472194E+03  0.00000000000E+00 0. -1.
         -2   -1    0    0    0  501 -0.00000000000E+00 -0.00000000000E+00 -0.20122039883E+03  0.20122039883E+03  0.00000000000E+00 0.  1.
         23    2    1    2    0    0 -0.22240984880E+03  0.16799604254E+03  0.13681552156E+02  0.29344940451E+03  0.90755479111E+02 0.  0.
         23    2    1    2    0    0  0.22240984880E+03 -0.16799604254E+03  0.31911277095E+03  0.44178571626E+03  0.12511133984E+03 0.  0.
          5    1    4    4  502    0  0.19949236123E+03 -0.10430314725E+03  0.29205458273E+03  0.36876781369E+03  0.41800000000E+01 0.  1.
         -5    1    4    4    0  502  0.22917487560E+02 -0.63692895289E+02  0.27058188221E+02  0.73017902573E+02  0.41800000000E+01 0.  1.
        -11    1    3    3    0    0 -0.13788554993E+03  0.47637488090E+02  0.17529003065E+01  0.14589320687E+03  0.00000000000E+00 0.  1.
         11    1    3    3    0    0 -0.84524298868E+02  0.12035855445E+03  0.11928651850E+02  0.14755619765E+03  0.00000000000E+00 0. -1.
</event>
<event>
 8    1  0.5900800E-006  0.1137627E+03  0.7561462E-02  0.1253756E+00
         -1   -1    0    0    0  501 -0.00000000000E+00  0.00000000000E+00  0.34020212763E+03  0.34020212763E+03  0.00000000000E+00 0.  1.
          1   -1    0    0  501    0  0.00000000000E+00 -0.00000000000E+00 -0.39999183239E+02  0.39999183239E+02  0.00000000000E+00 0. -1.
         23    2    1    2    0    0  0.33248900429E+00  0.39396520644E+02  0.16750210961E+03  0.19362800189E+03  0.88784289174E+02 0.  0.
         23    2    1    2    0    0 -0.33248900429E+00 -0.39396520644E+02  0.13270083478E+03  0.18657330898E+03  0.12509153322E+03 0.  0.
          5    1    4    4  502    0 -0.14823703806E+02  0.43526880030E+02  0.56340391493E+02  0.72842594636E+02  0.41800000000E+01 0.  1.
         -5    1    4    4    0  502  0.14491214801E+02 -0.82923400674E+02  0.76360443284E+02  0.11373071434E+03  0.41800000000E+01 0.  1.
        -11    1    3    3    0    0  0.43652066495E+02  0.10193455106E+02  0.80835819957E+02  0.92432890382E+02  0.00000000000E+00 0. -1.
         11    1    3    3    0    0 -0.43319577491E+02  0.29203065538E+02  0.86666289653E+02  0.10119511151E+03  0.00000000000E+00 0.  1.
</event>
<event>
 8    1  0.5900800E-006  0.1910787E+03  0.7561462E-02  0.1157492E+00
          2   -1    0    0  501    0  0.00000000000E+00  0.00000000000E+00  0.15384240065E+04  0.15384240065E+04  0.00000000000E+00 0. -1.
         -2   -1    0    0    0  501 -0.00000000000E+00 -0.00000000000E+00 -0.29923019219E+02  0.29923019219E+02  0.00000000000E+00 0.  1.
         23    2    1    2    0    0  0.87337644792E+02  0.15021994408E+03  0.48283170552E+03  0.52056882595E+03  0.87587390098E+02 0.  0.
         23    2    1    2    0    0 -0.87337644792E+02 -0.15021994408E+03  0.10256692818E+04  0.10477781998E+04  0.12509110500E+03 0.  0.
          5    1    4    4  502    0 -0.35617714880E+02 -0.60914069432E+01  0.46925220169E+03  0.47065999198E+03  0.41800000000E+01 0. -1.
         -5    1    4    4    0  502 -0.51719929912E+02 -0.14412853714E+03  0.55641708007E+03  0.57711820779E+03  0.41800000000E+01 0. -1.
        -11    1    3    3    0    0  0.10097087618E+03  0.10630485256E+03  0.39678922599E+03  0.42301008189E+03  0.00000000000E+00 0.  1.
         11    1    3    3    0    0 -0.13633231385E+02  0.43915091519E+02  0.86042479528E+02  0.97558744069E+02  0.00000000000E+00 0. -1.
</event>
<event>
 8    1  0.5900800E-006  0.1024540E+03  0.7561462E-02  0.1275219E+00
         -1   -1    0    0    0  501 -0.00000000000E+00  0.00000000000E+00  0.35499040783E+02  0.35499040783E+02  0.00000000000E+00 0.  1.
          1   -1    0    0  501    0  0.00000000000E+00 -0.00000000000E+00 -0.40736332289E+03  0.40736332289E+03  0.00000000000E+00 0. -1.
         23    2    1    2    0    0 -0.42191587270E+02  0.29031936397E+02 -0.17404104303E+03  0.20326829798E+03  0.91677330555E+02 0.  0.
         23    2    1    2    0    0  0.42191587270E+02 -0.29031936397E+02 -0.19782323908E+03  0.23959406570E+03  0.12509316140E+03 0.  0.
          5    1    4    4  502    0 -0.10302384526E+02 -0.64267797955E+02 -0.63268170131E+02  0.90867060768E+02  0.41800000000E+01 0. -1.
         -5    1    4    4    0  502  0.52493971796E+02  0.35235861558E+02 -0.13455506895E+03  0.14872700493E+03  0.41800000000E+01 0. -1.
        -11    1    3    3    0    0 -0.37254322944E+02 -0.87114897905E+01 -0.15694386022E+03  0.16153993281E+03  0.00000000000E+00 0. -1.
         11    1    3    3    0    0 -0.49372643257E+01  0.37743426188E+02 -0.17097182807E+02  0.41728365165E+02  0.00000000000E+00 0.  1.
</event>
<event>
 7    1  0.5900800E-006  0.1077392E+03  0.7561462E-02  0.1264815E+00
         -1   -1    0    0    0  501 -0.00000000000E+00  0.00000000000E+00  0.44677190968E+02  0.44677190968E+02  0.00000000000E+00 0.  1.
          1   -1    0    0  501    0  0.00000000000E+00 -0.00000000000E+00 -0.39846962323E+03  0.39846962323E+03  0.00000000000E+00 0. -1.
         23    2    1    2    0    0 -0.26295195916E+02  0.64997281018E+01 -0.41952149443E+02  0.10365480262E+03  0.90833096773E+02 0.  0.
          5    1    1    2  502    0  0.71784536025E+01  0.61886106506E+02 -0.16228519485E+03  0.17388322876E+03  0.41800000000E+01 0. -1.
         -5    1    1    2    0  502  0.19116742313E+02 -0.68385834607E+02 -0.14955508796E+03  0.16560878282E+03  0.41800000000E+01 0.  1.
        -11    1    3    3    0    0  0.26357915993E+02 -0.75378785087E+01  0.91985016284E+01  0.28916635006E+02  0.00000000000E+00 0.  1.
         11    1    3    3    0    0 -0.52653111908E+02  0.14037606610E+02 -0.51150651071E+02  0.74738167612E+02  0.00000000000E+00 0. -1.
</event>
<event>
 7    1  0.5900800E-006  0.8210980E+02  0.7561462E-02  0.1323169E+00
          1   -1    0    0  501    0  0.00000000000E+00  0.00000000000E+00  0.59611571554E+02  0.59611571554E+02  0.00000000000E+00 0. -1.
         -1   -1    0    0    0  501 -0.00000000000E+00 -0.00000000000E+00 -0.13718202331E+03  0.13718202331E+03  0.00000000000E+00 0.  1.
         23    2    1    2    0    0  0.13389804533E+02  0.15245596474E+02 -0.24269158076E+02  0.12901387884E+03  0.12507547251E+03 0.  0.
          5    1    3    3  502    0 -0.39830095869E+02 -0.33431334569E+02  0.18269816641E+01  0.52200583617E+02  0.41800000000E+01 0.  1.
         -5    1    3    3    0  502  0.53219900402E+02  0.48676931042E+02 -0.26096139740E+02  0.76813295228E+02  0.41800000000E+01 0.  1.
        -11    1    1    2    0    0 -0.13330858801E+02  0.86625947251E+01 -0.32116347980E+02  0.35835905895E+02  0.00000000000E+00 0.  1.
         11    1    1    2    0    0 -0.58945731809E-01 -0.23908191199E+02 -0.21184945703E+02  0.31943810127E+02  0.00000000000E+00 0. -1.
</event>
<event>
 8    1  0.5900800E-006  0.1286783E+03  0.7561462E-02  0.1229430E+00
         -1   -1    0    0    0  501 -0.00000000000E+00  0.00000000000E+00  0.15304177672E+03  0.15304177672E+03  0.00000000000E+00 0.  1.
          1   -1    0    0  501    0  0.00000000000E+00 -0.00000000000E+00 -0.21931840324E+03  0.21931840324E+03  0.00000000000E+00 0. -1.
         23    2    1    2    0    0 -0.37744097607E+02  0.71177847529E+02  0.88096994594E+02  0.15795579005E+03  0.10343136986E+03 0.  0.
         23    2    1    2    0    0  0.37744097607E+02 -0.71177847529E+02 -0.15437362111E+03  0.21440438991E+03  0.12508846723E+03 0.  0.
          5    1    4    4  502    0  0.14709206261E+02 -0.99991430519E+02 -0.72334412570E+02  0.12435588674E+03  0.41800000000E+01 0.  1.
         -5    1    4    4    0  502  0.23034891346E+02  0.28813582991E+02 -0.82039208544E+02  0.90048503167E+02  0.41800000000E+01 0.  1.
        -11    1    3    3    0    0 -0.60153125256E+02  0.75211852078E+02  0.93847671184E+02  0.13447158271E+03  0.00000000000E+00 0.  1.
         11    1    3    3    0    0  0.22409027649E+02 -0.40340045496E+01 -0.57506765901E+01  0.23484207334E+02  0.00000000000E+00 0. -1.
</event>
<event>
 7    1  0.5900800E-006  0.1490972E+03  0.7561462E-02  0.1201587E+00
         -1   -1    0    0    0  501 -0.00000000000E+00  0.00000000000E+00  0.54511880393E+03  0.54511880393E+03  0.00000000000E+00 0.  1.
          1   -1    0    0  501    0  0.00000000000E+00 -0.00000000000E+00 -0.41973521402E+02  0.41973521402E+02  0.00000000000E+00 0. -1.
         23    2    1    2    0    0 -0.55241343499E+02  0.21241083667E+02  0.21697903215E+03  0.24372341680E+03  0.93906409975E+02 0.  0.
          5    1    1    2  502    0  0.64652665442E+02  0.71397851909E+02  0.15221072388E+03  0.18017546245E+03  0.41800000000E+01 0. -1.
         -5    1    1    2    0  502 -0.94113219427E+01 -0.92638935577E+02  0.13395552649E+03  0.16319344608E+03  0.41800000000E+01 0.  1.
        -11    1    3    3    0    0  0.23590851669E+02  0.18002463810E+02  0.84147126086E+02  0.89226430021E+02  0.00000000000E+00 0. -1.
         11    1    3    3    0    0 -0.78832195169E+02  0.32386198577E+01  0.13283190607E+03  0.15449698678E+03  0.00000000000E+00 0.  1.
</event>
<event>
 8    1  0.5900800E-006  0.1475783E+03  0.7561462E-02  0.1203481E+00
         -4   -1    0    0    0  501 -0.00000000000E+00  0.00000000000E+00  0.50704003848E+03  0.50704003848E+03  0.00000000000E+00 0.  1.
          4   -1    0    0  501    0  0.00000000000E+00 -0.00000000000E+00 -0.58017508679E+02  0.58017508679E+02  0.00000000000E+00 0. -1.
         23    2    1    2    0    0  0.11518743577E+03  0.15597613843E+02  0.31517217035E+03  0.34808856060E+03  0.91217970470E+02 0.  0.
         23    2    1    2    0    0 -0.11518743577E+03 -0.15597613843E+02  0.13385035945E+03  0.21696898656E+03  0.12509273156E+03 0.  0.
          5    1    4    4  502    0 -0.13434856355E+03  0.13931710211E+02  0.10999210741E+03  0.17423939041E+03  0.41800000000E+01 0.  1.
         -5    1    4    4    0  502  0.19161127782E+02 -0.29529324055E+02  0.23858252044E+02  0.42729596155E+02  0.41800000000E+01 0.  1.
        -11    1    3    3    0    0  0.32858282169E+02  0.25581174494E+02  0.21032267913E+03  0.21440543965E+03  0.00000000000E+00 0.  1.
         11    1    3    3    0    0  0.82329153603E+02 -0.99835606501E+01  0.10484949122E+03  0.13368312095E+03  0.00000000000E+00 0. -1.
</event>
<event>
 8    1  0.5900800E-006  0.8645977E+02  0.7561462E-02  0.1311659E+00
          2   -1    0    0  501    0  0.00000000000E+00  0.00000000000E+00  0.13438513253E+03  0.13438513253E+03  0.00000000000E+00 0. -1.
         -2   -1    0    0    0  501 -0.00000000000E+00 -0.00000000000E+00 -0.89009267241E+02  0.89009267241E+02  0.00000000000E+00 0.  1.
         23    2    1    2    0    0  0.12823646169E+02 -0.21831442097E+02  0.13174003112E+02  0.91778512031E+02  0.87227765921E+02 0.  0.
         23    2    1    2    0    0 -0.12823646169E+02  0.21831442097E+02  0.32201862175E+02  0.13161588774E+03  0.12507887197E+03 0.  0.
          5    1    4    4  502    0  0.37845315153E+01  0.64057147249E+02  0.51248781740E+02  0.82228649644E+02  0.41800000000E+01 0. -1.
         -5    1    4    4    0  502 -0.16608177684E+02 -0.42225705153E+02 -0.19046919564E+02  0.49387238094E+02  0.41800000000E+01 0. -1.
        -11    1    3    3    0    0  0.27750718373E+00 -0.40529763976E+02  0.39870251408E+02  0.56853986012E+02  0.00000000000E+00 0. -1.
         11    1    3    3    0    0  0.12546138985E+02  0.18698321879E+02 -0.26696248296E+02  0.34924526018E+02  0.00000000000E+00 0.  1.
</event>
<event>
 8    1  0.5900800E-006  0.1289789E+03  0.7561462E-02  0.1228979E+00
         -2   -1    0    0    0  501 -0.00000000000E+00  0.00000000000E+00  0.25599105993E+02  0.25599105993E+02  0.00000000000E+00 0.  1.
          2   -1    0    0  501    0  0.00000000000E+00 -0.00000000000E+00 -0.68718992483E+03  0.68718992483E+03  0.00000000000E+00 0. -1.
         23    2    1    2    0    0 -0.47456060593E+02  0.52455012644E+02 -0.22066922141E+03  0.24903957122E+03  0.91226074774E+02 0.  0.
         23    2    1    2    0    0  0.47456060593E+02 -0.52455012644E+02 -0.44092159743E+03  0.46374945960E+03  0.12509236653E+03 0.  0.
          5    1    4    4  502    0 -0.35424646007E+02 -0.47764756238E+02 -0.15805461645E+03  0.16892338993E+03  0.41800000000E+01 0. -1.
         -5    1    4    4    0  502  0.82880706600E+02 -0.46902564059E+01 -0.28286698097E+03  0.29482606967E+03  0.41800000000E+01 0. -1.
        -11    1    3    3    0    0  0.51525491446E+01  0.61610646863E+02 -0.12590293053E+03  0.14026392439E+03  0.00000000000E+00 0.  1.
         11    1    3    3    0    0 -0.52608609738E+02 -0.91556342185E+01 -0.94766290878E+02  0.10877564683E+03  0.00000000000E+00 0. -1.
</event>
<event>
 8    1  0.5900800E-006  0.1117194E+03  0.7561462E-02  0.1257419E+00
         -2   -1    0    0    0  501 -0.00000000000E+00  0.00000000000E+00  0.79845382703E+01  0.79845382703E+01  0.00000000000E+00 0. -1.
          2   -1    0    0  501    0  0.00000000000E+00 -0.00000000000E+00 -0.20351098958E+04  0.20351098958E+04  0.00000000000E+00 0.  1.
         23    2    1    2    0    0  0.52352163084E+02  0.21658368769E+02 -0.58811828433E+03  0.59755008718E+03  0.89292532741E+02 0.  0.
         23    2    1    2    0    0 -0.52352163084E+02 -0.21658368769E+02 -0.14390070731E+04  0.14455443468E+04  0.12508904109E+03 0.  0.
          5    1    4    4  502    0 -0.77700150406E+02  0.82760634010E+01 -0.53661052122E+03  0.54228602276E+03  0.41800000000E+01 0.  1.
         -5    1    4    4    0  502  0.25347987322E+02 -0.29934432170E+02 -0.90239655193E+03  0.90325832409E+03  0.41800000000E+01 0.  1.
        -11    1    3    3    0    0  0.21670769565E+01 -0.32114373867E+02 -0.18267101328E+03  0.18548511618E+03  0.00000000000E+00 0.  1.
         11    1    3    3    0    0  0.50185086128E+02  0.53772742636E+02 -0.40544727105E+03  0.41206497100E+03  0.00000000000E+00 0. -1.
</event>
<event>
 8    1  0.5900800E-006  0.1183113E+03  0.7561462E-02  0.1245909E+00
          1   -1    0    0  501    0  0.00000000000E+00  0.00000000000E+00  0.15383165246E+03  0.15383165246E+03  0.00000000000E+00 0. -1.
         -1   -1    0    0    0  501 -0.00000000000E+00 -0.00000000000E+00 -0.12213934945E+03  0.12213934945E+03  0.00000000000E+00 0.  1.
         23    2    1    2    0    0 -0.63339398931E+02 -0.69247751140E+02  0.99457442556E+01  0.11809089959E+03  0.70988817732E+02 0.  0.
         23    2    1    2    0    0  0.63339398931E+02  0.69247751140E+02  0.21746558755E+02  0.15788010232E+03  0.12508430515E+03 0.  0.
          5    1    4    4  502    0  0.90958946914E+02  0.59521981067E+02 -0.15968813583E+02  0.10994940501E+03  0.41800000000E+01 0.  1.
         -5    1    4    4    0  502 -0.27619547983E+02  0.97257700722E+01  0.37715372339E+02  0.47930697313E+02  0.41800000000E+01 0.  1.
        -11    1    3    3    0    0 -0.21648909101E+02 -0.45235660657E+02 -0.27436499770E+02  0.57163815303E+02  0.00000000000E+00 0. -1.
         11    1    3    3    0    0 -0.41690489830E+02 -0.24012090483E+02  0.37382244026E+02  0.60927084290E+02  0.00000000000E+00 0.  1.
</event>
<event>
 8    1  0.5900800E-006  0.1437020E+03  0.7561462E-02  0.1208433E+00
          1   -1    0    0  501    0  0.00000000000E+00  0.00000000000E+00  0.64324437961E+02  0.64324437961E+02  0.00000000000E+00 0. -1.
         -1   -1    0    0    0  501 -0.00000000000E+00 -0.00000000000E+00 -0.40426620623E+03  0.40426620623E+03  0.00000000000E+00 0.  1.
         23    2    1    2    0    0  0.10274448281E+03 -0.38131763780E+02 -0.22662927747E+03  0.26734734177E+03  0.90018395833E+02 0.  0.
         23    2    1    2    0    0 -0.10274448281E+03  0.38131763780E+02 -0.11331249080E+03  0.20124330242E+03  0.12509470828E+03 0.  0.
          5    1    4    4  502    0  0.12934477142E+02  0.30435348614E+02 -0.69783324383E+02  0.77335605682E+02  0.41800000000E+01 0. -1.
         -5    1    4    4    0  502 -0.11567895995E+03  0.76964151660E+01 -0.43529166419E+02  0.12390769674E+03  0.41800000000E+01 0. -1.
        -11    1    3    3    0    0  0.29502204890E+02  0.27041466110E+02 -0.96094751093E+02  0.10409525527E+03  0.00000000000E+00 0.  1.
         11    1    3    3    0    0  0.73242277922E+02 -0.65173229890E+02 -0.13053452638E+03  0.16325208650E+03  0.00000000000E+00 0. -1.
</event>
<event>
 8    1  0.5900800E-006  0.7528189E+02  0.7561462E-02  0.1343000E+00
         -2   -1    0    0    0  501 -0.00000000000E+00  0.00000000000E+00  0.20151267910E+03  0.20151267910E+03  0.00000000000E+00 0.  1.
          2   -1    0    0  501    0  0.00000000000E+00 -0.00000000000E+00 -0.84761076381E+02  0.84761076381E+02  0.00000000000E+00 0. -1.
         23    2    1    2    0    0 -0.52732446091E+02  0.21125494924E+02  0.10204863182E+03  0.14810730323E+03  0.91076081416E+02 0.  0.
         23    2    1    2    0    0  0.52732446091E+02 -0.21125494924E+02  0.14702970894E+02  0.13816645225E+03  0.12508714470E+03 0.  0.
          5    1    4    4  502    0  0.35499392119E+02 -0.45137146542E+02  0.60488595896E+02  0.83509948344E+02  0.41800000000E+01 0. -1.
         -5    1    4    4    0  502  0.17233053971E+02  0.24011651618E+02 -0.45785625002E+02  0.54656503908E+02  0.41800000000E+01 0. -1.
        -11    1    3    3    0    0 -0.41130597154E+02  0.25155890502E+01 -0.25001664483E+01  0.41283229559E+02  0.00000000000E+00 0. -1.
         11    1    3    3    0    0 -0.11601848937E+02  0.18609905874E+02  0.10454879827E+03  0.10682407367E+03  0.00000000000E+00 0.  1.
</event>
<event>
 8    1  0.5900800E-006  0.1308181E+03  0.7561462E-02  0.1226247E+00
         -1   -1    0    0    0  501 -0.00000000000E+00  0.00000000000E+00  0.72466055986E+02  0.72466055986E+02  0.00000000000E+00 0.  1.
          1   -1    0    0  501    0  0.00000000000E+00 -0.00000000000E+00 -0.29481831765E+03  0.29481831765E+03  0.00000000000E+00 0. -1.
         23    2    1    2    0    0 -0.67448413420E+02 -0.67224938671E+02 -0.74745901027E+02  0.15163397344E+03  0.91309535804E+02 0.  0.
         23    2    1    2    0    0  0.67448413420E+02  0.67224938671E+02 -0.14760636064E+03  0.21565040019E+03  0.12509586944E+03 0.  0.
          5    1    4    4  502    0  0.82238870834E+02  0.24150664990E+02 -0.32448698195E+02  0.91743538792E+02  0.41800000000E+01 0. -1.
         -5    1    4    4    0  502 -0.14790457415E+02  0.43074273681E+02 -0.11515766244E+03  0.12390686140E+03  0.41800000000E+01 0. -1.
        -11    1    3    3    0    0 -0.55955503858E+02 -0.89195032833E+02 -0.69863369115E+02  0.12636321711E+03  0.00000000000E+00 0.  1.
         11    1    3    3    0    0 -0.11492909561E+02  0.21970094162E+02 -0.48825319117E+01  0.25270756331E+02  0.00000000000E+00 0. -1.
</event>
<event>
 8    1  0.5900800E-006  0.1453118E+03  0.7561462E-02  0.1206355E+00
          1   -1    0    0  501    0  0.00000000000E+00  0.00000000000E+00  0.74422097463E+03  0.74422097463E+03  0.00000000000E+00 0. -1.
         -1   -1    0    0    0  501 -0.00000000000E+00 -0.00000000000E+00 -0.30989720171E+02  0.30989720171E+02  0.00000000000E+00 0.  1.
         23    2    1    2    0    0 -0.13897220676E+02  0.10109487051E+03  0.22803335260E+03  0.26386223412E+03  0.84916212289E+02 0.  0.
         23    2    1    2    0    0  0.13897220676E+02 -0.10109487051E+03  0.48519790186E+03  0.51134846068E+03  0.12508772397E+03 0.  0.
          5    1    4    4  502    0  0.66781962250E+02 -0.43013199277E+02  0.19305451259E+03  0.20880010303E+03  0.41800000000E+01 0.  1.
         -5    1    4    4    0  502 -0.52884741574E+02 -0.58081671235E+02  0.29214338927E+03  0.30254835766E+03  0.41800000000E+01 0.  1.
        -11    1    3    3    0    0 -0.49659170828E+02  0.61911583686E+02  0.14580303863E+03  0.16600482979E+03  0.00000000000E+00 0.  1.
         11    1    3    3    0    0  0.35761950151E+02  0.39183286826E+02  0.82230313971E+02  0.97857404323E+02  0.00000000000E+00 0. -1.
</event>
<event>
 8    1  0.5900800E-006  0.1065481E+03  0.7561462E-02  0.1267099E+00
          1   -1    0    0  501    0  0.00000000000E+00  0.00000000000E+00  0.52208803758E+03  0.52208803758E+03  0.00000000000E+00 0. -1.
         -1   -1    0    0    0  501 -0.00000000000E+00 -0.00000000000E+00 -0.26638846647E+02  0.26638846647E+02  0.00000000000E+00 0.  1.
         23    2    1    2    0    0 -0.18862020935E+02  0.37033592402E+02  0.21559655936E+03  0.23938829902E+03  0.95381436865E+02 0.  0.
         23    2    1    2    0    0  0.18862020935E+02 -0.37033592402E+02  0.27985263157E+03  0.30933858521E+03  0.12508238126E+03 0.  0.
          5    1    4    4  502    0  0.60547034579E+02 -0.48958276082E+02  0.23140105928E+03  0.24418595133E+03  0.41800000000E+01 0. -1.
         -5    1    4    4    0  502 -0.41685013643E+02  0.11924683681E+02  0.48451572292E+02  0.65152633875E+02  0.41800000000E+01 0. -1.
        -11    1    3    3    0    0 -0.49950328039E+02  0.33787069320E+02  0.18886615819E+03  0.19825999858E+03  0.00000000000E+00 0.  1.
         11    1    3    3    0    0  0.31088307104E+02  0.32465230813E+01  0.26730401169E+02  0.41128300443E+02  0.00000000000E+00 0. -1.
</event>
<event>
 8    1  0.5900800E-006  0.1753861E+03  0.7561462E-02  0.1172345E+00
         -2   -1    0    0    0  501 -0.00000000000E+00  0.00000000000E+00  0.20399255164E+02  0.20399255164E+02  0.00000000000E+00 0.  1.
          2   -1    0    0  501    0  0.00000000000E+00 -0.00000000000E+00 -0.15634788701E+04  0.15634788701E+04  0.00000000000E+00 0. -1.
         23    2    1    2    0    0  0.74437552634E+02  0.12014952814E+03 -0.72855236648E+03  0.74776846556E+03  0.91609328296E+02 0.  0.
         23    2    1    2    0    0 -0.74437552634E+02 -0.12014952814E+03 -0.81452724849E+03  0.83610965974E+03  0.12509143142E+03 0.  0.
          5    1    4    4  502    0 -0.72301002383E+02 -0.14231577611E+03 -0.61864032783E+03  0.63891669464E+03  0.41800000000E+01 0.  1.
         -5    1    4    4    0  502 -0.21365502518E+01  0.22166247970E+02 -0.19588692066E+03  0.19719296510E+03  0.41800000000E+01 0.  1.
        -11    1    3    3    0    0 -0.14380947008E+02  0.58679548453E+02 -0.26093445635E+03  0.26783743494E+03  0.00000000000E+00 0. -1.
         11    1    3    3    0    0  0.88818499643E+02  0.61469979689E+02 -0.46761791013E+03  0.47993103062E+03  0.00000000000E+00 0.  1.
</event>
<event>
 8    1  0.5900800E-006  0.1074218E+03  0.7561462E-02  0.1265420E+00
         -1   -1    0    0    0  501 -0.00000000000E+00  0.00000000000E+00  0.87091869944E+02  0.87091869944E+02  0.00000000000E+00 0.  1.
          1   -1    0    0  501    0  0.00000000000E+00 -0.00000000000E+00 -0.18271389999E+03  0.18271389999E+03  0.00000000000E+00 0. -1.
         23    2    1    2    0    0  0.31548660455E+02 -0.46372604592E+01  0.23286094432E+02  0.99732912079E+02  0.91583783482E+02 0.  0.
         23    2    1    2    0    0 -0.31548660455E+02  0.46372604592E+01 -0.11890812447E+03  0.17007285785E+03  0.11734058441E+03 0.  0.
          5    1    4    4  502    0  0.16226136689E+01  0.58196705720E+02 -0.53875269767E+02  0.79432402231E+02  0.41800000000E+01 0. -1.
         -5    1    4    4    0  502 -0.33171274124E+02 -0.53559445261E+02 -0.65032854707E+02  0.90640455620E+02  0.41800000000E+01 0.  1.
        -11    1    3    3    0    0 -0.30835503023E+02 -0.12985844687E+01  0.20785277913E+02  0.37209438940E+02  0.00000000000E+00 0.  1.
         11    1    3    3    0    0  0.62384163478E+02 -0.33386759905E+01  0.25008165192E+01  0.62523473139E+02  0.00000000000E+00 0. -1.
</event>
<event>
 8    1  0.5900800E-006  0.9297628E+02  0.7561462E-02  0.1295800E+00
         -2   -1    0    0    0  501 -0.00000000000E+00  0.00000000000E+00  0.18898802765E+02  0.18898802765E+02  0.00000000000E+00 0. -1.
          2   -1    0    0  501    0  0.00000000000E+00 -0.00000000000E+00 -0.66507023657E+03  0.66507023657E+03  0.00000000000E+00 0.  1.
         23    2    1    2    0    0  0.73659892878E+00 -0.13626604024E+02 -0.25255826946E+03  0.27073402951E+03  0.96566082789E+02 0.  0.
         23    2    1    2    0    0 -0.73659892878E+00  0.13626604024E+02 -0.39361316434E+03  0.41323500983E+03  0.12508246594E+03 0.  0.
          5    1    4    4  502    0  0.54466665312E+01 -0.36808150390E+02 -0.35786142132E+02  0.51794077655E+02  0.41800000000E+01 0.  1.
         -5    1    4    4    0  502 -0.61832654600E+01  0.50434754414E+02 -0.35782702221E+03  0.36144093217E+03  0.41800000000E+01 0.  1.
        -11    1    3    3    0    0 -0.46694399321E+02 -0.17662261687E+02 -0.12919381920E+03  0.13850402642E+03  0.00000000000E+00 0.  1.
         11    1    3    3    0    0  0.47430998250E+02  0.40356576621E+01 -0.12336445026E+03  0.13223000309E+03  0.00000000000E+00 0. -1.
</event>
<event>
 8    1  0.5900800E-006  0.1181845E+03  0.7561462E-02  0.1246123E+00
          2   -1    0    0  501    0  0.00000000000E+00  0.00000000000E+00  0.79201681311E+03  0.79201681311E+03  0.00000000000E+00 0. -1.
         -2   -1    0    0    0  501 -0.00000000000E+00 -0.00000000000E+00 -0.25945753146E+02  0.25945753146E+02  0.00000000000E+00 0.  1.
         23    2    1    2    0    0 -0.39246717357E+02  0.82063025923E+02  0.41353900376E+03  0.43299585730E+03  0.90533197036E+02 0.  0.
         23    2    1    2    0    0  0.39246717357E+02 -0.82063025923E+02  0.35253205621E+03  0.38496670896E+03  0.12508345735E+03 0.  0.
          5    1    4    4  502    0  0.60546445134E+02 -0.89151746573E+02  0.17213396285E+03  0.20312921873E+03  0.41800000000E+01 0. -1.
         -5    1    4    4    0  502 -0.21299727776E+02  0.70887206505E+01  0.18039809336E+03  0.18183749023E+03  0.41800000000E+01 0. -1.
        -11    1    3    3    0    0  0.11518440025E+02  0.33531597195E+02  0.42399629522E+02  0.55269983306E+02  0.00000000000E+00 0.  1.
         11    1    3    3    0    0 -0.50765157383E+02  0.48531428728E+02  0.37113937424E+03  0.37772587400E+03  0.00000000000E+00 0. -1.
</event>
<event>
 8    1  0.5900800E-006  0.4124768E+03  0.7561462E-02  0.1039543E+00
         -1   -1    0    0    0  501 -0.00000000000E+00  0.00000000000E+00  0.43611908097E+03  0.43611908097E+03  0.00000000000E+00 0. -1.
          1   -1    0    0  501    0  0.00000000000E+00 -0.00000000000E+00 -0.42762251378E+03  0.42762251378E+03  0.00000000000E+00 0.  1.
         23    2    1    2    0    0 -0.38834520850E+03  0.90421705105E+02  0.12965501345E+03  0.42863626386E+03  0.89053570754E+02 0.  0.
         23    2    1    2    0    0  0.38834520850E+03 -0.90421705105E+02 -0.12115844626E+03  0.43510533089E+03  0.12509673915E+03 0.  0.
          5    1    4    4  502    0  0.32142395389E+03 -0.12027855051E+03 -0.86575849779E+02  0.35396770758E+03  0.41800000000E+01 0. -1.
         -5    1    4    4    0  502  0.66921254614E+02  0.29856845403E+02 -0.34582596483E+02  0.81137623308E+02  0.41800000000E+01 0. -1.
        -11    1    3    3    0    0 -0.15275659509E+03 -0.81169697851E+01  0.55373873266E+02  0.16268598091E+03  0.00000000000E+00 0.  1.
         11    1    3    3    0    0 -0.23558861341E+03  0.98538674890E+02  0.74281140182E+02  0.26595028295E+03  0.00000000000E+00 0. -1.
</event>
<event>
 8    1  0.5900800E-006  0.1173676E+03  0.7561462E-02  0.1247504E+00
          4   -1    0    0  501    0  0.00000000000E+00  0.00000000000E+00  0.34126839152E+03  0.34126839152E+03  0.00000000000E+00 0. -1.
         -4   -1    0    0    0  501 -0.00000000000E+00 -0.00000000000E+00 -0.56443547550E+02  0.56443547550E+02  0.00000000000E+00 0.  1.
         23    2    1    2    0    0 -0.72206695888E+02 -0.17612633769E+02  0.69044919794E+02  0.13745785285E+03  0.92754776493E+02 0.  0.
         23    2    1    2    0    0  0.72206695888E+02  0.17612633769E+02  0.21577992418E+03  0.26025408622E+03  0.12508877614E+03 0.  0.
          5    1    4    4  502    0  0.58215266935E+01  0.60518137299E+02  0.12975908838E+03  0.14335699681E+03  0.41800000000E+01 0.  1.
         -5    1    4    4    0  502  0.66385169195E+02 -0.42905503530E+02  0.86020835792E+02  0.11689708941E+03  0.41800000000E+01 0.  1.
        -11    1    3    3    0    0 -0.28592962694E+02 -0.37125874075E+02 -0.72686859979E+01  0.47420689974E+02  0.00000000000E+00 0.  1.
         11    1    3    3    0    0 -0.43613733194E+02  0.19513240306E+02  0.76313605792E+02  0.90037162879E+02  0.00000000000E+00 0. -1.
</event>
<event>
 8    1  0.5900800E-006  0.1082257E+03  0.7561462E-02  0.1263891E+00
         -3   -1    0    0    0  501 -0.00000000000E+00  0.00000000000E+00  0.10798014935E+03  0.10798014935E+03  0.00000000000E+00 0.  1.
          3   -1    0    0  501    0  0.00000000000E+00 -0.00000000000E+00 -0.21123471596E+03  0.21123471596E+03  0.00000000000E+00 0. -1.
         23    2    1    2    0    0 -0.23186553052E+02  0.34751967580E+02  0.54001616288E+02  0.11398292503E+03  0.91272214521E+02 0.  0.
         23    2    1    2    0    0  0.23186553052E+02 -0.34751967580E+02 -0.15725618290E+03  0.20523194028E+03  0.12508128060E+03 0.  0.
          5    1    4    4  502    0  0.63851014214E+02 -0.42645941623E+02 -0.54185235813E+02  0.94069870485E+02  0.41800000000E+01 0.  1.
         -5    1    4    4    0  502 -0.40664461161E+02  0.78939740422E+01 -0.10307094708E+03  0.11116206979E+03  0.41800000000E+01 0.  1.
        -11    1    3    3    0    0 -0.42573789318E+02  0.55221295253E+02  0.49311496594E+02  0.85402240501E+02  0.00000000000E+00 0.  1.
         11    1    3    3    0    0  0.19387236266E+02 -0.20469327672E+02  0.46901196938E+01  0.28580684529E+02  0.00000000000E+00 0. -1.
</event>
<event>
 8    1  0.5900800E-006  0.1025873E+03  0.7561462E-02  0.1274947E+00
         -2   -1    0    0    0  501 -0.00000000000E+00  0.00000000000E+00  0.64055441722E+02  0.64055441722E+02  0.00000000000E+00 0.  1.
          2   -1    0    0  501    0  0.00000000000E+00 -0.00000000000E+00 -0.22605742626E+03  0.22605742626E+03  0.00000000000E+00 0. -1.
         23    2    1    2    0    0 -0.95270748047E+01 -0.67479321353E+01 -0.97600227996E+01  0.10084223353E+03  0.99687503106E+02 0.  0.
         23    2    1    2    0    0  0.95270748047E+01  0.67479321353E+01 -0.15224196174E+03  0.18927063445E+03  0.11184569017E+03 0.  0.
          5    1    4    4  502    0  0.27026659044E+02 -0.43546997549E+02 -0.10908945487E+03  0.12060167021E+03  0.41800000000E+01 0. -1.
         -5    1    4    4    0  502 -0.17499584240E+02  0.50294929684E+02 -0.43152506867E+02  0.68668964237E+02  0.41800000000E+01 0.  1.
        -11    1    3    3    0    0  0.81109602059E+01 -0.51551517036E+02 -0.37899919713E+01  0.52323136597E+02  0.00000000000E+00 0. -1.
         11    1    3    3    0    0 -0.17638035011E+02  0.44803584901E+02 -0.59700308284E+01  0.48519096932E+02  0.00000000000E+00 0.  1.
</event>
<event>
 8    1  0.5900800E-006  0.8741074E+02  0.7561462E-02  0.1309246E+00
          1   -1    0    0  501    0  0.00000000000E+00  0.00000000000E+00  0.79767192040E+03  0.79767192040E+03  0.00000000000E+00 0. -1.
         -1   -1    0    0    0  501 -0.00000000000E+00 -0.00000000000E+00 -0.22571860557E+02  0.22571860557E+02  0.00000000000E+00 0.  1.
         23    2    1    2    0    0  0.40532538977E+02 -0.32802839201E+02  0.17509029557E+03  0.20511883448E+03  0.93264203644E+02 0.  0.
         23    2    1    2    0    0 -0.40532538977E+02  0.32802839201E+02  0.60000976428E+03  0.61512494648E+03  0.12509224427E+03 0.  0.
          5    1    4    4  502    0  0.53202212793E+01  0.26839397902E+02  0.53234333231E+03  0.53306242964E+03  0.41800000000E+01 0.  1.
         -5    1    4    4    0  502 -0.45852760256E+02  0.59634412988E+01  0.67666431964E+02  0.82062516839E+02  0.41800000000E+01 0.  1.
        -11    1    3    3    0    0  0.14525110848E+02  0.29675596820E+02  0.28392104381E+02  0.43562959988E+02  0.00000000000E+00 0.  1.
         11    1    3    3    0    0  0.26007428129E+02 -0.62478436022E+02  0.14669819118E+03  0.16155587449E+03  0.00000000000E+00 0. -1.
</event>
<event>
 8    1  0.5900800E-006  0.1293311E+03  0.7561462E-02  0.1228452E+00
         -4   -1    0    0    0  501 -0.00000000000E+00  0.00000000000E+00  0.97886807143E+02  0.97886807143E+02  0.00000000000E+00 0.  1.
          4   -1    0    0  501    0  0.00000000000E+00 -0.00000000000E+00 -0.17661676422E+03  0.17661676422E+03  0.00000000000E+00 0. -1.
         23    2    1    2    0    0  0.65528877856E+02  0.33119495015E+02 -0.21358794945E+02  0.11852382606E+03  0.90558072187E+02 0.  0.
         23    2    1    2    0    0 -0.65528877856E+02 -0.33119495015E+02 -0.57371162127E+02  0.15597974530E+03  0.12508915188E+03 0.  0.
          5    1    4    4  502    0 -0.11106610622E+02 -0.75035856898E+02 -0.34730096367E+02  0.83530764474E+02  0.41800000000E+01 0.  1.
         -5    1    4    4    0  502 -0.54422267234E+02  0.41916361884E+02 -0.22641065760E+02  0.72448980829E+02  0.41800000000E+01 0.  1.
        -11    1    3    3    0    0 -0.16205821984E+02  0.27532561701E+02  0.52693433264E+01  0.32379570706E+02  0.00000000000E+00 0.  1.
         11    1    3    3    0    0  0.81734699841E+02  0.55869333137E+01 -0.26628138271E+02  0.86144255349E+02  0.00000000000E+00 0. -1.
</event>
<event>
 7    1  0.5900800E-006  0.1346111E+03  0.7561462E-02  0.1220770E+00
          1   -1    0    0  501    0  0.00000000000E+00  0.00000000000E+00  0.58329415029E+02  0.58329415029E+02  0.00000000000E+00 0. -1.
         -1   -1    0    0    0  501 -0.00000000000E+00 -0.00000000000E+00 -0.39354946388E+03  0.39354946388E+03  0.00000000000E+00 0.  1.
         23    2    1    2    0    0 -0.13499063345E+02  0.41293888826E+02 -0.22354192041E+03  0.24552688309E+03  0.91788072068E+02 0.  0.
          5    1    1    2  502    0  0.70196077495E+02 -0.74024508085E+02 -0.41288024278E+02  0.11013305790E+03  0.41800000000E+01 0. -1.
         -5    1    1    2    0  502 -0.56697014149E+02  0.32730619258E+02 -0.70390104160E+02  0.96218937918E+02  0.41800000000E+01 0.  1.
        -11    1    3    3    0    0  0.15289470884E+02  0.63404633064E+02 -0.14080334600E+03  0.15517569932E+03  0.00000000000E+00 0.  1.
         11    1    3    3    0    0 -0.28788534230E+02 -0.22110744237E+02 -0.82738574413E+02  0.90351183776E+02  0.00000000000E+00 0. -1.
</event>
<event>
 8    1  0.5900800E-006  0.9356691E+02  0.7561462E-02  0.1294437E+00
         -1   -1    0    0    0  501 -0.00000000000E+00  0.00000000000E+00  0.10397278425E+03  0.10397278425E+03  0.00000000000E+00 0.  1.
          1   -1    0    0  501    0  0.00000000000E+00 -0.00000000000E+00 -0.14275879659E+03  0.14275879659E+03  0.00000000000E+00 0. -1.
         23    2    1    2    0    0  0.43183564827E+02  0.28036459094E+02  0.30417051534E+01  0.10513988023E+03  0.91620298706E+02 0.  0.
         23    2    1    2    0    0 -0.43183564827E+02 -0.28036459094E+02 -0.41827717489E+02  0.14159170061E+03  0.12509112048E+03 0.  0.
          5    1    4    4  502    0  0.36812748023E+02  0.17728585775E+02 -0.24181737775E+02  0.47662459152E+02  0.41800000000E+01 0. -1.
         -5    1    4    4    0  502 -0.79996312850E+02 -0.45765044869E+02 -0.17645979713E+02  0.93929241461E+02  0.41800000000E+01 0. -1.
        -11    1    3    3    0    0  0.12002742202E+02  0.16828652850E+02 -0.43411006712E+02  0.48081024125E+02  0.00000000000E+00 0. -1.
         11    1    3    3    0    0  0.31180822625E+02  0.11207806244E+02  0.46452711866E+02  0.57058856106E+02  0.00000000000E+00 0.  1.
</event>
<event>
 8    1  0.5900800E-006  0.1009145E+03  0.7561462E-02  0.1278385E+00
          1   -1    0    0  501    0  0.00000000000E+00  0.00000000000E+00  0.28139042695E+02  0.28139042695E+02  0.00000000000E+00 0. -1.
         -1   -1    0    0    0  501 -0.00000000000E+00 -0.00000000000E+00 -0.54992455319E+03  0.54992455319E+03  0.00000000000E+00 0.  1.
         23    2    1    2    0    0  0.22683154061E+02 -0.30034348275E+02 -0.34345940516E+03  0.35701116874E+03  0.89866701590E+02 0.  0.
         23    2    1    2    0    0 -0.22683154061E+02  0.30034348275E+02 -0.17832610534E+03  0.22105242715E+03  0.12508952055E+03 0.  0.
          5    1    4    4  502    0  0.12013886655E+02  0.62010065327E+02 -0.40096555485E+02  0.74931887980E+02  0.41800000000E+01 0. -1.
         -5    1    4    4    0  502 -0.34697040716E+02 -0.31975717051E+02 -0.13822954985E+03  0.14612053917E+03  0.41800000000E+01 0. -1.
        -11    1    3    3    0    0  0.52009327798E+02 -0.43768391838E+01 -0.25596716793E+03  0.26123422050E+03  0.00000000000E+00 0. -1.
         11    1    3    3    0    0 -0.29326173737E+02 -0.25657509092E+02 -0.87492237226E+02  0.95776948237E+02  0.00000000000E+00 0.  1.
</event>
<event>
 8    1  0.5900800E-006  0.8562837E+02  0.7561462E-02  0.1313797E+00
          2   -1    0    0  501    0  0.00000000000E+00  0.00000000000E+00  0.34544971474E+03  0.34544971474E+03  0.00000000000E+00 0. -1.
         -2   -1    0    0    0  501 -0.00000000000E+00 -0.00000000000E+00 -0.38126740232E+02  0.38126740232E+02  0.00000000000E+00 0.  1.
         23    2    1    2    0    0 -0.68928146967E+01  0.58201051324E+01  0.80330842748E+02  0.12424791084E+03  0.94356316874E+02 0.  0.
         23    2    1    2    0    0  0.68928146967E+01 -0.58201051324E+01  0.22699213176E+03  0.25932854413E+03  0.12507790133E+03 0.  0.
          5    1    4    4  502    0 -0.12566108632E+02 -0.37209185198E+02  0.21737965375E+03  0.22093849102E+03  0.41800000000E+01 0. -1.
         -5    1    4    4    0  502  0.19458923328E+02  0.31389080065E+02  0.96124780120E+01  0.38390053113E+02  0.41800000000E+01 0. -1.
        -11    1    3    3    0    0 -0.50575735465E+02  0.41059218213E+00  0.46888719425E+02  0.68968294260E+02  0.00000000000E+00 0. -1.
         11    1    3    3    0    0  0.43682920769E+02  0.54095129503E+01  0.33442123322E+02  0.55279616583E+02  0.00000000000E+00 0.  1.
</event>
<event>
 8    1  0.5900800E-006  0.1963108E+03  0.7561462E-02  0.1152889E+00
         -2   -1    0    0    0  501 -0.00000000000E+00  0.00000000000E+00  0.75708806042E+02  0.75708806042E+02  0.00000000000E+00 0.  1.
          2   -1    0    0  501    0  0.00000000000E+00 -0.00000000000E+00 -0.57222044063E+03  0.57222044063E+03  0.00000000000E+00 0. -1.
         23    2    1    2    0    0 -0.15360440188E+03 -0.87363633080E+02 -0.19383728350E+03  0.27579188272E+03  0.85214748961E+02 0.  0.
         23    2    1    2    0    0  0.15360440188E+03  0.87363633080E+02 -0.30267435109E+03  0.37213736395E+03  0.12509091965E+03 0.  0.
          5    1    4    4  502    0  0.52530420179E+02  0.78958826265E+02 -0.22536220021E+03  0.24453943439E+03  0.41800000000E+01 0.  1.
         -5    1    4    4    0  502  0.10107398170E+03  0.84048068154E+01 -0.77312150877E+02  0.12759792956E+03  0.41800000000E+01 0.  1.
        -11    1    3    3    0    0 -0.54961805666E+02 -0.80274546259E+02 -0.96227411273E+02  0.13683755895E+03  0.00000000000E+00 0.  1.
         11    1    3    3    0    0 -0.98642596210E+02 -0.70890868217E+01 -0.97609872224E+02  0.13895432377E+03  0.00000000000E+00 0. -1.
</event>
<event>
 8    1  0.5900800E-006  0.8693484E+02  0.7561462E-02  0.1310449E+00
          1   -1    0    0  501    0  0.00000000000E+00  0.00000000000E+00  0.19521782515E+03  0.19521782515E+03  0.00000000000E+00 0. -1.
         -1   -1    0    0    0  501 -0.00000000000E+00 -0.00000000000E+00 -0.94552465604E+02  0.94552465604E+02  0.00000000000E+00 0.  1.
         23    2    1    2    0    0 -0.61471326890E+01  0.35772165744E+02 -0.31246805574E+02  0.10439034894E+03  0.92755307183E+02 0.  0.
         23    2    1    2    0    0  0.61471326890E+01 -0.35772165744E+02  0.13191216512E+03  0.18537994182E+03  0.12508984147E+03 0.  0.
          5    1    4    4  502    0  0.34803303141E+02 -0.32716033622E+02 -0.23400806916E+01  0.48005803223E+02  0.41800000000E+01 0.  1.
         -5    1    4    4    0  502 -0.28656170452E+02 -0.30561321224E+01  0.13425224582E+03  0.13737413860E+03  0.41800000000E+01 0.  1.
        -11    1    3    3    0    0  0.28150481827E+02  0.51790682435E+02 -0.68214300603E+01  0.59340174606E+02  0.00000000000E+00 0. -1.
         11    1    3    3    0    0 -0.34297614516E+02 -0.16018516690E+02 -0.24425375514E+02  0.45050174333E+02  0.00000000000E+00 0.  1.
</event>
<event>
 8    1  0.5900800E-006  0.1266303E+03  0.7561462E-02  0.1232543E+00
          2   -1    0    0  501    0  0.00000000000E+00  0.00000000000E+00  0.96158389281E+03  0.96158389281E+03  0.00000000000E+00 0.  1.
         -2   -1    0    0    0  501 -0.00000000000E+00 -0.00000000000E+00 -0.31046875610E+02  0.31046875610E+02  0.00000000000E+00 0. -1.
         23    2    1    2    0    0 -0.88774103146E+02 -0.51467811205E+02  0.19253585778E+03  0.23710146185E+03  0.92829250258E+02 0.  0.
         23    2    1    2    0    0  0.88774103146E+02  0.51467811205E+02  0.73800115942E+03  0.75552930657E+03  0.12509614220E+03 0.  0.
          5    1    4    4  502    0  0.94993274476E+02  0.54076168025E+02  0.33411949703E+03  0.35156971547E+03  0.41800000000E+01 0.  1.
         -5    1    4    4    0  502 -0.62191713295E+01 -0.26083568200E+01  0.40388166240E+03  0.40395959110E+03  0.41800000000E+01 0.  1.
        -11    1    3    3    0    0 -0.10240051636E+03 -0.23847244075E+02  0.16574767914E+03  0.19628257676E+03  0.00000000000E+00 0.  1.
         11    1    3    3    0    0  0.13626413209E+02 -0.27620567130E+02  0.26788178641E+02  0.40818885095E+02  0.00000000000E+00 0. -1.
</event>
<event>
 8    1  0.5900800E-006  0.1977658E+03  0.7561462E-02  0.1151638E+00
          1   -1    0    0  501    0  0.00000000000E+00  0.00000000000E+00  0.69869386924E+03  0.69869386924E+03  0.00000000000E+00 0. -1.
         -1   -1    0    0    0  501 -0.00000000000E+00 -0.00000000000E+00 -0.67262588404E+02  0.67262588404E+02  0.00000000000E+00 0.  1.
         23    2    1    2    0    0 -0.16905900795E+03 -0.29225884127E+02  0.17397244664E+03  0.26162004209E+03  0.93506864771E+02 0.  0.
         23    2    1    2    0    0  0.16905900795E+03  0.29225884127E+02  0.45745883419E+03  0.50433641555E+03  0.12510609338E+03 0.  0.
          5    1    4    4  502    0  0.19382318208E+02  0.50759108056E+02  0.72313914150E+02  0.90547975623E+02  0.41800000000E+01 0.  1.
         -5    1    4    4    0  502  0.14967668975E+03 -0.21533223928E+02  0.38514492004E+03  0.41378843993E+03  0.41800000000E+01 0.  1.
        -11    1    3    3    0    0 -0.13502759711E+03 -0.56280035317E+02  0.15795147712E+03  0.21528716516E+03  0.00000000000E+00 0. -1.
         11    1    3    3    0    0 -0.34031410843E+02  0.27054151190E+02  0.16020969524E+02  0.46332876935E+02  0.00000000000E+00 0.  1.
</event>
<event>
 8    1  0.5900800E-006  0.1187694E+03  0.7561462E-02  0.1245141E+00
         -2   -1    0    0    0  501 -0.00000000000E+00  0.00000000000E+00  0.35115844294E+02  0.35115844294E+02  0.00000000000E+00 0.  1.
          2   -1    0    0  501    0  0.00000000000E+00 -0.00000000000E+00 -0.52934291739E+03  0.52934291739E+03  0.00000000000E+00 0. -1.
         23    2    1    2    0    0  0.15830655892E+02 -0.77007028485E+02 -0.17158944699E+03  0.20960650625E+03  0.91166095891E+02 0.  0.
         23    2    1    2    0    0 -0.15830655892E+02  0.77007028485E+02 -0.32263762611E+03  0.35485225544E+03  0.12507754918E+03 0.  0.
          5    1    4    4  502    0 -0.63835089335E+02  0.76260938500E+02 -0.21657702728E+03  0.23835631000E+03  0.41800000000E+01 0.  1.
         -5    1    4    4    0  502  0.48004433443E+02  0.74608998482E+00 -0.10606059883E+03  0.11649594544E+03  0.41800000000E+01 0.  1.
        -11    1    3    3    0    0  0.27634713218E+02 -0.27777248928E+02 -0.10235607952E+02  0.40497167836E+02  0.00000000000E+00 0.  1.
         11    1    3    3    0    0 -0.11804057326E+02 -0.49229779557E+02 -0.16135383904E+03  0.16910933841E+03  0.00000000000E+00 0. -1.
</event>
<event>
 8    1  0.5900800E-006  0.1141875E+03  0.7561462E-02  0.1253006E+00
          2   -1    0    0  501    0  0.00000000000E+00  0.00000000000E+00  0.22590467649E+04  0.22590467649E+04  0.00000000000E+00 0. -1.
         -2   -1    0    0    0  501 -0.00000000000E+00 -0.00000000000E+00 -0.11086734764E+02  0.11086734764E+02  0.00000000000E+00 0.  1.
         23    2    1    2    0    0 -0.72258149379E+02  0.13840040352E+02  0.40408913117E+03  0.42082655321E+03  0.91619730897E+02 0.  0.
         23    2    1    2    0    0  0.72258149379E+02 -0.13840040352E+02  0.18438708990E+04  0.18493069465E+04  0.12109295303E+03 0.  0.
          5    1    4    4  502    0  0.71729079334E+02 -0.53241530844E+02  0.15744413866E+04  0.15769790340E+04  0.41800000000E+01 0. -1.
         -5    1    4    4    0  502  0.52907004512E+00  0.39401490492E+02  0.26942951239E+03  0.27232791248E+03  0.41800000000E+01 0.  1.
        -11    1    3    3    0    0 -0.20209951918E+02  0.37150639280E+02  0.69079978586E+02  0.80997874027E+02  0.00000000000E+00 0.  1.
         11    1    3    3    0    0 -0.52048197461E+02 -0.23310598928E+02  0.33500915258E+03  0.33982867919E+03  0.00000000000E+00 0. -1.
</event>
<event>
 8    1  0.5900800E-006  0.1020391E+03  0.7561462E-02  0.1276065E+00
          1   -1    0    0  501    0  0.00000000000E+00  0.00000000000E+00  0.28550104105E+03  0.28550104105E+03  0.00000000000E+00 0. -1.
         -1   -1    0    0    0  501 -0.00000000000E+00 -0.00000000000E+00 -0.51042267984E+02  0.51042267984E+02  0.00000000000E+00 0.  1.
         23    2    1    2    0    0  0.52031573661E+01  0.49104447792E+02  0.11101565486E+03  0.15398378901E+03  0.94594989372E+02 0.  0.
         23    2    1    2    0    0 -0.52031573661E+01 -0.49104447792E+02  0.12344311821E+03  0.18255952003E+03  0.12510577636E+03 0.  0.
          5    1    4    4  502    0 -0.11539436721E+02  0.41606560718E+02  0.43012706545E+02  0.61088704512E+02  0.41800000000E+01 0.  1.
         -5    1    4    4    0  502  0.63362793549E+01 -0.90711008511E+02  0.80430411664E+02  0.12147081551E+03  0.41800000000E+01 0.  1.
        -11    1    3    3    0    0 -0.10024211206E+02 -0.65478599873E+01 -0.12712802084E+02  0.17463522484E+02  0.00000000000E+00 0.  1.
         11    1    3    3    0    0  0.15227368572E+02  0.55652307780E+02  0.12372845694E+03  0.13652026652E+03  0.00000000000E+00 0. -1.
</event>
<event>
 8    1  0.5900800E-006  0.1495964E+03  0.7561462E-02  0.1200970E+00
          1   -1    0    0  501    0  0.00000000000E+00  0.00000000000E+00  0.38798544963E+03  0.38798544963E+03  0.00000000000E+00 0. -1.
         -1   -1    0    0    0  501 -0.00000000000E+00 -0.00000000000E+00 -0.62028923124E+02  0.62028923124E+02  0.00000000000E+00 0.  1.
         23    2    1    2    0    0 -0.56326017885E+02 -0.88576763814E+02  0.97137686144E+02  0.16890247330E+03  0.89854616128E+02 0.  0.
         23    2    1    2    0    0  0.56326017885E+02  0.88576763814E+02  0.22881884036E+03  0.28111189946E+03  0.12508946771E+03 0.  0.
          5    1    4    4  502    0 -0.34610149571E+02  0.56901664844E+02  0.87178304687E+02  0.10978702621E+03  0.41800000000E+01 0. -1.
         -5    1    4    4    0  502  0.90936167456E+02  0.31675098970E+02  0.14164053568E+03  0.17132487325E+03  0.41800000000E+01 0. -1.
        -11    1    3    3    0    0 -0.16974618062E+02 -0.94736155038E+02  0.81485287972E+02  0.12610681538E+03  0.00000000000E+00 0.  1.
         11    1    3    3    0    0 -0.39351399823E+02  0.61593912245E+01  0.15652398173E+02  0.42795657921E+02  0.00000000000E+00 0. -1.
</event>
<event>
 8    1  0.5900800E-006  0.8440726E+02  0.7561462E-02  0.1316990E+00
          2   -1    0    0  501    0  0.00000000000E+00  0.00000000000E+00  0.43062533066E+03  0.43062533066E+03  0.00000000000E+00 0. -1.
         -2   -1    0    0    0  501 -0.00000000000E+00 -0.00000000000E+00 -0.30973261797E+02  0.30973261797E+02  0.00000000000E+00 0.  1.
         23    2    1    2    0    0  0.11833609291E+02  0.87773168063E+01  0.10288788387E+03  0.13921237957E+03  0.92612603791E+02 0.  0.
         23    2    1    2    0    0 -0.11833609291E+02 -0.87773168063E+01  0.29676418500E+03  0.32238621288E+03  0.12508722221E+03 0.  0.
          5    1    4    4  502    0 -0.21387203077E+02  0.55222784221E+02  0.16870096216E+03  0.17884198441E+03  0.41800000000E+01 0.  1.
         -5    1    4    4    0  502  0.95535937856E+01 -0.64000101027E+02  0.12806322284E+03  0.14354422848E+03  0.41800000000E+01 0.  1.
        -11    1    3    3    0    0  0.15610968090E+02  0.24159474833E+02  0.11546070985E+03  0.11898973934E+03  0.00000000000E+00 0. -1.
         11    1    3    3    0    0 -0.37773587982E+01 -0.15382158026E+02 -0.12572825981E+02  0.20222640237E+02  0.00000000000E+00 0.  1.
</event>
<event>
 8    1  0.5900800E-006  0.1840477E+03  0.7561462E-02  0.1163942E+00
         -1   -1    0    0    0  501 -0.00000000000E+00  0.00000000000E+00  0.77618639493E+03  0.77618639493E+03  0.00000000000E+00 0.  1.
          1   -1    0    0  501    0  0.00000000000E+00 -0.00000000000E+00 -0.48852944403E+02  0.48852944403E+02  0.00000000000E+00 0. -1.
         23    2    1    2    0    0 -0.54673530217E+02 -0.13798013306E+03  0.47818010237E+03  0.50920268471E+03  0.92754793871E+02 0.  0.
         23    2    1    2    0    0  0.54673530217E+02  0.13798013306E+03  0.24915334815E+03  0.31583665462E+03  0.12509072500E+03 0.  0.
          5    1    4    4  502    0  0.72976087715E+02  0.15329949414E+03  0.22002589458E+03  0.27794803645E+03  0.41800000000E+01 0. -1.
         -5    1    4    4    0  502 -0.18302557498E+02 -0.15319361086E+02  0.29127453575E+02  0.37888618170E+02  0.41800000000E+01 0. -1.
        -11    1    3    3    0    0  0.93869009639E+01 -0.98147884481E+02  0.29732204146E+03  0.31324354339E+03  0.00000000000E+00 0.  1.
         11    1    3    3    0    0 -0.64060431180E+02 -0.39832248575E+02  0.18085806091E+03  0.19595914132E+03  0.00000000000E+00 0. -1.
</event>
<event>
 8    1  0.5900800E-006  0.2478610E+03  0.7561462E-02  0.1114664E+00
          1   -1    0    0  501    0  0.00000000000E+00  0.00000000000E+00  0.29493043254E+03  0.29493043254E+03  0.00000000000E+00 0. -1.
         -1   -1    0    0    0  501 -0.00000000000E+00 -0.00000000000E+00 -0.23565979497E+03  0.23565979497E+03  0.00000000000E+00 0.  1.
         23    2    1    2    0    0  0.12948802765E+03  0.19417917498E+03  0.84487437543E+02  0.26459053707E+03  0.91636913429E+02 0.  0.
         23    2    1    2    0    0 -0.12948802765E+03 -0.19417917498E+03 -0.25216799970E+02  0.26599969044E+03  0.12508895641E+03 0.  0.
          5    1    4    4  502    0 -0.14148297431E+03 -0.15323800810E+03 -0.52596641253E+02  0.21513530212E+03  0.41800000000E+01 0. -1.
         -5    1    4    4    0  502  0.11994946664E+02 -0.40941166882E+02  0.27379841283E+02  0.50864388326E+02  0.41800000000E+01 0. -1.
        -11    1    3    3    0    0  0.87991946599E+02  0.18007092998E+03  0.91299273585E+02  0.22023550996E+03  0.00000000000E+00 0. -1.
         11    1    3    3    0    0  0.41496081047E+02  0.14108244998E+02 -0.68118360422E+01  0.44355027105E+02  0.00000000000E+00 0.  1.
</event>
<event>
 8    1  0.5900800E-006  0.1270742E+03  0.7561462E-02  0.1231863E+00
         -2   -1    0    0    0  501 -0.00000000000E+00  0.00000000000E+00  0.42988260601E+03  0.42988260601E+03  0.00000000000E+00 0.  1.
          2   -1    0    0  501    0  0.00000000000E+00 -0.00000000000E+00 -0.48475915187E+02  0.48475915187E+02  0.00000000000E+00 0. -1.
         23    2    1    2    0    0 -0.51524566249E+02  0.49819284591E+02  0.27771134787E+03  0.30076279969E+03  0.90542403848E+02 0.  0.
         23    2    1    2    0    0  0.51524566249E+02 -0.49819284591E+02  0.10369534295E+03  0.17759572151E+03  0.12510305394E+03 0.  0.
          5    1    4    4  502    0  0.73872002478E+02  0.14991571980E+02  0.53795461459E+02  0.92699752180E+02  0.41800000000E+01 0.  1.
         -5    1    4    4    0  502 -0.22347436229E+02 -0.64810856570E+02  0.49899881491E+02  0.84895969328E+02  0.41800000000E+01 0.  1.
        -11    1    3    3    0    0 -0.72167989601E+02  0.52375863911E+02  0.25411801778E+03  0.26930914727E+03  0.00000000000E+00 0. -1.
         11    1    3    3    0    0  0.20643423352E+02 -0.25565793200E+01  0.23593330093E+02  0.31453652417E+02  0.00000000000E+00 0.  1.
</event>
<event>
 8    1  0.5900800E-006  0.9757624E+02  0.7561462E-02  0.1285477E+00
          2   -1    0    0  501    0  0.00000000000E+00  0.00000000000E+00  0.41507345636E+03  0.41507345636E+03  0.00000000000E+00 0.  1.
         -2   -1    0    0    0  501 -0.00000000000E+00 -0.00000000000E+00 -0.25711748795E+02  0.25711748795E+02  0.00000000000E+00 0. -1.
         23    2    1    2    0    0  0.23545475845E+02  0.88886429891E+01  0.15656059723E+03  0.17530870431E+03  0.74756429783E+02 0.  0.
         23    2    1    2    0    0 -0.23545475845E+02 -0.88886429891E+01  0.23280111033E+03  0.26547650084E+03  0.12509203860E+03 0.  0.
          5    1    4    4  502    0  0.29515990675E+02 -0.49077054230E+02  0.77451403552E+02  0.96415472148E+02  0.41800000000E+01 0.  1.
         -5    1    4    4    0  502 -0.53061466521E+02  0.40188411241E+02  0.15534970678E+03  0.16906102869E+03  0.41800000000E+01 0.  1.
        -11    1    3    3    0    0 -0.14479170254E+02 -0.18995054696E+02  0.21077273687E+02  0.31854512086E+02  0.00000000000E+00 0. -1.
         11    1    3    3    0    0  0.38024646100E+02  0.27883697685E+02  0.13548332354E+03  0.14345419222E+03  0.00000000000E+00 0.  1.
</event>
<event>
 8    1  0.5900800E-006  0.5557422E+02  0.7561462E-02  0.1417403E+00
          3   -1    0    0  501    0  0.00000000000E+00  0.00000000000E+00  0.11694115054E+03  0.11694115054E+03  0.00000000000E+00 0. -1.
         -3   -1    0    0    0  501 -0.00000000000E+00 -0.00000000000E+00 -0.10169494658E+03  0.10169494658E+03  0.00000000000E+00 0.  1.
         23    2    1    2    0    0  0.95527102953E+01  0.56586896038E+01 -0.59359830919E+01  0.91284165017E+02  0.90411768291E+02 0.  0.
         23    2    1    2    0    0 -0.95527102953E+01 -0.56586896038E+01  0.21182187057E+02  0.12735193210E+03  0.12508618836E+03 0.  0.
          5    1    4    4  502    0  0.15893517327E+02  0.24331442565E+02  0.63175131765E+02  0.69664859606E+02  0.41800000000E+01 0. -1.
         -5    1    4    4    0  502 -0.25446227623E+02 -0.29990132169E+02 -0.41992944708E+02  0.57687072495E+02  0.41800000000E+01 0. -1.
        -11    1    3    3    0    0  0.17826511211E+01 -0.17611478190E+02  0.37460977470E+02  0.41432678432E+02  0.00000000000E+00 0. -1.
         11    1    3    3    0    0  0.77700591742E+01  0.23270167794E+02 -0.43396960562E+02  0.49851486585E+02  0.00000000000E+00 0.  1.
</event>
<event>
 8    1  0.5900800E-006  0.1545854E+03  0.7561462E-02  0.1194949E+00
         -2   -1    0    0    0  501 -0.00000000000E+00  0.00000000000E+00  0.31854107645E+02  0.31854107645E+02  0.00000000000E+00 0. -1.
          2   -1    0    0  501    0  0.00000000000E+00 -0.00000000000E+00 -0.13015443117E+04  0.13015443117E+04  0.00000000000E+00 0.  1.
         23    2    1    2    0    0 -0.12846615926E+03 -0.13703255814E+02 -0.23495124638E+03  0.28314172984E+03  0.90971521400E+02 0.  0.
         23    2    1    2    0    0  0.12846615926E+03  0.13703255814E+02 -0.10347389577E+04  0.10502566895E+04  0.12515218748E+03 0.  0.
          5    1    4    4  502    0  0.59944334548E+02 -0.55424474488E+02 -0.42627987536E+03  0.43404746302E+03  0.41800000000E+01 0.  1.
         -5    1    4    4    0  502  0.68521824708E+02  0.69127730302E+02 -0.60845908235E+03  0.61620922653E+03  0.41800000000E+01 0.  1.
        -11    1    3    3    0    0 -0.66915934888E+02  0.12116569853E+00 -0.39370201633E+02  0.77638713280E+02  0.00000000000E+00 0. -1.
         11    1    3    3    0    0 -0.61550224368E+02 -0.13824421513E+02 -0.19558104475E+03  0.20550301656E+03  0.00000000000E+00 0.  1.
</event>
<event>
 8    1  0.5900800E-006  0.1420630E+03  0.7561462E-02  0.1210580E+00
          1   -1    0    0  501    0  0.00000000000E+00  0.00000000000E+00  0.15914202339E+03  0.15914202339E+03  0.00000000000E+00 0. -1.
         -1   -1    0    0    0  501 -0.00000000000E+00 -0.00000000000E+00 -0.19262638745E+03  0.19262638745E+03  0.00000000000E+00 0.  1.
         23    2    1    2    0    0  0.51706437554E+02 -0.10662188496E+03 -0.76239231070E+02  0.17423125475E+03  0.10248086524E+03 0.  0.
         23    2    1    2    0    0 -0.51706437554E+02  0.10662188496E+03  0.42754867010E+02  0.17753715608E+03  0.12509868544E+03 0.  0.
          5    1    4    4  502    0 -0.20442200759E+02  0.12658866997E+03  0.53019978303E+02  0.13882062324E+03  0.41800000000E+01 0.  1.
         -5    1    4    4    0  502 -0.31264236794E+02 -0.19966785007E+02 -0.10265111293E+02  0.38716532847E+02  0.41800000000E+01 0.  1.
        -11    1    3    3    0    0  0.28425033342E+02 -0.58297208227E+02  0.16655058924E+02  0.66962213190E+02  0.00000000000E+00 0. -1.
         11    1    3    3    0    0  0.23281404212E+02 -0.48324676734E+02 -0.92894289994E+02  0.10726904156E+03  0.00000000000E+00 0.  1.
</event>
<event>
 8    1  0.5900800E-006  0.1785517E+03  0.7561462E-02  0.1169212E+00
         -1   -1    0    0    0  501 -0.00000000000E+00  0.00000000000E+00  0.24490370704E+02  0.24490370704E+02  0.00000000000E+00 0.  1.
          1   -1    0    0  501    0  0.00000000000E+00 -0.00000000000E+00 -0.14116205185E+04  0.14116205185E+04  0.00000000000E+00 0. -1.
         23    2    1    2    0    0 -0.68133486514E+02  0.13054043345E+03 -0.48797701646E+03  0.51765987457E+03  0.90372564409E+02 0.  0.
         23    2    1    2    0    0  0.68133486514E+02 -0.13054043345E+03 -0.89915313135E+03  0.91845101465E+03  0.11572785292E+03 0.  0.
          5    1    4    4  502    0  0.49782386396E+02  0.40745286196E+01 -0.29182873978E+03  0.29610196477E+03  0.41800000000E+01 0. -1.
         -5    1    4    4    0  502  0.18351100118E+02 -0.13461496207E+03 -0.60732439157E+03  0.62234904988E+03  0.41800000000E+01 0.  1.
        -11    1    3    3    0    0 -0.51022242031E+02  0.13509705498E+02 -0.18609396842E+03  0.19343408802E+03  0.00000000000E+00 0.  1.
         11    1    3    3    0    0 -0.17111244482E+02  0.11703072795E+03 -0.30188304803E+03  0.32422578655E+03  0.00000000000E+00 0. -1.
</event>
<event>
 8    1  0.5900800E-006  0.1075234E+03  0.7561462E-02  0.1265226E+00
          2   -1    0    0  501    0  0.00000000000E+00  0.00000000000E+00  0.35687244247E+03  0.35687244247E+03  0.00000000000E+00 0. -1.
         -2   -1    0    0    0  501 -0.00000000000E+00 -0.00000000000E+00 -0.53481581131E+02  0.53481581131E+02  0.00000000000E+00 0.  1.
         23    2    1    2    0    0 -0.17116863549E+02 -0.94345053584E+01  0.12552658196E+02  0.93154516435E+02  0.90211960378E+02 0.  0.
         23    2    1    2    0    0  0.17116863549E+02  0.94345053584E+01  0.29083820314E+03  0.31719950717E+03  0.12508665009E+03 0.  0.
          5    1    4    4  502    0  0.42059311169E+02 -0.46704305245E+02  0.11865367750E+03  0.13433705881E+03  0.41800000000E+01 0.  1.
         -5    1    4    4    0  502 -0.24942447620E+02  0.56138810604E+02  0.17218452564E+03  0.18286244836E+03  0.41800000000E+01 0.  1.
        -11    1    3    3    0    0 -0.37783771365E+02 -0.39071767952E+02 -0.15333151696E+01  0.54374327442E+02  0.00000000000E+00 0.  1.
         11    1    3    3    0    0  0.20666907815E+02  0.29637262593E+02  0.14085973366E+02  0.38780188993E+02  0.00000000000E+00 0. -1.
</event>
<event>
 8    1  0.5900800E-006  0.8045027E+02  0.7561462E-02  0.1327778E+00
         -2   -1    0    0    0  501 -0.00000000000E+00  0.00000000000E+00  0.19189127161E+02  0.19189127161E+02  0.00000000000E+00 0.  1.
          2   -1    0    0  501    0  0.00000000000E+00 -0.00000000000E+00 -0.72427147596E+03  0.72427147596E+03  0.00000000000E+00 0. -1.
         23    2    1    2    0    0  0.25796778388E+02 -0.34393406338E+02 -0.20038909401E+03  0.22172162770E+03  0.84594982206E+02 0.  0.
         23    2    1    2    0    0 -0.25796778388E+02  0.34393406338E+02 -0.50469325479E+03  0.52173897542E+03  0.12509155397E+03 0.  0.
          5    1    4    4  502    0 -0.36998795779E+02  0.93833039515E+01 -0.37326706629E+02  0.53551029028E+02  0.41800000000E+01 0. -1.
         -5    1    4    4    0  502  0.11202017391E+02  0.25010102387E+02 -0.46736654816E+03  0.46818794640E+03  0.41800000000E+01 0. -1.
        -11    1    3    3    0    0  0.46940524872E+02  0.78020739168E+01 -0.10598757711E+03  0.11617939462E+03  0.00000000000E+00 0.  1.
         11    1    3    3    0    0 -0.21143746483E+02 -0.42195480255E+02 -0.94401516902E+02  0.10554223308E+03  0.00000000000E+00 0. -1.
</event>
<event>
 8    1  0.5900800E-006  0.9818467E+02  0.7561462E-02  0.1284160E+00
          1   -1    0    0  501    0  0.00000000000E+00  0.00000000000E+00  0.49190639048E+03  0.49190639048E+03  0.00000000000E+00 0. -1.
         -1   -1    0    0    0  501 -0.00000000000E+00 -0.00000000000E+00 -0.49724549829E+02  0.49724549829E+02  0.00000000000E+00 0.  1.
         23    2    1    2    0    0  0.27261204586E+02  0.88505097018E+02  0.97552706108E+02  0.16348706055E+03  0.92925577874E+02 0.  0.
         23    2    1    2    0    0 -0.27261204586E+02 -0.88505097018E+02  0.34462913454E+03  0.37814387976E+03  0.12508888021E+03 0.  0.
          5    1    4    4  502    0 -0.24876789252E+02 -0.80124202926E+02  0.35450786713E+03  0.36432409034E+03  0.41800000000E+01 0. -1.
         -5    1    4    4    0  502 -0.23844153341E+01 -0.83808940919E+01 -0.98787325912E+01  0.13819789429E+02  0.41800000000E+01 0. -1.
        -11    1    3    3    0    0  0.19891593823E+02  0.73365695506E+01  0.76396147187E+02  0.79283491741E+02  0.00000000000E+00 0. -1.
         11    1    3    3    0    0  0.73696107633E+01  0.81168527468E+02  0.21156558921E+02  0.84203568805E+02  0.00000000000E+00 0.  1.
</event>
<event>
 8    1  0.5900800E-006  0.7990455E+02  0.7561462E-02  0.1329323E+00
         -1   -1    0    0    0  501 -0.00000000000E+00  0.00000000000E+00  0.55784354657E+02  0.55784354657E+02  0.00000000000E+00 0.  1.
          1   -1    0    0  501    0  0.00000000000E+00 -0.00000000000E+00 -0.43695650474E+03  0.43695650474E+03  0.00000000000E+00 0. -1.
         23    2    1    2    0    0  0.17453714609E+02  0.10601137365E+02 -0.58972954603E+01  0.96640752623E+02  0.94274284440E+02 0.  0.
         23    2    1    2    0    0 -0.17453714609E+02 -0.10601137365E+02 -0.37527485462E+03  0.39610010677E+03  0.12508821610E+03 0.  0.
          5    1    4    4  502    0  0.22383786645E+02  0.54267393367E+01 -0.58019742400E+01  0.24116772369E+02  0.41800000000E+01 0.  1.
         -5    1    4    4    0  502 -0.39837501254E+02 -0.16027876701E+02 -0.36947288038E+03  0.37198333440E+03  0.41800000000E+01 0.  1.
        -11    1    3    3    0    0  0.39314357033E+02 -0.28432651728E+02 -0.15400970652E+02  0.50904069093E+02  0.00000000000E+00 0. -1.
         11    1    3    3    0    0 -0.21860642425E+02  0.39033789093E+02  0.95036751913E+01  0.45736683530E+02  0.00000000000E+00 0.  1.
</event>
<event>
 8    1  0.5900800E-006  0.1255946E+03  0.7561462E-02  0.1234143E+00
         -1   -1    0    0    0  501 -0.00000000000E+00  0.00000000000E+00  0.53671508664E+03  0.53671508664E+03  0.00000000000E+00 0.  1.
          1   -1    0    0  501    0  0.00000000000E+00 -0.00000000000E+00 -0.60651745745E+02  0.60651745745E+02  0.00000000000E+00 0. -1.
         23    2    1    2    0    0  0.99953792460E+02  0.39891456435E+02  0.38089170959E+03  0.40687181384E+03  0.94255448322E+02 0.  0.
         23    2    1    2    0    0 -0.99953792460E+02 -0.39891456435E+02  0.95171631303E+02  0.19049501854E+03  0.12509445936E+03 0.  0.
          5    1    4    4  502    0 -0.86560628886E+02 -0.39414559558E+02  0.12523617226E+03  0.15731440246E+03  0.41800000000E+01 0.  1.
         -5    1    4    4    0  502 -0.13393163574E+02 -0.47689687660E+00 -0.30064540955E+02  0.33180616088E+02  0.41800000000E+01 0.  1.
        -11    1    3    3    0    0  0.78229889619E+02 -0.17861928767E+02  0.24004627867E+03  0.25310310158E+03  0.00000000000E+00 0.  1.
         11    1    3    3    0    0  0.21723902841E+02  0.57753385202E+02  0.14084543092E+03  0.15376871226E+03  0.00000000000E+00 0. -1.
</event>
<event>
 8    1  0.5900800E-006  0.5684795E+02  0.7561462E-02  0.1411557E+00
          1   -1    0    0  501    0  0.00000000000E+00  0.00000000000E+00  0.30405429472E+02  0.30405429472E+02  0.00000000000E+00 0. -1.
         -1   -1    0    0    0  501 -0.00000000000E+00 -0.00000000000E+00 -0.40164325795E+03  0.40164325795E+03  0.00000000000E+00 0.  1.
         23    2    1    2    0    0  0.71023949536E+01  0.14937576814E+02 -0.16702818839E+03  0.19199608954E+03  0.93222891318E+02 0.  0.
         23    2    1    2    0    0 -0.71023949536E+01 -0.14937576814E+02 -0.20420964009E+03  0.24005259789E+03  0.12510034945E+03 0.  0.
          5    1    4    4  502    0 -0.38144700567E+00 -0.37395422251E+01  0.17263302229E+02  0.18155541351E+02  0.41800000000E+01 0.  1.
         -5    1    4    4    0  502 -0.67209479479E+01 -0.11198034589E+02 -0.22147294232E+03  0.22189705654E+03  0.41800000000E+01 0.  1.
        -11    1    3    3    0    0 -0.94066945988E+00 -0.39410426270E+02 -0.77617633388E+02  0.87054945699E+02  0.00000000000E+00 0.  1.
         11    1    3    3    0    0  0.80430644135E+01  0.54348003084E+02 -0.89410555002E+02  0.10494114384E+03  0.00000000000E+00 0. -1.
</event>
<event>
 8    1  0.5900800E-006  0.1038171E+03  0.7561462E-02  0.1272468E+00
          3   -1    0    0  501    0  0.00000000000E+00  0.00000000000E+00  0.16858540416E+03  0.16858540416E+03  0.00000000000E+00 0. -1.
         -3   -1    0    0    0  501 -0.00000000000E+00 -0.00000000000E+00 -0.80027292410E+02  0.80027292410E+02  0.00000000000E+00 0.  1.
         23    2    1    2    0    0  0.15867028759E+02  0.25181099748E+02  0.29298037222E+02  0.10703839750E+03  0.98554518763E+02 0.  0.
         23    2    1    2    0    0 -0.15867028759E+02 -0.25181099748E+02  0.59260074525E+02  0.14157429907E+03  0.12508267401E+03 0.  0.
          5    1    4    4  502    0  0.43573782219E+02 -0.23538148098E+02  0.64847166424E+02  0.81702792522E+02  0.41800000000E+01 0.  1.
         -5    1    4    4    0  502 -0.59440810978E+02 -0.16429516498E+01 -0.55870918989E+01  0.59871506543E+02  0.41800000000E+01 0.  1.
        -11    1    3    3    0    0 -0.86899405981E+01 -0.33553968907E+02  0.25930960735E+02  0.43287395644E+02  0.00000000000E+00 0. -1.
         11    1    3    3    0    0  0.24556969358E+02  0.58735068655E+02  0.33670764878E+01  0.63751001859E+02  0.00000000000E+00 0.  1.
</event>
<event>
 8    1  0.5900800E-006  0.9472579E+02  0.7561462E-02  0.1291795E+00
          1   -1    0    0  501    0  0.00000000000E+00  0.00000000000E+00  0.20373812254E+03  0.20373812254E+03  0.00000000000E+00 0. -1.
         -1   -1    0    0    0  501 -0.00000000000E+00 -0.00000000000E+00 -0.66645925670E+02  0.66645925670E+02  0.00000000000E+00 0.  1.
         23    2    1    2    0    0  0.25773481457E+02  0.28211494345E+02  0.34995126310E+02  0.10445586897E+03  0.90698450578E+02 0.  0.
         23    2    1    2    0    0 -0.25773481457E+02 -0.28211494345E+02  0.10209707056E+03  0.16592817924E+03  0.12509271797E+03 0.  0.
          5    1    4    4  502    0 -0.48643603492E+02 -0.63684803843E+02  0.37316588754E+02  0.88498331043E+02  0.41800000000E+01 0. -1.
         -5    1    4    4    0  502  0.22870122036E+02  0.35473309498E+02  0.64780481811E+02  0.77429848200E+02  0.41800000000E+01 0. -1.
        -11    1    3    3    0    0 -0.50421375643E+01 -0.13799221604E+02  0.48464240165E+02  0.50642119257E+02  0.00000000000E+00 0. -1.
         11    1    3    3    0    0  0.30815619021E+02  0.42010715949E+02 -0.13469113854E+02  0.53813749713E+02  0.00000000000E+00 0.  1.
</event>
<event>
 8    1  0.5900800E-006  0.1064403E+03  0.7561462E-02  0.1267308E+00
          2   -1    0    0  501    0  0.00000000000E+00  0.00000000000E+00  0.85983275063E+02  0.85983275063E+02  0.00000000000E+00 0. -1.
         -2   -1    0    0    0  501 -0.00000000000E+00 -0.00000000000E+00 -0.22878847541E+03  0.22878847541E+03  0.00000000000E+00 0.  1.
         23    2    1    2    0    0  0.59790094887E+02  0.31502288803E+02 -0.13018542858E+03  0.17203039915E+03  0.89883050521E+02 0.  0.
         23    2    1    2    0    0 -0.59790094887E+02 -0.31502288803E+02 -0.12619771774E+02  0.14274135133E+03  0.12509430480E+03 0.  0.
          5    1    4    4  502    0  0.77482964904E+01  0.37619277312E+02  0.16072750446E+02  0.41845571222E+02  0.41800000000E+01 0.  1.
         -5    1    4    4    0  502 -0.67538391378E+02 -0.69121566115E+02 -0.28692522220E+02  0.10089578011E+03  0.41800000000E+01 0.  1.
        -11    1    3    3    0    0  0.38598065039E+02 -0.11189751568E+01 -0.26622518116E+01  0.38705946764E+02  0.00000000000E+00 0. -1.
         11    1    3    3    0    0  0.21192029848E+02  0.32621263960E+02 -0.12752317676E+03  0.13332445238E+03  0.00000000000E+00 0.  1.
</event>
<event>
 8    1  0.6934501E-006  0.2389843E+03  0.7561462E-02  0.1120471E+00
         -2   -1    0    0    0  501 -0.00000000000E+00  0.00000000000E+00  0.49872955831E+02  0.49872955831E+02  0.00000000000E+00 0. -1.
          2   -1    0    0  501    0  0.00000000000E+00 -0.00000000000E+00 -0.12430102270E+04  0.12430102270E+04  0.00000000000E+00 0.  1.
         23    2    1    2    0    0  0.78071021524E+02 -0.20418582140E+03 -0.45694427402E+03  0.51479896289E+03  0.91831196081E+02 0.  0.
         23    2    1    2    0    0 -0.78071021524E+02  0.20418582140E+03 -0.73619299711E+03  0.77808421990E+03  0.12509192700E+03 0.  0.
          5    1    4    4  502    0 -0.78278681380E+02  0.41418897044E+02 -0.28035641317E+03  0.29404126887E+03  0.41800000000E+01 0. -1.
         -5    1    4    4    0  502  0.20765985576E+00  0.16276692435E+03 -0.45583658394E+03  0.48404295103E+03  0.41800000000E+01 0. -1.
        -11    1    3    3    0    0  0.86576173986E+02 -0.16439765268E+03 -0.30180068971E+03  0.35440891413E+03  0.00000000000E+00 0. -1.
         11    1    3    3    0    0 -0.85051524621E+01 -0.39788168723E+02 -0.15514358431E+03  0.16039004876E+03  0.00000000000E+00 0.  1.
</event>
<event>
 8    1  0.5900800E-006  0.1064487E+03  0.7561462E-02  0.1267291E+00
          1   -1    0    0  501    0  0.00000000000E+00  0.00000000000E+00  0.72228788800E+03  0.72228788800E+03  0.00000000000E+00 0. -1.
         -1   -1    0    0    0  501 -0.00000000000E+00 -0.00000000000E+00 -0.31303239255E+02  0.31303239255E+02  0.00000000000E+00 0.  1.
         23    2    1    2    0    0  0.47597837664E+01 -0.10342799710E+03  0.33365496646E+03  0.36109700966E+03  0.91353202547E+02 0.  0.
         23    2    1    2    0    0 -0.47597837664E+01  0.10342799710E+03  0.35732968228E+03  0.39249411760E+03  0.12508846621E+03 0.  0.
          5    1    4    4  502    0  0.11203007673E+02  0.27138694964E+02  0.31583039393E+01  0.29823873475E+02  0.41800000000E+01 0.  1.
         -5    1    4    4    0  502 -0.15962791440E+02  0.76289302138E+02  0.35417137835E+03  0.36267024412E+03  0.41800000000E+01 0.  1.
        -11    1    3    3    0    0 -0.71794844979E+01 -0.35539833623E+02  0.23115642916E+02  0.42999508358E+02  0.00000000000E+00 0.  1.
         11    1    3    3    0    0  0.11939268264E+02 -0.67888163479E+02  0.31053932355E+03  0.31809750130E+03  0.00000000000E+00 0. -1.
</event>
<event>
 8    1  0.5900800E-006  0.4104753E+03  0.7561462E-02  0.1040212E+00
          4   -1    0    0  501    0  0.00000000000E+00  0.00000000000E+00  0.10556446947E+04  0.10556446947E+04  0.00000000000E+00 0. -1.
         -4   -1    0    0    0  501 -0.00000000000E+00 -0.00000000000E+00 -0.27017930602E+03  0.27017930602E+03  0.00000000000E+00 0.  1.
         23    2    1    2    0    0  0.30534476635E+03 -0.27204929807E+03 -0.14115812013E+02  0.41905866330E+03  0.90358509378E+02 0.  0.
         23    2    1    2    0    0 -0.30534476635E+03  0.27204929807E+03  0.79958120068E+03  0.90676533742E+03  0.12508810389E+03 0.  0.
          5    1    4    4  502    0 -0.11118222852E+03  0.12995806922E+03  0.45819725852E+03  0.48909384356E+03  0.41800000000E+01 0.  1.
         -5    1    4    4    0  502 -0.19416253783E+03  0.14209122885E+03  0.34138394217E+03  0.41767149386E+03  0.41800000000E+01 0.  1.
        -11    1    3    3    0    0  0.18753882123E+03 -0.17681177823E+03  0.34308684089E+02  0.26001980731E+03  0.00000000000E+00 0. -1.
         11    1    3    3    0    0  0.11780594512E+03 -0.95237519840E+02 -0.48424496102E+02  0.15903885599E+03  0.00000000000E+00 0.  1.
</event>
<event>
 8    1  0.5900800E-006  0.7945422E+02  0.7561462E-02  0.1330607E+00
         -2   -1    0    0    0  501 -0.00000000000E+00  0.00000000000E+00  0.15781659574E+02  0.15781659574E+02  0.00000000000E+00 0.  1.
          2   -1    0    0  501    0  0.00000000000E+00 -0.00000000000E+00 -0.82533542860E+03  0.82533542860E+03  0.00000000000E+00 0. -1.
         23    2    1    2    0    0  0.21750474938E+02  0.36710830870E+02 -0.27885994482E+03  0.29514413869E+03  0.86754974006E+02 0.  0.
         23    2    1    2    0    0 -0.21750474938E+02 -0.36710830870E+02 -0.53069382421E+03  0.54597294949E+03  0.12095353759E+03 0.  0.
          5    1    4    4  502    0 -0.30401180937E+02 -0.49674404541E+02 -0.52591234730E+03  0.52914369288E+03  0.41800000000E+01 0. -1.
         -5    1    4    4    0  502  0.86507059986E+01  0.12963573671E+02 -0.47814769077E+01  0.16829256609E+02  0.41800000000E+01 0. -1.
        -11    1    3    3    0    0  0.31873618387E+02 -0.12429745220E+02 -0.48303272854E+02  0.59191488271E+02  0.00000000000E+00 0.  1.
         11    1    3    3    0    0 -0.10123143449E+02  0.49140576090E+02 -0.23055667197E+03  0.23595265042E+03  0.00000000000E+00 0. -1.
</event>
<event>
 7    1  0.5900800E-006  0.7649232E+02  0.7561462E-02  0.1339311E+00
         -1   -1    0    0    0  501 -0.00000000000E+00  0.00000000000E+00  0.26013099353E+02  0.26013099353E+02  0.00000000000E+00 0.  1.
          1   -1    0    0  501    0  0.00000000000E+00 -0.00000000000E+00 -0.65644359830E+03  0.65644359830E+03  0.00000000000E+00 0. -1.
         23    2    1    2    0    0  0.14519982357E+02 -0.27259286058E+01 -0.11849463335E+03  0.15026549849E+03  0.91216672422E+02 0.  0.
          5    1    1    2  502    0 -0.46122822196E+02  0.62087042059E+01 -0.49246152686E+03  0.49467331702E+03  0.41800000000E+01 0. -1.
         -5    1    1    2    0  502  0.31602839840E+02 -0.34827756001E+01 -0.19474338742E+02  0.37517882153E+02  0.41800000000E+01 0.  1.
        -11    1    3    3    0    0  0.35234928218E+02  0.22303736145E+02 -0.10855521003E+03  0.11628925332E+03  0.00000000000E+00 0.  1.
         11    1    3    3    0    0 -0.20714945861E+02 -0.25029664751E+02 -0.99394233169E+01  0.33976245164E+02  0.00000000000E+00 0. -1.
</event>
<event>
 8    1  0.5900800E-006  0.1283392E+03  0.7561462E-02  0.1229941E+00
         -1   -1    0    0    0  501 -0.00000000000E+00  0.00000000000E+00  0.47976722369E+02  0.47976722369E+02  0.00000000000E+00 0.  1.
          1   -1    0    0  501    0  0.00000000000E+00 -0.00000000000E+00 -0.44282693313E+03  0.44282693313E+03  0.00000000000E+00 0. -1.
         23    2    1    2    0    0 -0.98946944131E+01 -0.77092174047E+02 -0.92769637809E+02  0.15473423807E+03  0.96412501549E+02 0.  0.
         23    2    1    2    0    0  0.98946944131E+01  0.77092174047E+02 -0.30208057296E+03  0.33606941743E+03  0.12509545355E+03 0.  0.
          5    1    4    4  502    0  0.64177882020E+01  0.11183624419E+03 -0.22825670555E+03  0.25429732509E+03  0.41800000000E+01 0.  1.
         -5    1    4    4    0  502  0.34769062111E+01 -0.34744070145E+02 -0.73823867404E+02  0.81772092340E+02  0.41800000000E+01 0.  1.
        -11    1    3    3    0    0 -0.10211110407E+02  0.14547252220E+02  0.71474056607E+01  0.19156584522E+02  0.00000000000E+00 0. -1.
         11    1    3    3    0    0  0.31641599373E+00 -0.91639426267E+02 -0.99917043469E+02  0.13557765355E+03  0.00000000000E+00 0.  1.
</event>
<event>
 8    1  0.5900800E-006  0.9441182E+02  0.7561462E-02  0.1292506E+00
          2   -1    0    0  501    0  0.00000000000E+00  0.00000000000E+00  0.28147024227E+03  0.28147024227E+03  0.00000000000E+00 0. -1.
         -2   -1    0    0    0  501 -0.00000000000E+00 -0.00000000000E+00 -0.48137714047E+02  0.48137714047E+02  0.00000000000E+00 0.  1.
         23    2    1    2    0    0 -0.37875084175E+01  0.14691074854E+02  0.45012278119E+02  0.10302110582E+03  0.91417012430E+02 0.  0.
         23    2    1    2    0    0  0.37875084175E+01 -0.14691074854E+02  0.18832025010E+03  0.22658685050E+03  0.12508761458E+03 0.  0.
          5    1    4    4  502    0 -0.16080880654E+01 -0.65689222472E+02  0.14528825720E+03  0.15951115941E+03  0.41800000000E+01 0.  1.
         -5    1    4    4    0  502  0.53955964829E+01  0.50998147618E+02  0.43031992901E+02  0.67075691088E+02  0.41800000000E+01 0.  1.
        -11    1    3    3    0    0 -0.36320615969E+02  0.12887355423E+01  0.55468771190E+02  0.66314648163E+02  0.00000000000E+00 0. -1.
         11    1    3    3    0    0  0.32533107552E+02  0.13402339312E+02 -0.10456493071E+02  0.36706457652E+02  0.00000000000E+00 0.  1.
</event>
<event>
 8    1  0.5900800E-006  0.9421994E+02  0.7561462E-02  0.1292943E+00
          3   -1    0    0  501    0  0.00000000000E+00  0.00000000000E+00  0.11998211950E+04  0.11998211950E+04  0.00000000000E+00 0. -1.
         -3   -1    0    0    0  501 -0.00000000000E+00 -0.00000000000E+00 -0.21507475128E+02  0.21507475128E+02  0.00000000000E+00 0.  1.
         23    2    1    2    0    0 -0.26220762675E+02 -0.75830696354E+02  0.22036562077E+03  0.25192183552E+03  0.92009681484E+02 0.  0.
         23    2    1    2    0    0  0.26220762675E+02  0.75830696354E+02  0.95794809914E+03  0.96940683465E+03  0.12508887847E+03 0.  0.
          5    1    4    4  502    0  0.29600899118E+02  0.41305873730E+02  0.90202876791E+03  0.90346873713E+03  0.41800000000E+01 0. -1.
         -5    1    4    4    0  502 -0.33801364430E+01  0.34524822624E+02  0.55919331230E+02  0.65938097522E+02  0.41800000000E+01 0. -1.
        -11    1    3    3    0    0 -0.23246656847E+00 -0.76512640169E+02  0.21073993049E+03  0.22419981367E+03  0.00000000000E+00 0. -1.
         11    1    3    3    0    0 -0.25988296107E+02  0.68194381529E+00  0.96256902825E+01  0.27722021847E+02  0.00000000000E+00 0.  1.
</event>
<event>
 8    1  0.5900800E-006  0.1445286E+03  0.7561462E-02  0.1207362E+00
          1   -1    0    0  501    0  0.00000000000E+00  0.00000000000E+00  0.44562053244E+02  0.44562053244E+02  0.00000000000E+00 0. -1.
         -1   -1    0    0    0  501 -0.00000000000E+00 -0.00000000000E+00 -0.57121481079E+03  0.57121481079E+03  0.00000000000E+00 0.  1.
         23    2    1    2    0    0  0.97020907465E+02  0.32035173985E+02 -0.35273571895E+03  0.37842938263E+03  0.91361925108E+02 0.  0.
         23    2    1    2    0    0 -0.97020907465E+02 -0.32035173985E+02 -0.17391703859E+03  0.23734748140E+03  0.12508949498E+03 0.  0.
          5    1    4    4  502    0 -0.12442617528E+03 -0.96229397323E+01 -0.14567366180E+03  0.19186652185E+03  0.41800000000E+01 0.  1.
         -5    1    4    4    0  502  0.27405267820E+02 -0.22412234253E+02 -0.28243376789E+02  0.45480959543E+02  0.41800000000E+01 0.  1.
        -11    1    3    3    0    0  0.76396459189E+02 -0.14390563508E+02 -0.14447811921E+03  0.16406533524E+03  0.00000000000E+00 0. -1.
         11    1    3    3    0    0  0.20624448276E+02  0.46425737493E+02 -0.20825759974E+03  0.21436404740E+03  0.00000000000E+00 0.  1.
</event>
<event>
 8    1  0.5900800E-006  0.7252478E+02  0.7561462E-02  0.1351712E+00
          2   -1    0    0  501    0  0.00000000000E+00  0.00000000000E+00  0.20449937557E+03  0.20449937557E+03  0.00000000000E+00 0. -1.
         -2   -1    0    0    0  501 -0.00000000000E+00 -0.00000000000E+00 -0.58990637714E+02  0.58990637714E+02  0.00000000000E+00 0.  1.
         23    2    1    2    0    0 -0.12769729316E+02  0.68198734356E+01  0.48292735924E+02  0.10440855217E+03  0.91429649254E+02 0.  0.
         23    2    1    2    0    0  0.12769729316E+02 -0.68198734356E+01  0.97216001933E+02  0.15908146112E+03  0.12508550507E+03 0.  0.
          5    1    4    4  502    0  0.47470725499E+02  0.33253121765E+02  0.87483404794E+02  0.10502408486E+03  0.41800000000E+01 0. -1.
         -5    1    4    4    0  502 -0.34700996183E+02 -0.40072995201E+02  0.97325971391E+01  0.54057376254E+02  0.41800000000E+01 0. -1.
        -11    1    3    3    0    0  0.78859641357E+01  0.10139673752E+02 -0.25044017464E+02  0.28146122733E+02  0.00000000000E+00 0.  1.
         11    1    3    3    0    0 -0.20655693452E+02 -0.33198003160E+01  0.73336753388E+02  0.76262429437E+02  0.00000000000E+00 0. -1.
</event>
<event>
 8    1  0.5900800E-006  0.1647307E+03  0.7561462E-02  0.1183457E+00
         -2   -1    0    0    0  501 -0.00000000000E+00  0.00000000000E+00  0.50843346511E+02  0.50843346511E+02  0.00000000000E+00 0.  1.
          2   -1    0    0  501    0  0.00000000000E+00 -0.00000000000E+00 -0.76887233895E+03  0.76887233895E+03  0.00000000000E+00 0. -1.
         23    2    1    2    0    0 -0.71508938920E+02 -0.13428145896E+03 -0.20159877080E+03  0.26700089990E+03  0.86616266345E+02 0.  0.
         23    2    1    2    0    0  0.71508938920E+02  0.13428145896E+03 -0.51643022163E+03  0.55271478555E+03  0.12509365208E+03 0.  0.
          5    1    4    4  502    0  0.29645194289E+02  0.83596542884E+01 -0.15974621789E+02  0.34948280438E+02  0.41800000000E+01 0.  1.
         -5    1    4    4    0  502  0.41863744631E+02  0.12592180467E+03 -0.50045559984E+03  0.51776650512E+03  0.41800000000E+01 0.  1.
        -11    1    3    3    0    0 -0.48817072567E+02 -0.26653392842E+02 -0.11231098423E+03  0.12532863641E+03  0.00000000000E+00 0. -1.
         11    1    3    3    0    0 -0.22691866353E+02 -0.10762806611E+03 -0.89287786567E+02  0.14167226350E+03  0.00000000000E+00 0.  1.
</event>
<event>
 8    1  0.5900800E-006  0.9512703E+02  0.7561462E-02  0.1290890E+00
         -1   -1    0    0    0  501 -0.00000000000E+00  0.00000000000E+00  0.48801921696E+02  0.48801921696E+02  0.00000000000E+00 0.  1.
          1   -1    0    0  501    0  0.00000000000E+00 -0.00000000000E+00 -0.38256258667E+03  0.38256258667E+03  0.00000000000E+00 0. -1.
         23    2    1    2    0    0  0.48116945832E+02 -0.28776729177E+02 -0.42912795111E+02  0.11407507505E+03  0.89600636971E+02 0.  0.
         23    2    1    2    0    0 -0.48116945832E+02  0.28776729177E+02 -0.29084786986E+03  0.31728943331E+03  0.11373988074E+03 0.  0.
          5    1    4    4  502    0 -0.41759829369E+02  0.49229055350E+02 -0.28812577234E+03  0.29529869002E+03  0.41800000000E+01 0. -1.
         -5    1    4    4    0  502 -0.63571164626E+01 -0.20452326173E+02 -0.27220975169E+01  0.21990743291E+02  0.41800000000E+01 0.  1.
        -11    1    3    3    0    0  0.71186664521E+02 -0.61885008404E+01 -0.39399776799E+02  0.81597678644E+02  0.00000000000E+00 0.  1.
         11    1    3    3    0    0 -0.23069718689E+02 -0.22588228337E+02 -0.35130183121E+01  0.32477396408E+02  0.00000000000E+00 0. -1.
</event>
<event>
 8    1  0.5900800E-006  0.1019518E+03  0.7561462E-02  0.1276244E+00
          1   -1    0    0  501    0  0.00000000000E+00  0.00000000000E+00  0.47081942755E+03  0.47081942755E+03  0.00000000000E+00 0. -1.
         -1   -1    0    0    0  501 -0.00000000000E+00 -0.00000000000E+00 -0.33572147507E+02  0.33572147507E+02  0.00000000000E+00 0.  1.
         23    2    1    2    0    0  0.38685284320E+02  0.47297936670E+02  0.19905520806E+03  0.22850947208E+03  0.94127344263E+02 0.  0.
         23    2    1    2    0    0 -0.38685284320E+02 -0.47297936670E+02  0.23819207199E+03  0.27588210298E+03  0.12506728410E+03 0.  0.
          5    1    4    4  502    0  0.22921699485E+02 -0.23266889408E+02  0.48108971012E+01  0.33277163054E+02  0.41800000000E+01 0. -1.
         -5    1    4    4    0  502 -0.61606983805E+02 -0.24031047262E+02  0.23338117488E+03  0.24260493993E+03  0.41800000000E+01 0. -1.
        -11    1    3    3    0    0 -0.22929502841E+02  0.35068396380E+02  0.12257838773E+03  0.12954155960E+03  0.00000000000E+00 0. -1.
         11    1    3    3    0    0  0.61614787161E+02  0.12229540290E+02  0.76476820326E+02  0.98967912476E+02  0.00000000000E+00 0.  1.
</event>
<event>
 8    1  0.5900800E-006  0.8699059E+02  0.7561462E-02  0.1310308E+00
          1   -1    0    0  501    0  0.00000000000E+00  0.00000000000E+00  0.40462016533E+02  0.40462016533E+02  0.00000000000E+00 0. -1.
         -1   -1    0    0    0  501 -0.00000000000E+00 -0.00000000000E+00 -0.36521754519E+03  0.36521754519E+03  0.00000000000E+00 0.  1.
         23    2    1    2    0    0  0.25774594442E+02 -0.13788480265E+02 -0.22328748530E+03  0.24198361556E+03  0.88568150044E+02 0.  0.
         23    2    1    2    0    0 -0.25774594442E+02  0.13788480265E+02 -0.10146804336E+03  0.16369594616E+03  0.12508455964E+03 0.  0.
          5    1    4    4  502    0 -0.43400426925E+02  0.34184808464E+02  0.32336735733E+01  0.55498893969E+02  0.41800000000E+01 0. -1.
         -5    1    4    4    0  502  0.17625832483E+02 -0.20396328199E+02 -0.10470171693E+03  0.10819705219E+03  0.41800000000E+01 0. -1.
        -11    1    3    3    0    0 -0.18418637995E+02 -0.37035551630E+02 -0.12622991407E+03  0.13283399233E+03  0.00000000000E+00 0.  1.
         11    1    3    3    0    0  0.44193232437E+02  0.23247071364E+02 -0.97057571225E+02  0.10914962324E+03  0.00000000000E+00 0. -1.
</event>
<event>
 8    1  0.5900800E-006  0.1152522E+03  0.7561462E-02  0.1251142E+00
         -2   -1    0    0    0  501 -0.00000000000E+00  0.00000000000E+00  0.10269759968E+03  0.10269759968E+03  0.00000000000E+00 0.  1.
          2   -1    0    0  501    0  0.00000000000E+00 -0.00000000000E+00 -0.23246562368E+03  0.23246562368E+03  0.00000000000E+00 0. -1.
         23    2    1    2    0    0 -0.36780155694E+02 -0.61325589905E+02  0.28558399788E+02  0.12108736650E+03  0.93450309247E+02 0.  0.
         23    2    1    2    0    0  0.36780155694E+02  0.61325589905E+02 -0.15832642379E+03  0.21407585686E+03  0.12509040007E+03 0.  0.
          5    1    4    4  502    0  0.23555571892E+02  0.83693754069E+02 -0.16532649380E+03  0.18684172818E+03  0.41800000000E+01 0. -1.
         -5    1    4    4    0  502  0.13224583802E+02 -0.22368164164E+02  0.70000700064E+01  0.27234128679E+02  0.41800000000E+01 0. -1.
        -11    1    3    3    0    0  0.10904350633E+02  0.20049083186E+02  0.10210666380E+02  0.25002566013E+02  0.00000000000E+00 0.  1.
         11    1    3    3    0    0 -0.47684506327E+02 -0.81374673091E+02  0.18347733408E+02  0.96084800491E+02  0.00000000000E+00 0. -1.
</event>
<event>
 8    1  0.5900800E-006  0.1408207E+03  0.7561462E-02  0.1212229E+00
         -2   -1    0    0    0  501 -0.00000000000E+00  0.00000000000E+00  0.37663041406E+02  0.37663041406E+02  0.00000000000E+00 0. -1.
          2   -1    0    0  501    0  0.00000000000E+00 -0.00000000000E+00 -0.59667785982E+03  0.59667785982E+03  0.00000000000E+00 0.  1.
         23    2    1    2    0    0 -0.90800734205E+02 -0.35255444760E+02 -0.18145148309E+03  0.22484231878E+03  0.90231412939E+02 0.  0.
         23    2    1    2    0    0  0.90800734205E+02  0.35255444760E+02 -0.37756333532E+03  0.40949858244E+03  0.12508915671E+03 0.  0.
          5    1    4    4  502    0 -0.17602767614E+02  0.36144563597E+02 -0.17612915886E+03  0.18070760888E+03  0.41800000000E+01 0. -1.
         -5    1    4    4    0  502  0.10840350182E+03 -0.88911883608E+00 -0.20143417646E+03  0.22879097357E+03  0.41800000000E+01 0. -1.
        -11    1    3    3    0    0 -0.87209317126E+02  0.95989420707E+01 -0.11724489380E+03  0.14643759696E+03  0.00000000000E+00 0.  1.
         11    1    3    3    0    0 -0.35914170793E+01 -0.44854386831E+02 -0.64206589292E+02  0.78404721816E+02  0.00000000000E+00 0. -1.
</event>
<event>
 8    1  0.5900800E-006  0.1361578E+03  0.7561462E-02  0.1218594E+00
         -1   -1    0    0    0  501 -0.00000000000E+00  0.00000000000E+00  0.49447202191E+02  0.49447202191E+02  0.00000000000E+00 0.  1.
          1   -1    0    0  501    0  0.00000000000E+00 -0.00000000000E+00 -0.39228536084E+03  0.39228536084E+03  0.00000000000E+00 0. -1.
         23    2    1    2    0    0  0.76218219505E+02 -0.25800904825E+02 -0.14503267450E+03  0.19424695514E+03  0.10110637583E+03 0.  0.
         23    2    1    2    0    0 -0.76218219505E+02  0.25800904825E+02 -0.19780548415E+03  0.24748560790E+03  0.12508881996E+03 0.  0.
          5    1    4    4  502    0 -0.16604285694E+02  0.71483225219E+02 -0.99121766473E+02  0.12340239374E+03  0.41800000000E+01 0.  1.
         -5    1    4    4    0  502 -0.59613933811E+02 -0.45682320394E+02 -0.98683717681E+02  0.12408321416E+03  0.41800000000E+01 0.  1.
        -11    1    3    3    0    0  0.48324631053E+02  0.32993783120E+02 -0.97310872648E+02  0.11354851662E+03  0.00000000000E+00 0. -1.
         11    1    3    3    0    0  0.27893588452E+02 -0.58794687945E+02 -0.47721801849E+02  0.80698438516E+02  0.00000000000E+00 0.  1.
</event>
<event>
 8    1  0.5900800E-006  0.9645175E+02  0.7561462E-02  0.1287939E+00
         -1   -1    0    0    0  501 -0.00000000000E+00  0.00000000000E+00  0.20181736136E+02  0.20181736136E+02  0.00000000000E+00 0.  1.
          1   -1    0    0  501    0  0.00000000000E+00 -0.00000000000E+00 -0.66048806529E+03  0.66048806529E+03  0.00000000000E+00 0. -1.
         23    2    1    2    0    0  0.76291717282E+00  0.35404550261E+02 -0.22589820884E+03  0.24634690824E+03  0.91666429077E+02 0.  0.
         23    2    1    2    0    0 -0.76291717282E+00 -0.35404550261E+02 -0.41440812032E+03  0.43432289319E+03  0.12509285009E+03 0.  0.
          5    1    4    4  502    0 -0.48968129126E+02  0.24244709895E+01 -0.30421806331E+03  0.30817179977E+03  0.41800000000E+01 0. -1.
         -5    1    4    4    0  502  0.48205211953E+02 -0.37829021250E+02 -0.11019005701E+03  0.12615109342E+03  0.41800000000E+01 0. -1.
        -11    1    3    3    0    0  0.19566575572E+02 -0.17426180940E+02 -0.20038030028E+02  0.32985531816E+02  0.00000000000E+00 0.  1.
         11    1    3    3    0    0 -0.18803658400E+02  0.52830731200E+02 -0.20586017882E+03  0.21336137643E+03  0.00000000000E+00 0. -1.
</event>
<event>
 8    1  0.5900800E-006  0.8854275E+02  0.7561462E-02  0.1306419E+00
         -2   -1    0    0    0  501 -0.00000000000E+00  0.00000000000E+00  0.17359447160E+03  0.17359447160E+03  0.00000000000E+00 0. -1.
          2   -1    0    0  501    0  0.00000000000E+00 -0.00000000000E+00 -0.18715516467E+03  0.18715516467E+03  0.00000000000E+00 0.  1.
         23    2    1    2    0    0  0.50489651020E+02  0.51404828415E+02  0.11693298822E+03  0.16615413693E+03  0.93499798070E+02 0.  0.
         23    2    1    2    0    0 -0.50489651020E+02 -0.51404828415E+02 -0.13049368129E+03  0.19459549934E+03  0.12508855369E+03 0.  0.
          5    1    4    4  502    0 -0.67896934123E+02 -0.53372363152E+02 -0.28524271484E+02  0.91047840587E+02  0.41800000000E+01 0. -1.
         -5    1    4    4    0  502  0.17407283103E+02  0.19675347369E+01 -0.10196940980E+03  0.10354765876E+03  0.41800000000E+01 0. -1.
        -11    1    3    3    0    0  0.21767255639E+02  0.15968046715E+02  0.11747375798E+03  0.12053578617E+03  0.00000000000E+00 0. -1.
         11    1    3    3    0    0  0.28722395381E+02  0.35436781700E+02 -0.54076976049E+00  0.45618350755E+02  0.00000000000E+00 0.  1.
</event>
<event>
 8    1  0.5900800E-006  0.1595294E+03  0.7561462E-02  0.1189229E+00
          1   -1    0    0  501    0  0.00000000000E+00  0.00000000000E+00  0.21871456546E+03  0.21871456546E+03  0.00000000000E+00 0. -1.
         -1   -1    0    0    0  501 -0.00000000000E+00 -0.00000000000E+00 -0.15090276967E+03  0.15090276967E+03  0.00000000000E+00 0.  1.
         23    2    1    2    0    0  0.12409657417E+03 -0.42169763301E+02 -0.37133443851E+02  0.16023951952E+03  0.84377498801E+02 0.  0.
         23    2    1    2    0    0 -0.12409657417E+03  0.42169763301E+02  0.10494523964E+03  0.20937781562E+03  0.12508923891E+03 0.  0.
          5    1    4    4  502    0 -0.14717680471E+03  0.33559802970E+02  0.10578465790E+03  0.18437770599E+03  0.41800000000E+01 0. -1.
         -5    1    4    4    0  502  0.23080230532E+02  0.86099603306E+01 -0.83941825838E+00  0.25000109626E+02  0.41800000000E+01 0. -1.
        -11    1    3    3    0    0 -0.15258120962E+01 -0.14303094825E+02 -0.27707347011E+02  0.31218643508E+02  0.00000000000E+00 0.  1.
         11    1    3    3    0    0  0.12562238627E+03 -0.27866668476E+02 -0.94260968408E+01  0.12902087601E+03  0.00000000000E+00 0. -1.
</event>
<event>
 8    1  0.5900800E-006  0.1724522E+03  0.7561462E-02  0.1175314E+00
          2   -1    0    0  501    0  0.00000000000E+00  0.00000000000E+00  0.13710297637E+04  0.13710297637E+04  0.00000000000E+00 0. -1.
         -2   -1    0    0    0  501 -0.00000000000E+00 -0.00000000000E+00 -0.29008231491E+02  0.29008231491E+02  0.00000000000E+00 0.  1.
         23    2    1    2    0    0 -0.19516013317E+02 -0.15681875694E+03  0.45548010887E+03  0.49087580469E+03  0.92325125261E+02 0.  0.
         23    2    1    2    0    0  0.19516013317E+02  0.15681875694E+03  0.88654142332E+03  0.90916219048E+03  0.12508875261E+03 0.  0.
          5    1    4    4  502    0 -0.26875068451E+01  0.10848861830E+03  0.28070638289E+03  0.30098263868E+03  0.41800000000E+01 0.  1.
         -5    1    4    4    0  502  0.22203520162E+02  0.48330138637E+02  0.60583504043E+03  0.60817955180E+03  0.41800000000E+01 0.  1.
        -11    1    3    3    0    0 -0.22337866677E+02 -0.16898870920E+03  0.42765850815E+03  0.46037806607E+03  0.00000000000E+00 0. -1.
         11    1    3    3    0    0  0.28218533599E+01  0.12169952265E+02  0.27821600714E+02  0.30497738618E+02  0.00000000000E+00 0.  1.
</event>
<event>
 8    1  0.5900800E-006  0.1007891E+03  0.7561462E-02  0.1278645E+00
          1   -1    0    0  501    0  0.00000000000E+00  0.00000000000E+00  0.67101566359E+03  0.67101566359E+03  0.00000000000E+00 0. -1.
         -1   -1    0    0    0  501 -0.00000000000E+00 -0.00000000000E+00 -0.23934249092E+02  0.23934249092E+02  0.00000000000E+00 0.  1.
         23    2    1    2    0    0 -0.22074480151E+02 -0.32357980979E+02  0.14702452622E+03  0.17799900661E+03  0.92374852850E+02 0.  0.
         23    2    1    2    0    0  0.22074480151E+02  0.32357980979E+02  0.50005688828E+03  0.51695090607E+03  0.12508807361E+03 0.  0.
          5    1    4    4  502    0  0.66258134297E+02  0.23619322588E+02  0.41171921651E+03  0.41770587547E+03  0.41800000000E+01 0. -1.
         -5    1    4    4    0  502 -0.44183654146E+02  0.87386583915E+01  0.88337671770E+02  0.99245030595E+02  0.41800000000E+01 0. -1.
        -11    1    3    3    0    0  0.42503683948E+01 -0.52537708678E+02  0.40622431586E+02  0.66546663422E+02  0.00000000000E+00 0.  1.
         11    1    3    3    0    0 -0.26324848546E+02  0.20179727699E+02  0.10640209463E+03  0.11145234319E+03  0.00000000000E+00 0. -1.
</event>
<event>
 8    1  0.5900800E-006  0.1162593E+03  0.7561462E-02  0.1249399E+00
         -1   -1    0    0    0  501 -0.00000000000E+00  0.00000000000E+00  0.90722600816E+02  0.90722600816E+02  0.00000000000E+00 0.  1.
          1   -1    0    0  501    0  0.00000000000E+00 -0.00000000000E+00 -0.20127505913E+03  0.20127505913E+03  0.00000000000E+00 0. -1.
         23    2    1    2    0    0 -0.76477327017E+02 -0.47109342051E+01 -0.23968647527E+02  0.12166070122E+03  0.91410369808E+02 0.  0.
         23    2    1    2    0    0  0.76477327017E+02  0.47109342051E+01 -0.86583810792E+02  0.17033695873E+03  0.12508776427E+03 0.  0.
          5    1    4    4  502    0 -0.33295832867E+02  0.13664659654E+02 -0.17286174940E+02  0.40144982922E+02  0.41800000000E+01 0.  1.
         -5    1    4    4    0  502  0.10977315988E+03 -0.89537254485E+01 -0.69297635851E+02  0.13019197581E+03  0.41800000000E+01 0.  1.
        -11    1    3    3    0    0 -0.79024207480E+01  0.13027547572E+02  0.29305893478E+02  0.33030298848E+02  0.00000000000E+00 0.  1.
         11    1    3    3    0    0 -0.68574906269E+02 -0.17738481777E+02 -0.53274541005E+02  0.88630402373E+02  0.00000000000E+00 0. -1.
</event>
<event>
 8    1  0.5900800E-006  0.1398898E+03  0.7561462E-02  0.1213477E+00
          2   -1    0    0  501    0  0.00000000000E+00  0.00000000000E+00  0.13187189762E+03  0.13187189762E+03  0.00000000000E+00 0. -1.
         -2   -1    0    0    0  501 -0.00000000000E+00 -0.00000000000E+00 -0.21094480989E+03  0.21094480989E+03  0.00000000000E+00 0.  1.
         23    2    1    2    0    0 -0.14894571713E+02  0.11738506729E+03 -0.83575042993E+02  0.17056593423E+03  0.90038035416E+02 0.  0.
         23    2    1    2    0    0  0.14894571713E+02 -0.11738506729E+03  0.45021307195E+01  0.17225077328E+03  0.12509579300E+03 0.  0.
          5    1    4    4  502    0 -0.41036507377E+02 -0.36287457389E+02 -0.35968158454E+02  0.65665480460E+02  0.41800000000E+01 0.  1.
         -5    1    4    4    0  502  0.55931079090E+02 -0.81097609897E+02  0.40470289174E+02  0.10658529282E+03  0.41800000000E+01 0.  1.
        -11    1    3    3    0    0  0.68372109313E+01  0.94246606640E+02 -0.15909153136E+02  0.95824169550E+02  0.00000000000E+00 0.  1.
         11    1    3    3    0    0 -0.21731782644E+02  0.23138460646E+02 -0.67665889857E+02  0.74741764684E+02  0.00000000000E+00 0. -1.
</event>
<event>
 8    1  0.5900800E-006  0.1008322E+03  0.7561462E-02  0.1278556E+00
         -2   -1    0    0    0  501 -0.00000000000E+00  0.00000000000E+00  0.14057063599E+02  0.14057063599E+02  0.00000000000E+00 0.  1.
          2   -1    0    0  501    0  0.00000000000E+00 -0.00000000000E+00 -0.10002955276E+04  0.10002955276E+04  0.00000000000E+00 0. -1.
         23    2    1    2    0    0  0.25026520079E+02 -0.36597340505E+01 -0.24691732871E+03  0.26409751530E+03  0.90219787253E+02 0.  0.
         23    2    1    2    0    0 -0.25026520079E+02  0.36597340505E+01 -0.73932113533E+03  0.75025507593E+03  0.12508883827E+03 0.  0.
          5    1    4    4  502    0  0.23691969648E+02  0.52331804643E+02 -0.38431943848E+03  0.38861141311E+03  0.41800000000E+01 0.  1.
         -5    1    4    4    0  502 -0.48718489727E+02 -0.48672070592E+02 -0.35500169685E+03  0.36164366282E+03  0.41800000000E+01 0.  1.
        -11    1    3    3    0    0 -0.12347409764E+02  0.25062884295E+02 -0.25858751414E+02  0.38069432906E+02  0.00000000000E+00 0.  1.
         11    1    3    3    0    0  0.37373929843E+02 -0.28722618346E+02 -0.22105857730E+03  0.22602808240E+03  0.00000000000E+00 0. -1.
</event>
<event>
 8    1  0.5900800E-006  0.8340388E+02  0.7561462E-02  0.1319660E+00
         -1   -1    0    0    0  501 -0.00000000000E+00  0.00000000000E+00  0.26283039619E+03  0.26283039619E+03  0.00000000000E+00 0.  1.
          1   -1    0    0  501    0  0.00000000000E+00 -0.00000000000E+00 -0.60501504079E+02  0.60501504079E+02  0.00000000000E+00 0. -1.
         23    2    1    2    0    0  0.11049761437E+02  0.14507934385E+02  0.17816264315E+03  0.20146863353E+03  0.92277329257E+02 0.  0.
         23    2    1    2    0    0 -0.11049761437E+02 -0.14507934385E+02  0.24166248968E+02  0.12186326674E+03  0.11804266519E+03 0.  0.
          5    1    4    4  502    0  0.28369763208E+02 -0.30877073534E+02 -0.30763647573E+02  0.52173858842E+02  0.41800000000E+01 0. -1.
         -5    1    4    4    0  502 -0.39419524645E+02  0.16369139149E+02  0.54929896541E+02  0.69689407901E+02  0.41800000000E+01 0.  1.
        -11    1    3    3    0    0 -0.19534301387E+02  0.38325807661E+02  0.14229877681E+03  0.14865866387E+03  0.00000000000E+00 0.  1.
         11    1    3    3    0    0  0.30584062824E+02 -0.23817873276E+02  0.35863866338E+02  0.52809969654E+02  0.00000000000E+00 0. -1.
</event>
<event>
 8    1  0.5900800E-006  0.9586347E+02  0.7561462E-02  0.1289243E+00
          4   -1    0    0  501    0  0.00000000000E+00  0.00000000000E+00  0.98368156242E+02  0.98368156242E+02  0.00000000000E+00 0. -1.
         -4   -1    0    0    0  501 -0.00000000000E+00 -0.00000000000E+00 -0.34977201196E+03  0.34977201196E+03  0.00000000000E+00 0.  1.
         23    2    1    2    0    0  0.57962597268E+02 -0.41695237133E+02 -0.27648392127E+03  0.30194080110E+03  0.98115916996E+02 0.  0.
         23    2    1    2    0    0 -0.57962597268E+02  0.41695237133E+02  0.25080065557E+02  0.14619936709E+03  0.12508832787E+03 0.  0.
          5    1    4    4  502    0  0.80877941260E+01  0.16441560040E+02  0.63075409432E+02  0.65815780672E+02  0.41800000000E+01 0. -1.
         -5    1    4    4    0  502 -0.66050391394E+02  0.25253677093E+02 -0.37995343875E+02  0.80383586423E+02  0.41800000000E+01 0. -1.
        -11    1    3    3    0    0  0.14474837084E+02 -0.54797816260E+02 -0.67790234586E+02  0.88361968520E+02  0.00000000000E+00 0. -1.
         11    1    3    3    0    0  0.43487760184E+02  0.13102579127E+02 -0.20869368669E+03  0.21357883258E+03  0.00000000000E+00 0.  1.
</event>
<event>
 8    1  0.5900800E-006  0.1031636E+03  0.7561462E-02  0.1273781E+00
          1   -1    0    0  501    0  0.00000000000E+00  0.00000000000E+00  0.25096816249E+03  0.25096816249E+03  0.00000000000E+00 0. -1.
         -1   -1    0    0    0  501 -0.00000000000E+00 -0.00000000000E+00 -0.61546002522E+02  0.61546002522E+02  0.00000000000E+00 0.  1.
         23    2    1    2    0    0 -0.35728456428E+02 -0.10433014898E+02  0.18032969793E+02  0.97086948542E+02  0.87836878241E+02 0.  0.
         23    2    1    2    0    0  0.35728456428E+02  0.10433014898E+02  0.17138919017E+03  0.21542721647E+03  0.12509700511E+03 0.  0.
          5    1    4    4  502    0 -0.42296388010E+02 -0.19526820868E+02  0.58344531265E+02  0.74778592528E+02  0.41800000000E+01 0.  1.
         -5    1    4    4    0  502  0.78024844437E+02  0.29959835765E+02  0.11304465891E+03  0.14064862394E+03  0.41800000000E+01 0.  1.
        -11    1    3    3    0    0 -0.51894274689E+02 -0.21612953323E+02  0.38945286156E+02  0.68387651009E+02  0.00000000000E+00 0. -1.
         11    1    3    3    0    0  0.16165818261E+02  0.11179938426E+02 -0.20912316363E+02  0.28699297533E+02  0.00000000000E+00 0.  1.
</event>
<event>
 7    1  0.5900800E-006  0.8594246E+02  0.7561462E-02  0.1312986E+00
         -3   -1    0    0    0  501 -0.00000000000E+00  0.00000000000E+00  0.24527004331E+03  0.24527004331E+03  0.00000000000E+00 0.  1.
          3   -1    0    0  501    0  0.00000000000E+00 -0.00000000000E+00 -0.32545056080E+02  0.32545056080E+02  0.00000000000E+00 0. -1.
         23    2    1    2    0    0  0.13191557538E+02  0.57089199164E+01  0.11861814115E+03  0.17298630355E+03  0.12508952334E+03 0.  0.
          5    1    3    3  502    0  0.10003744307E+02 -0.59411998692E+02  0.52280352699E+02  0.79878458717E+02  0.41800000000E+01 0. -1.
         -5    1    3    3    0  502  0.31878132318E+01  0.65120918608E+02  0.66337788450E+02  0.93107844836E+02  0.41800000000E+01 0. -1.
        -11    1    1    2    0    0 -0.23341394985E+02  0.11621968909E+02  0.51437936792E+02  0.57669335201E+02  0.00000000000E+00 0.  1.
         11    1    1    2    0    0  0.10149837446E+02 -0.17330888825E+02  0.42668909292E+02  0.47159460640E+02  0.00000000000E+00 0. -1.
</event>
<event>
 8    1  0.5900800E-006  0.1021872E+03  0.7561462E-02  0.1275763E+00
         -2   -1    0    0    0  501 -0.00000000000E+00  0.00000000000E+00  0.44835217884E+03  0.44835217884E+03  0.00000000000E+00 0.  1.
          2   -1    0    0  501    0  0.00000000000E+00 -0.00000000000E+00 -0.27501231877E+02  0.27501231877E+02  0.00000000000E+00 0. -1.
         23    2    1    2    0    0  0.16887568057E+02 -0.34327572453E+01  0.22884125332E+03  0.24604418213E+03  0.88726808596E+02 0.  0.
         23    2    1    2    0    0 -0.16887568057E+02  0.34327572453E+01  0.19200969364E+03  0.22980922858E+03  0.12509030863E+03 0.  0.
          5    1    4    4  502    0 -0.65699185534E+02  0.17636464881E+00  0.15475897324E+03  0.16817914937E+03  0.41800000000E+01 0.  1.
         -5    1    4    4    0  502  0.48811617477E+02  0.32563925965E+01  0.37250720404E+02  0.61630079215E+02  0.41800000000E+01 0.  1.
        -11    1    3    3    0    0  0.53034985467E+02 -0.49420949868E+01  0.15321287572E+03  0.16220764246E+03  0.00000000000E+00 0.  1.
         11    1    3    3    0    0 -0.36147417411E+02  0.15093377414E+01  0.75628377596E+02  0.83836539669E+02  0.00000000000E+00 0. -1.
</event>
<event>
 8    1  0.5900800E-006  0.1570117E+03  0.7561462E-02  0.1192112E+00
         -3   -1    0    0    0  501 -0.00000000000E+00  0.00000000000E+00  0.16752020714E+03  0.16752020714E+03  0.00000000000E+00 0. -1.
          3   -1    0    0  501    0  0.00000000000E+00 -0.00000000000E+00 -0.26076009169E+03  0.26076009169E+03  0.00000000000E+00 0.  1.
         23    2    1    2    0    0  0.81401346927E+02 -0.10988021485E+03  0.71985469049E+02  0.17999365944E+03  0.92282006853E+02 0.  0.
         23    2    1    2    0    0 -0.81401346927E+02  0.10988021485E+03 -0.16522535360E+03  0.24828663939E+03  0.12508795678E+03 0.  0.
          5    1    4    4  502    0 -0.97577780113E+02  0.40382603161E+02 -0.61374269924E+02  0.12221477496E+03  0.41800000000E+01 0.  1.
         -5    1    4    4    0  502  0.16176433186E+02  0.69497611688E+02 -0.10385108367E+03  0.12607186443E+03  0.41800000000E+01 0.  1.
        -11    1    3    3    0    0  0.14479595926E+02 -0.23260456238E+02 -0.22453860020E+02  0.35424332773E+02  0.00000000000E+00 0.  1.
         11    1    3    3    0    0  0.66921751000E+02 -0.86619758611E+02  0.94439329069E+02  0.14456932667E+03  0.00000000000E+00 0. -1.
</event>
<event>
 8    1  0.5900800E-006  0.9408822E+02  0.7561462E-02  0.1293243E+00
          2   -1    0    0  501    0  0.00000000000E+00  0.00000000000E+00  0.61639557881E+03  0.61639557881E+03  0.00000000000E+00 0. -1.
         -2   -1    0    0    0  501 -0.00000000000E+00 -0.00000000000E+00 -0.18239081316E+02  0.18239081316E+02  0.00000000000E+00 0.  1.
         23    2    1    2    0    0  0.25550895652E+02 -0.99553018455E+01  0.23130154253E+03  0.24607531005E+03  0.79376938294E+02 0.  0.
         23    2    1    2    0    0 -0.25550895652E+02  0.99553018455E+01  0.36685495496E+03  0.38855935008E+03  0.12507539427E+03 0.  0.
          5    1    4    4  502    0 -0.57612621290E+02  0.41133737824E+02  0.29820566012E+03  0.30652126622E+03  0.41800000000E+01 0.  1.
         -5    1    4    4    0  502  0.32061725638E+02 -0.31178435978E+02  0.68649294844E+02  0.82038083860E+02  0.41800000000E+01 0.  1.
        -11    1    3    3    0    0 -0.22394112650E+02  0.32192772232E+01  0.24365962864E+02  0.33249965016E+02  0.00000000000E+00 0.  1.
         11    1    3    3    0    0  0.47945008302E+02 -0.13174579069E+02  0.20693557967E+03  0.21282534503E+03  0.00000000000E+00 0. -1.
</event>
<event>
 8    1  0.5900800E-006  0.9650203E+02  0.7561462E-02  0.1287829E+00
          2   -1    0    0  501    0  0.00000000000E+00  0.00000000000E+00  0.81814989977E+03  0.81814989977E+03  0.00000000000E+00 0. -1.
         -2   -1    0    0    0  501 -0.00000000000E+00 -0.00000000000E+00 -0.17265517874E+02  0.17265517874E+02  0.00000000000E+00 0.  1.
         23    2    1    2    0    0 -0.22783600546E+02  0.14430076478E+01  0.19548773936E+03  0.21680630247E+03  0.90930422986E+02 0.  0.
         23    2    1    2    0    0  0.22783600546E+02 -0.14430076478E+01  0.60539664254E+03  0.61860911518E+03  0.12510382833E+03 0.  0.
          5    1    4    4  502    0  0.30473284965E+02  0.51665276208E+02  0.17900657573E+03  0.18883524146E+03  0.41800000000E+01 0.  1.
         -5    1    4    4    0  502 -0.76896844188E+01 -0.53108283855E+02  0.42639006681E+03  0.42977387372E+03  0.41800000000E+01 0.  1.
        -11    1    3    3    0    0 -0.77763273559E+01 -0.36986641997E+02  0.36462364867E+02  0.52516540300E+02  0.00000000000E+00 0.  1.
         11    1    3    3    0    0 -0.15007273190E+02  0.38429649644E+02  0.15902537449E+03  0.16428976217E+03  0.00000000000E+00 0. -1.
</event>
<event>
 8    1  0.5900800E-006  0.1050774E+03  0.7561462E-02  0.1269967E+00
         -1   -1    0    0    0  501 -0.00000000000E+00  0.00000000000E+00  0.39082684126E+02  0.39082684126E+02  0.00000000000E+00 0.  1.
          1   -1    0    0  501    0  0.00000000000E+00 -0.00000000000E+00 -0.45723827328E+03  0.45723827328E+03  0.00000000000E+00 0. -1.
         23    2    1    2    0    0 -0.63632081488E+02  0.35119932672E+02 -0.13943046828E+03  0.18227782011E+03  0.92205730586E+02 0.  0.
         23    2    1    2    0    0  0.63632081488E+02 -0.35119932672E+02 -0.27872512088E+03  0.31404313730E+03  0.12511174050E+03 0.  0.
          5    1    4    4  502    0 -0.34410946037E+02 -0.80861855419E+01 -0.35012406005E+02  0.49928354450E+02  0.41800000000E+01 0.  1.
         -5    1    4    4    0  502  0.98043027525E+02 -0.27033747130E+02 -0.24371271487E+03  0.26411478285E+03  0.41800000000E+01 0.  1.
        -11    1    3    3    0    0 -0.40488039652E+02  0.24341343330E+02 -0.74196662093E+01  0.47820851065E+02  0.00000000000E+00 0.  1.
         11    1    3    3    0    0 -0.23144041836E+02  0.10778589342E+02 -0.13201080207E+03  0.13445696904E+03  0.00000000000E+00 0. -1.
</event>
<event>
 8    1  0.5900800E-006  0.2026397E+03  0.7561462E-02  0.1147531E+00
         -1   -1    0    0    0  501 -0.00000000000E+00  0.00000000000E+00  0.11374184572E+03  0.11374184572E+03  0.00000000000E+00 0.  1.
          1   -1    0    0  501    0  0.00000000000E+00 -0.00000000000E+00 -0.45526446873E+03  0.45526446873E+03  0.00000000000E+00 0. -1.
         23    2    1    2    0    0  0.38435893385E+02  0.19524498878E+03 -0.14664813403E+03  0.26368407989E+03  0.91791585805E+02 0.  0.
         23    2    1    2    0    0 -0.38435893385E+02 -0.19524498878E+03 -0.19487448898E+03  0.30532223456E+03  0.12509067479E+03 0.  0.
          5    1    4    4  502    0 -0.10398620017E+02 -0.10852725378E+03 -0.24143451089E+02  0.11174379062E+03  0.41800000000E+01 0. -1.
         -5    1    4    4    0  502 -0.28037273369E+02 -0.86717735004E+02 -0.17073103789E+03  0.19357844395E+03  0.41800000000E+01 0. -1.
        -11    1    3    3    0    0  0.20574114300E+02  0.19681813205E+02  0.74192984004E+01  0.29423017164E+02  0.00000000000E+00 0.  1.
         11    1    3    3    0    0  0.17861779085E+02  0.17556317558E+03 -0.15406743243E+03  0.23426106272E+03  0.00000000000E+00 0. -1.
</event>
<event>
 8    1  0.5900800E-006  0.4555030E+02  0.7561462E-02  0.1470935E+00
          1   -1    0    0  501    0  0.00000000000E+00  0.00000000000E+00  0.74679232775E+02  0.74679232775E+02  0.00000000000E+00 0. -1.
         -1   -1    0    0    0  501 -0.00000000000E+00 -0.00000000000E+00 -0.16093606733E+03  0.16093606733E+03  0.00000000000E+00 0.  1.
         23    2    1    2    0    0  0.91622655888E+01 -0.26331495744E+02 -0.62797180554E+02  0.10426500991E+03  0.78424560106E+02 0.  0.
         23    2    1    2    0    0 -0.91622655888E+01  0.26331495744E+02 -0.23459653996E+02  0.13135029019E+03  0.12619527958E+03 0.  0.
          5    1    4    4  502    0 -0.80521438915E+01  0.22967172537E+02  0.51013373389E+02  0.56675962278E+02  0.41800000000E+01 0. -1.
         -5    1    4    4    0  502 -0.11101216973E+01  0.33643232069E+01 -0.74473027386E+02  0.74674327910E+02  0.41800000000E+01 0. -1.
        -11    1    3    3    0    0  0.89173452704E+01  0.16148163283E+02  0.92428447709E+01  0.20632799217E+02  0.00000000000E+00 0. -1.
         11    1    3    3    0    0  0.24492031842E+00 -0.42479659027E+02 -0.72040025325E+02  0.83632210696E+02  0.00000000000E+00 0.  1.
</event>
<event>
 8    1  0.5900800E-006  0.1174584E+03  0.7561462E-02  0.1247350E+00
          4   -1    0    0  501    0  0.00000000000E+00  0.00000000000E+00  0.45994032228E+03  0.45994032228E+03  0.00000000000E+00 0.  1.
         -4   -1    0    0    0  501 -0.00000000000E+00 -0.00000000000E+00 -0.33365007735E+02  0.33365007735E+02  0.00000000000E+00 0. -1.
         23    2    1    2    0    0 -0.24726901840E+01 -0.64446419290E+02  0.15906962886E+03  0.19103699419E+03  0.83860188231E+02 0.  0.
         23    2    1    2    0    0  0.24726901840E+01  0.64446419290E+02  0.26750568569E+03  0.30226833582E+03  0.12508956714E+03 0.  0.
          5    1    4    4  502    0 -0.53422475139E+02  0.10697439593E+02  0.62346006218E+02  0.82902912827E+02  0.41800000000E+01 0. -1.
         -5    1    4    4    0  502  0.55895165323E+02  0.53748979698E+02  0.20515967947E+03  0.21936542299E+03  0.41800000000E+01 0. -1.
        -11    1    3    3    0    0  0.10570908561E+02  0.17061715462E+02  0.52722540563E+02  0.56413761847E+02  0.00000000000E+00 0.  1.
         11    1    3    3    0    0 -0.13043598745E+02 -0.81508134753E+02  0.10634708829E+03  0.13462323235E+03  0.00000000000E+00 0. -1.
</event>
<event>
 7    1  0.5900800E-006  0.1331639E+03  0.7561462E-02  0.1222835E+00
         -1   -1    0    0    0  501 -0.00000000000E+00  0.00000000000E+00  0.14721687342E+02  0.14721687342E+02  0.00000000000E+00 0.  1.
          1   -1    0    0  501    0  0.00000000000E+00 -0.00000000000E+00 -0.13731667016E+04  0.13731667016E+04  0.00000000000E+00 0. -1.
         23    2    1    2    0    0  0.51466428848E+02 -0.15507646628E+02 -0.34793905983E+03  0.36332647346E+03  0.89751081103E+02 0.  0.
          5    1    1    2  502    0 -0.52818603248E+02  0.83983551389E+02 -0.65648187000E+03  0.66394951599E+03  0.41800000000E+01 0. -1.
         -5    1    1    2    0  502  0.13521744005E+01 -0.68475904761E+02 -0.35402408444E+03  0.36061239950E+03  0.41800000000E+01 0.  1.
        -11    1    3    3    0    0 -0.18503549464E+02 -0.21284384923E+02 -0.51813288369E+02  0.58991721758E+02  0.00000000000E+00 0. -1.
         11    1    3    3    0    0  0.69969978312E+02  0.57767382944E+01 -0.29612577147E+03  0.30433475171E+03  0.00000000000E+00 0.  1.
</event>
<event>
 8    1  0.5900800E-006  0.1043570E+03  0.7561462E-02  0.1271392E+00
          1   -1    0    0  501    0  0.00000000000E+00  0.00000000000E+00  0.11513193486E+04  0.11513193486E+04  0.00000000000E+00 0. -1.
         -1   -1    0    0    0  501 -0.00000000000E+00 -0.00000000000E+00 -0.12373797438E+02  0.12373797438E+02  0.00000000000E+00 0.  1.
         23    2    1    2    0    0 -0.13227808889E+02  0.14816535923E+02  0.28530711991E+03  0.30070962129E+03  0.92906506762E+02 0.  0.
         23    2    1    2    0    0  0.13227808889E+02 -0.14816535923E+02  0.85363843129E+03  0.86298352479E+03  0.12508991973E+03 0.  0.
          5    1    4    4  502    0  0.47552630973E+02 -0.51211476105E+02  0.35595048761E+03  0.36277002361E+03  0.41800000000E+01 0.  1.
         -5    1    4    4    0  502 -0.34324822084E+02  0.36394940182E+02  0.49768794368E+03  0.50021350118E+03  0.41800000000E+01 0.  1.
        -11    1    3    3    0    0 -0.18929806746E+02  0.49685898840E+02  0.22130391106E+03  0.22760150961E+03  0.00000000000E+00 0. -1.
         11    1    3    3    0    0  0.57019978573E+01 -0.34869362917E+02  0.64003208855E+02  0.73108111680E+02  0.00000000000E+00 0.  1.
</event>
<event>
 8    1  0.5900800E-006  0.1165824E+03  0.7561462E-02  0.1248844E+00
          1   -1    0    0  501    0  0.00000000000E+00  0.00000000000E+00  0.77668864523E+02  0.77668864523E+02  0.00000000000E+00 0. -1.
         -1   -1    0    0    0  501 -0.00000000000E+00 -0.00000000000E+00 -0.21452493682E+03  0.21452493682E+03  0.00000000000E+00 0.  1.
         23    2    1    2    0    0 -0.58633493356E+01  0.54791826371E+02 -0.10785391521E+03  0.15246404728E+03  0.92608291120E+02 0.  0.
         23    2    1    2    0    0  0.58633493356E+01 -0.54791826371E+02 -0.29002157086E+02  0.13972975406E+03  0.12508699354E+03 0.  0.
          5    1    4    4  502    0  0.61740454416E+02 -0.46874029482E+02 -0.36389101627E+01  0.77715972738E+02  0.41800000000E+01 0. -1.
         -5    1    4    4    0  502 -0.55877105081E+02 -0.79177968891E+01 -0.25363246923E+02  0.62013781325E+02  0.41800000000E+01 0. -1.
        -11    1    3    3    0    0  0.23621631109E+02 -0.11587748285E+02 -0.59912964106E+02  0.65435622061E+02  0.00000000000E+00 0.  1.
         11    1    3    3    0    0 -0.29484980445E+02  0.66379574656E+02 -0.47940951109E+02  0.87028425222E+02  0.00000000000E+00 0. -1.
</event>
<event>
 8    1  0.5900800E-006  0.9067046E+02  0.7561462E-02  0.1301236E+00
         -4   -1    0    0    0  501 -0.00000000000E+00  0.00000000000E+00  0.36485448279E+02  0.36485448279E+02  0.00000000000E+00 0.  1.
          4   -1    0    0  501    0  0.00000000000E+00 -0.00000000000E+00 -0.37390478253E+03  0.37390478253E+03  0.00000000000E+00 0. -1.
         23    2    1    2    0    0 -0.28353793950E+02  0.83911347171E+01 -0.83327257314E+02  0.12597084365E+03  0.89726656386E+02 0.  0.
         23    2    1    2    0    0  0.28353793950E+02 -0.83911347171E+01 -0.25409207694E+03  0.28441938715E+03  0.12432721124E+03 0.  0.
          5    1    4    4  502    0 -0.26168301577E+02  0.19157819582E+02 -0.20019348842E+03  0.20284651159E+03  0.41800000000E+01 0. -1.
         -5    1    4    4    0  502  0.54522095527E+02 -0.27548954299E+02 -0.53898588512E+02  0.81572875560E+02  0.41800000000E+01 0.  1.
        -11    1    3    3    0    0 -0.54397510111E+02  0.21207106947E+02 -0.76354373416E+02  0.96118785006E+02  0.00000000000E+00 0.  1.
         11    1    3    3    0    0  0.26043716161E+02 -0.12815972230E+02 -0.69728838979E+01  0.29852058648E+02  0.00000000000E+00 0. -1.
</event>
<event>
 8    1  0.5900800E-006  0.9992229E+02  0.7561462E-02  0.1280459E+00
          1   -1    0    0  501    0  0.00000000000E+00  0.00000000000E+00  0.16864038877E+03  0.16864038877E+03  0.00000000000E+00 0. -1.
         -1   -1    0    0    0  501 -0.00000000000E+00 -0.00000000000E+00 -0.11025170457E+03  0.11025170457E+03  0.00000000000E+00 0.  1.
         23    2    1    2    0    0  0.45079398077E+02  0.43721004568E+02 -0.28882703203E+02  0.11430176933E+03  0.91032991582E+02 0.  0.
         23    2    1    2    0    0 -0.45079398077E+02 -0.43721004568E+02  0.87271387408E+02  0.16459032401E+03  0.12461942595E+03 0.  0.
          5    1    4    4  502    0 -0.64920509152E+02 -0.62066452405E+02  0.20193186541E+02  0.92152884954E+02  0.41800000000E+01 0.  1.
         -5    1    4    4    0  502  0.19841111076E+02  0.18345447836E+02  0.67078200867E+02  0.72437439053E+02  0.41800000000E+01 0.  1.
        -11    1    3    3    0    0  0.54633087961E+02  0.22070619923E+02 -0.53906047183E+02  0.79860806951E+02  0.00000000000E+00 0.  1.
         11    1    3    3    0    0 -0.95536898842E+01  0.21650384646E+02  0.25023343980E+02  0.34440962380E+02  0.00000000000E+00 0. -1.
</event>
<event>
 8    1  0.5900800E-006  0.1538631E+03  0.7561462E-02  0.1195805E+00
         -1   -1    0    0    0  501 -0.00000000000E+00  0.00000000000E+00  0.12320847442E+03  0.12320847442E+03  0.00000000000E+00 0.  1.
          1   -1    0    0  501    0  0.00000000000E+00 -0.00000000000E+00 -0.51177209765E+03  0.51177209765E+03  0.00000000000E+00 0. -1.
         23    2    1    2    0    0 -0.20310083398E+01 -0.14603088050E+03  0.32512082640E+02  0.17207557037E+03  0.84993078229E+02 0.  0.
         23    2    1    2    0    0  0.20310083398E+01  0.14603088050E+03 -0.42107570587E+03  0.46290500170E+03  0.12508855852E+03 0.  0.
          5    1    4    4  502    0  0.34737976699E+02  0.59268496149E+02 -0.31284285107E+03  0.32032421626E+03  0.41800000000E+01 0.  1.
         -5    1    4    4    0  502 -0.32706968359E+02  0.86762384350E+02 -0.10823285480E+03  0.14258078543E+03  0.41800000000E+01 0.  1.
        -11    1    3    3    0    0 -0.64150335031E+00 -0.12733746914E+03 -0.78420052132E+01  0.12758032614E+03  0.00000000000E+00 0. -1.
         11    1    3    3    0    0 -0.13895049895E+01 -0.18693411360E+02  0.40354087853E+02  0.44495244227E+02  0.00000000000E+00 0.  1.
</event>
<event>
 8    1  0.5900800E-006  0.1980597E+03  0.7561462E-02  0.1151386E+00
         -2   -1    0    0    0  501 -0.00000000000E+00  0.00000000000E+00  0.10618113483E+03  0.10618113483E+03  0.00000000000E+00 0.  1.
          2   -1    0    0  501    0  0.00000000000E+00 -0.00000000000E+00 -0.66990933516E+03  0.66990933516E+03  0.00000000000E+00 0. -1.
         23    2    1    2    0    0 -0.16478567171E+03  0.10026878350E+03 -0.61220144925E+02  0.22348788585E+03  0.94819736517E+02 0.  0.
         23    2    1    2    0    0  0.16478567171E+03 -0.10026878350E+03 -0.50250805541E+03  0.55260258414E+03  0.12508846352E+03 0.  0.
          5    1    4    4  502    0  0.53319614697E+02 -0.39876945408E+02 -0.52019631131E+02  0.84597083339E+02  0.41800000000E+01 0. -1.
         -5    1    4    4    0  502  0.11146605701E+03 -0.60391838095E+02 -0.45048842428E+03  0.46800550080E+03  0.41800000000E+01 0. -1.
        -11    1    3    3    0    0 -0.12262203573E+03  0.10323862198E+03 -0.15217750689E+02  0.16101539259E+03  0.00000000000E+00 0.  1.
         11    1    3    3    0    0 -0.42163635976E+02 -0.29698384730E+01 -0.46002394236E+02  0.62472493264E+02  0.00000000000E+00 0. -1.
</event>
<event>
 8    1  0.5900800E-006  0.9383041E+02  0.7561462E-02  0.1293832E+00
          2   -1    0    0  501    0  0.00000000000E+00  0.00000000000E+00  0.21973993857E+03  0.21973993857E+03  0.00000000000E+00 0. -1.
         -2   -1    0    0    0  501 -0.00000000000E+00 -0.00000000000E+00 -0.15132374289E+03  0.15132374289E+03  0.00000000000E+00 0.  1.
         23    2    1    2    0    0 -0.12510198194E+02  0.66718380685E+02 -0.97498562832E+02  0.15247017989E+03  0.95568502236E+02 0.  0.
         23    2    1    2    0    0  0.12510198194E+02 -0.66718380685E+02  0.16591475852E+03  0.21859350157E+03  0.12509022526E+03 0.  0.
          5    1    4    4  502    0 -0.36791504828E+01 -0.41935518304E+02 -0.72037685690E+01  0.42912591687E+02  0.41800000000E+01 0.  1.
         -5    1    4    4    0  502  0.16189348677E+02 -0.24782862381E+02  0.17311852709E+03  0.17568090989E+03  0.41800000000E+01 0.  1.
        -11    1    3    3    0    0  0.38544295100E+02  0.46872825175E+02 -0.64319134087E+02  0.88428928719E+02  0.00000000000E+00 0. -1.
         11    1    3    3    0    0 -0.51054493294E+02  0.19845555510E+02 -0.33179428746E+02  0.64041251166E+02  0.00000000000E+00 0.  1.
</event>
<event>
 8    1  0.5900800E-006  0.9386253E+02  0.7561462E-02  0.1293759E+00
          2   -1    0    0  501    0  0.00000000000E+00  0.00000000000E+00  0.16122578709E+03  0.16122578709E+03  0.00000000000E+00 0. -1.
         -2   -1    0    0    0  501 -0.00000000000E+00 -0.00000000000E+00 -0.93277947100E+02  0.93277947100E+02  0.00000000000E+00 0.  1.
         23    2    1    2    0    0 -0.46285674234E+02  0.34542358211E+02  0.30594140056E+02  0.11175216066E+03  0.90647701884E+02 0.  0.
         23    2    1    2    0    0  0.46285674234E+02 -0.34542358211E+02  0.37353699937E+02  0.14275157353E+03  0.12508866734E+03 0.  0.
          5    1    4    4  502    0 -0.12739923752E+02  0.13679038890E+02 -0.33508396615E+02  0.38596720144E+02  0.41800000000E+01 0. -1.
         -5    1    4    4    0  502  0.59025597987E+02 -0.48221397101E+02  0.70862096551E+02  0.10415485339E+03  0.41800000000E+01 0. -1.
        -11    1    3    3    0    0 -0.16753942614E+01  0.46118827705E+02 -0.13381470856E+02  0.48050150645E+02  0.00000000000E+00 0.  1.
         11    1    3    3    0    0 -0.44610279973E+02 -0.11576469493E+02  0.43975610912E+02  0.63702010018E+02  0.00000000000E+00 0. -1.
</event>
<event>
 7    1  0.5900800E-006  0.1925548E+03  0.7561462E-02  0.1156177E+00
         -2   -1    0    0    0  501 -0.00000000000E+00  0.00000000000E+00  0.47912142328E+02  0.47912142328E+02  0.00000000000E+00 0.  1.
          2   -1    0    0  501    0  0.00000000000E+00 -0.00000000000E+00 -0.11077382714E+04  0.11077382714E+04  0.00000000000E+00 0. -1.
         23    2    1    2    0    0 -0.77068434673E+02  0.15410677572E+03 -0.87866793907E+03  0.90409609522E+03  0.12507581820E+03 0.  0.
          5    1    3    3  502    0  0.33358883759E+02  0.26556826852E+02 -0.14075357277E+03  0.14712960554E+03  0.41800000000E+01 0.  1.
         -5    1    3    3    0  502 -0.11042731843E+03  0.12754994887E+03 -0.73791436630E+03  0.75696648968E+03  0.41800000000E+01 0.  1.
        -11    1    1    2    0    0  0.63866232452E+00 -0.13102116352E+02 -0.72853739462E+01  0.15004999700E+02  0.00000000000E+00 0. -1.
         11    1    1    2    0    0  0.76429772349E+02 -0.14100465937E+03 -0.17387281606E+03  0.23654931881E+03  0.00000000000E+00 0.  1.
</event>
<event>
 8    1  0.5900800E-006  0.1192204E+03  0.7561462E-02  0.1244389E+00
          3   -1    0    0  501    0  0.00000000000E+00  0.00000000000E+00  0.72764557601E+02  0.72764557601E+02  0.00000000000E+00 0. -1.
         -3   -1    0    0    0  501 -0.00000000000E+00 -0.00000000000E+00 -0.28815426029E+03  0.28815426029E+03  0.00000000000E+00 0.  1.
         23    2    1    2    0    0  0.40130486779E+01 -0.60051291731E+02 -0.18824378199E+03  0.21945062953E+03  0.95397039507E+02 0.  0.
         23    2    1    2    0    0 -0.40130486779E+01  0.60051291731E+02 -0.27145920700E+02  0.14146818836E+03  0.12511628634E+03 0.  0.
          5    1    4    4  502    0 -0.24845071998E+02  0.87666252249E+02 -0.45667803276E+02  0.10200818615E+03  0.41800000000E+01 0.  1.
         -5    1    4    4    0  502  0.20832023320E+02 -0.27614960518E+02  0.18521882575E+02  0.39460002207E+02  0.41800000000E+01 0.  1.
        -11    1    3    3    0    0 -0.33095488155E+02 -0.66908558730E+02 -0.13366826660E+03  0.15309889635E+03  0.00000000000E+00 0. -1.
         11    1    3    3    0    0  0.37108536832E+02  0.68572669991E+01 -0.54575515387E+02  0.66351733183E+02  0.00000000000E+00 0.  1.
</event>
<event>
 8    1  0.5900800E-006  0.1478542E+03  0.7561462E-02  0.1203135E+00
         -1   -1    0    0    0  501 -0.00000000000E+00  0.00000000000E+00  0.92316224316E+02  0.92316224316E+02  0.00000000000E+00 0.  1.
          1   -1    0    0  501    0  0.00000000000E+00 -0.00000000000E+00 -0.34275111644E+03  0.34275111644E+03  0.00000000000E+00 0. -1.
         23    2    1    2    0    0 -0.11398013856E+03 -0.30739069168E+00 -0.17762431982E+02  0.14736216000E+03  0.91698068328E+02 0.  0.
         23    2    1    2    0    0  0.11398013856E+03  0.30739069168E+00 -0.23267246015E+03  0.28770518076E+03  0.12508489456E+03 0.  0.
          5    1    4    4  502    0  0.81461119203E+02  0.46432206212E+02 -0.20335838474E+03  0.22397314294E+03  0.41800000000E+01 0.  1.
         -5    1    4    4    0  502  0.32519019361E+02 -0.46124815521E+02 -0.29314075410E+02  0.63732037816E+02  0.41800000000E+01 0.  1.
        -11    1    3    3    0    0  0.13699916646E+02  0.10300200207E+02  0.34893153956E+01  0.17491631209E+02  0.00000000000E+00 0. -1.
         11    1    3    3    0    0 -0.12768005521E+03 -0.10607590899E+02 -0.21251747378E+02  0.12987052880E+03  0.00000000000E+00 0.  1.
</event>
<event>
 8    1  0.5900800E-006  0.1687438E+03  0.7561462E-02  0.1179164E+00
          2   -1    0    0  501    0  0.00000000000E+00  0.00000000000E+00  0.11530654238E+04  0.11530654238E+04  0.00000000000E+00 0.  1.
         -2   -1    0    0    0  501 -0.00000000000E+00 -0.00000000000E+00 -0.49145761328E+02  0.49145761328E+02  0.00000000000E+00 0. -1.
         23    2    1    2    0    0 -0.10124590604E+03  0.10537006140E+03  0.14893443821E+03  0.22804584088E+03  0.92031816930E+02 0.  0.
         23    2    1    2    0    0  0.10124590604E+03 -0.10537006140E+03  0.95498522431E+03  0.97416534429E+03  0.12509099107E+03 0.  0.
          5    1    4    4  502    0 -0.50338766371E+01  0.17550301952E+02  0.24923064672E+03  0.24993347250E+03  0.41800000000E+01 0.  1.
         -5    1    4    4    0  502  0.10627978268E+03 -0.12292036335E+03  0.70575457759E+03  0.72423187179E+03  0.41800000000E+01 0.  1.
        -11    1    3    3    0    0 -0.12735444429E+02  0.50473749111E+02  0.77926139088E+01  0.52635688707E+02  0.00000000000E+00 0. -1.
         11    1    3    3    0    0 -0.88510461613E+02  0.54896312291E+02  0.14114182430E+03  0.17541015217E+03  0.00000000000E+00 0.  1.
</event>
<event>
 8    1  0.5900800E-006  0.2620375E+03  0.7561462E-02  0.1105925E+00
          2   -1    0    0  501    0  0.00000000000E+00  0.00000000000E+00  0.47996279957E+03  0.47996279957E+03  0.00000000000E+00 0. -1.
         -2   -1    0    0    0  501 -0.00000000000E+00 -0.00000000000E+00 -0.16331005302E+03  0.16331005302E+03  0.00000000000E+00 0.  1.
         23    2    1    2    0    0  0.25136945952E+03 -0.57204411808E+02  0.17221691301E+03  0.32238545392E+03  0.88401164367E+02 0.  0.
         23    2    1    2    0    0 -0.25136945952E+03  0.57204411808E+02  0.14443583354E+03  0.32088739866E+03  0.12509221677E+03 0.  0.
          5    1    4    4  502    0 -0.14876762936E+02  0.22093399616E+02  0.62584749234E+02  0.68145136428E+02  0.41800000000E+01 0.  1.
         -5    1    4    4    0  502 -0.23649269659E+03  0.35111012193E+02  0.81851084306E+02  0.25274226223E+03  0.41800000000E+01 0.  1.
        -11    1    3    3    0    0  0.17248209798E+03 -0.44020493015E+02  0.66959260420E+02  0.19018785578E+03  0.00000000000E+00 0. -1.
         11    1    3    3    0    0  0.78887361540E+02 -0.13183918794E+02  0.10525765259E+03  0.13219759814E+03  0.00000000000E+00 0.  1.
</event>
<event>
 8    1  0.5900800E-006  0.1566026E+03  0.7561462E-02  0.1192587E+00
         -3   -1    0    0    0  501 -0.00000000000E+00  0.00000000000E+00  0.61821056795E+03  0.61821056795E+03  0.00000000000E+00 0.  1.
          3   -1    0    0  501    0  0.00000000000E+00 -0.00000000000E+00 -0.44788377872E+02  0.44788377872E+02  0.00000000000E+00 0. -1.
         23    2    1    2    0    0  0.11366233008E+03  0.28472910869E+02  0.35881961442E+03  0.38835142450E+03  0.91298856996E+02 0.  0.
         23    2    1    2    0    0 -0.11366233008E+03 -0.28472910869E+02  0.21460257566E+03  0.27464752132E+03  0.12508862281E+03 0.  0.
          5    1    4    4  502    0 -0.13967831839E+03 -0.20257873016E+02  0.15951739666E+03  0.21303447206E+03  0.41800000000E+01 0.  1.
         -5    1    4    4    0  502  0.26015988306E+02 -0.82150378532E+01  0.55085178998E+02  0.61613049265E+02  0.41800000000E+01 0.  1.
        -11    1    3    3    0    0  0.80256930188E+02 -0.22597472097E+02  0.25066413041E+03  0.26416723275E+03  0.00000000000E+00 0.  1.
         11    1    3    3    0    0  0.33405399892E+02  0.51070382966E+02  0.10815548401E+03  0.12418419175E+03  0.00000000000E+00 0. -1.
</event>
<event>
 7    1  0.5900800E-006  0.5689226E+02  0.7561462E-02  0.1411356E+00
          2   -1    0    0  501    0  0.00000000000E+00  0.00000000000E+00  0.16117046895E+03  0.16117046895E+03  0.00000000000E+00 0.  1.
         -2   -1    0    0    0  501 -0.00000000000E+00 -0.00000000000E+00 -0.57350643376E+02  0.57350643376E+02  0.00000000000E+00 0. -1.
         23    2    1    2    0    0  0.91847154483E+01  0.20883003656E+02  0.10842420501E+03  0.16710430874E+03  0.12509029909E+03 0.  0.
          5    1    3    3  502    0 -0.22166456145E+02 -0.12636250205E+02  0.11734782209E+03  0.12016243317E+03  0.41800000000E+01 0.  1.
         -5    1    3    3    0  502  0.31351171593E+02  0.33519253861E+02 -0.89236170808E+01  0.46941875564E+02  0.41800000000E+01 0.  1.
        -11    1    1    2    0    0 -0.19190606253E+02 -0.24572966033E+02  0.10524348999E+02  0.32907019765E+02  0.00000000000E+00 0.  1.
         11    1    1    2    0    0  0.10005890805E+02  0.36899623762E+01 -0.15128728434E+02  0.18509783822E+02  0.00000000000E+00 0. -1.
</event>
<event>
 7    1  0.5900800E-006  0.1289804E+03  0.7561462E-02  0.1228977E+00
         -2   -1    0    0    0  501 -0.00000000000E+00  0.00000000000E+00  0.17173160493E+02  0.17173160493E+02  0.00000000000E+00 0.  1.
          2   -1    0    0  501    0  0.00000000000E+00 -0.00000000000E+00 -0.16618601401E+04  0.16618601401E+04  0.00000000000E+00 0. -1.
         23    2    1    2    0    0  0.51854816672E+02 -0.59146372656E+02 -0.33573110764E+03  0.35683330275E+03  0.91800947155E+02 0.  0.
          5    1    1    2  502    0 -0.78929844539E+02  0.93809721956E+02 -0.11694217803E+04  0.11758379807E+04  0.41800000000E+01 0. -1.
         -5    1    1    2    0  502  0.27075027867E+02 -0.34663349300E+02 -0.13953409174E+03  0.14636201719E+03  0.41800000000E+01 0.  1.
        -11    1    3    3    0    0  0.71601235958E+01  0.78169024880E+01  0.96610592297E+00  0.10644467815E+02  0.00000000000E+00 0. -1.
         11    1    3    3    0    0  0.44694693076E+02 -0.66963275144E+02 -0.33669721357E+03  0.34618883493E+03  0.00000000000E+00 0.  1.
</event>
<event>
 8    1  0.5900800E-006  0.1113787E+03  0.7561462E-02  0.1258038E+00
         -1   -1    0    0    0  501 -0.00000000000E+00  0.00000000000E+00  0.23822817958E+02  0.23822817958E+02  0.00000000000E+00 0.  1.
          1   -1    0    0  501    0  0.00000000000E+00 -0.00000000000E+00 -0.65305863087E+03  0.65305863087E+03  0.00000000000E+00 0. -1.
         23    2    1    2    0    0 -0.16331188115E+01 -0.61379616170E+02 -0.23980910171E+03  0.26327708451E+03  0.89645376924E+02 0.  0.
         23    2    1    2    0    0  0.16331188115E+01  0.61379616170E+02 -0.38942671119E+03  0.41360436432E+03  0.12508110342E+03 0.  0.
          5    1    4    4  502    0  0.15501747208E+02 -0.30843450988E+02 -0.45691166579E+02  0.57417573431E+02  0.41800000000E+01 0.  1.
         -5    1    4    4    0  502 -0.13868628396E+02  0.92223067158E+02 -0.34373554462E+03  0.35618679089E+03  0.41800000000E+01 0.  1.
        -11    1    3    3    0    0  0.18525827851E+02 -0.70217678050E+02 -0.11129810854E+03  0.13289468602E+03  0.00000000000E+00 0.  1.
         11    1    3    3    0    0 -0.20158946662E+02  0.88380618803E+01 -0.12851099318E+03  0.13038239849E+03  0.00000000000E+00 0. -1.
</event>
<event>
 8    1  0.5900800E-006  0.8572507E+02  0.7561462E-02  0.1313547E+00
         -1   -1    0    0    0  501 -0.00000000000E+00  0.00000000000E+00  0.15397415195E+03  0.15397415195E+03  0.00000000000E+00 0.  1.
          1   -1    0    0  501    0  0.00000000000E+00 -0.00000000000E+00 -0.13059635614E+03  0.13059635614E+03  0.00000000000E+00 0. -1.
         23    2    1    2    0    0 -0.16231047628E+02 -0.28561102572E+02  0.94576948330E+02  0.13693644874E+03  0.93421669600E+02 0.  0.
         23    2    1    2    0    0  0.16231047628E+02  0.28561102572E+02 -0.71199152527E+02  0.14763405935E+03  0.12508921885E+03 0.  0.
          5    1    4    4  502    0 -0.24200029533E+02  0.23467897574E+02 -0.94560423675E+02  0.10047651353E+03  0.41800000000E+01 0. -1.
         -5    1    4    4    0  502  0.40431077162E+02  0.50932049974E+01  0.23361271148E+02  0.47157545814E+02  0.41800000000E+01 0. -1.
        -11    1    3    3    0    0  0.34439669427E+02  0.63019795210E+01  0.49722852059E+02  0.60812562790E+02  0.00000000000E+00 0.  1.
         11    1    3    3    0    0 -0.50670717056E+02 -0.34863082093E+02  0.44854096271E+02  0.76123885951E+02  0.00000000000E+00 0. -1.
</event>
<event>
 7    1  0.5900800E-006  0.1059179E+03  0.7561462E-02  0.1268322E+00
          2   -1    0    0  501    0  0.00000000000E+00  0.00000000000E+00  0.75066350190E+03  0.75066350190E+03  0.00000000000E+00 0. -1.
         -2   -1    0    0    0  501 -0.00000000000E+00 -0.00000000000E+00 -0.25913723130E+02  0.25913723130E+02  0.00000000000E+00 0.  1.
         23    2    1    2    0    0  0.68169998796E+01  0.77854614060E+01  0.14922972096E+03  0.17043481638E+03  0.81678835205E+02 0.  0.
          5    1    1    2  502    0 -0.16054396241E+02 -0.68356802165E+02  0.51547561872E+03  0.52025280580E+03  0.41800000000E+01 0. -1.
         -5    1    1    2    0  502  0.92373963610E+01  0.60571340759E+02  0.60044439089E+02  0.85889602854E+02  0.41800000000E+01 0.  1.
        -11    1    3    3    0    0  0.34313809272E+02  0.29336300019E+02  0.10325215689E+03  0.11269012338E+03  0.00000000000E+00 0. -1.
         11    1    3    3    0    0 -0.27496809392E+02 -0.21550838613E+02  0.45977564068E+02  0.57744692997E+02  0.00000000000E+00 0.  1.
</event>
<event>
 8    1  0.5900800E-006  0.1001919E+03  0.7561462E-02  0.1279893E+00
          1   -1    0    0  501    0  0.00000000000E+00  0.00000000000E+00  0.29789829345E+03  0.29789829345E+03  0.00000000000E+00 0.  1.
         -1   -1    0    0    0  501 -0.00000000000E+00 -0.00000000000E+00 -0.51913286097E+02  0.51913286097E+02  0.00000000000E+00 0. -1.
         23    2    1    2    0    0  0.61792046813E+02 -0.30072258873E+01  0.91786874322E+02  0.14185898271E+03  0.88723391624E+02 0.  0.
         23    2    1    2    0    0 -0.61792046813E+02  0.30072258873E+01  0.15419813304E+03  0.20795259684E+03  0.12505965714E+03 0.  0.
          5    1    4    4  502    0 -0.78361727184E+02 -0.42953731675E+02  0.11134266320E+03  0.14282942414E+03  0.41800000000E+01 0. -1.
         -5    1    4    4    0  502  0.16569680371E+02  0.45960957562E+02  0.42855469839E+02  0.65123172701E+02  0.41800000000E+01 0. -1.
        -11    1    3    3    0    0  0.41035151280E+02 -0.28073582283E+01  0.10796943004E+03  0.11553857677E+03  0.00000000000E+00 0.  1.
         11    1    3    3    0    0  0.20756895533E+02 -0.19986765896E+00 -0.16182555714E+02  0.26320405937E+02  0.00000000000E+00 0. -1.
</event>
<event>
 8    1  0.5900800E-006  0.1257580E+03  0.7561462E-02  0.1233889E+00
          3   -1    0    0  501    0  0.00000000000E+00  0.00000000000E+00  0.57787264965E+03  0.57787264965E+03  0.00000000000E+00 0. -1.
         -3   -1    0    0    0  501 -0.00000000000E+00 -0.00000000000E+00 -0.52506656139E+02  0.52506656139E+02  0.00000000000E+00 0.  1.
         23    2    1    2    0    0  0.29830302462E+02  0.10127987181E+03  0.93158256294E+02  0.16821129479E+03  0.92027819698E+02 0.  0.
         23    2    1    2    0    0 -0.29830302462E+02 -0.10127987181E+03  0.43220773721E+03  0.46216801100E+03  0.12509309695E+03 0.  0.
          5    1    4    4  502    0 -0.33078040915E+02 -0.45325046068E+02  0.38406079571E+03  0.38816064174E+03  0.41800000000E+01 0. -1.
         -5    1    4    4    0  502  0.32477384524E+01 -0.55954825745E+02  0.48146941503E+02  0.74007369263E+02  0.41800000000E+01 0. -1.
        -11    1    3    3    0    0  0.62119696383E+02  0.75191033289E+02  0.74338468479E+02  0.12263260603E+03  0.00000000000E+00 0. -1.
         11    1    3    3    0    0 -0.32289393921E+02  0.26088838524E+02  0.18819787815E+02  0.45578688756E+02  0.00000000000E+00 0.  1.
</event>
<event>
 8    1  0.5900800E-006  0.6324314E+02  0.7561462E-02  0.1384705E+00
          1   -1    0    0  501    0  0.00000000000E+00  0.00000000000E+00  0.43746507268E+03  0.43746507268E+03  0.00000000000E+00 0. -1.
         -1   -1    0    0    0  501 -0.00000000000E+00 -0.00000000000E+00 -0.29097907385E+02  0.29097907385E+02  0.00000000000E+00 0.  1.
         23    2    1    2    0    0  0.25683812255E+02  0.12668908026E+02  0.13740751672E+03  0.16674609880E+03  0.90018200219E+02 0.  0.
         23    2    1    2    0    0 -0.25683812255E+02 -0.12668908026E+02  0.27095964857E+03  0.29981688126E+03  0.12510344397E+03 0.  0.
          5    1    4    4  502    0  0.82716535279E+01 -0.92239681582E+01  0.26450931178E+03  0.26483230592E+03  0.41800000000E+01 0. -1.
         -5    1    4    4    0  502 -0.33955465783E+02 -0.34449398679E+01  0.64503367921E+01  0.34984575344E+02  0.41800000000E+01 0. -1.
        -11    1    3    3    0    0 -0.26145118211E+02  0.32213663204E+01  0.88123596610E+01  0.27777726509E+02  0.00000000000E+00 0.  1.
         11    1    3    3    0    0  0.51828930466E+02  0.94475417056E+01  0.12859515706E+03  0.13896837229E+03  0.00000000000E+00 0. -1.
</event>
<event>
 7    1  0.5900800E-006  0.1624490E+03  0.7561462E-02  0.1185959E+00
         -2   -1    0    0    0  501 -0.00000000000E+00  0.00000000000E+00  0.43130599587E+02  0.43130599587E+02  0.00000000000E+00 0.  1.
          2   -1    0    0  501    0  0.00000000000E+00 -0.00000000000E+00 -0.10223072150E+04  0.10223072150E+04  0.00000000000E+00 0. -1.
         23    2    1    2    0    0 -0.93078248722E+01 -0.10425199344E+03 -0.22715587381E+03  0.26953656905E+03  0.10047416239E+03 0.  0.
          5    1    1    2  502    0  0.68422122321E+02  0.99245278173E+02 -0.71659805018E+03  0.72667836763E+03  0.41800000000E+01 0. -1.
         -5    1    1    2    0  502 -0.59114297449E+02  0.50067152698E+01 -0.35422691462E+02  0.69222877946E+02  0.41800000000E+01 0.  1.
        -11    1    3    3    0    0 -0.51711529677E+01 -0.12426424838E+03 -0.20062078701E+03  0.23604458145E+03  0.00000000000E+00 0.  1.
         11    1    3    3    0    0 -0.41366719045E+01  0.20012254938E+02 -0.26535086800E+02  0.33491987603E+02  0.00000000000E+00 0. -1.
</event>
<event>
 8    1  0.5900800E-006  0.9587908E+02  0.7561462E-02  0.1289208E+00
         -2   -1    0    0    0  501 -0.00000000000E+00  0.00000000000E+00  0.48545149664E+02  0.48545149664E+02  0.00000000000E+00 0.  1.
          2   -1    0    0  501    0  0.00000000000E+00 -0.00000000000E+00 -0.35967961726E+03  0.35967961726E+03  0.00000000000E+00 0. -1.
         23    2    1    2    0    0 -0.59442141943E+01  0.53076080789E+02 -0.46821318182E+02  0.11096738938E+03  0.85259143997E+02 0.  0.
         23    2    1    2    0    0  0.59442141943E+01 -0.53076080789E+02 -0.26431314942E+03  0.29725737755E+03  0.12509237994E+03 0.  0.
          5    1    4    4  502    0  0.48446771492E+02 -0.62935239937E+02 -0.10321200115E+03  0.13030012922E+03  0.41800000000E+01 0. -1.
         -5    1    4    4    0  502 -0.42502557298E+02  0.98591591484E+01 -0.16110114827E+03  0.16695724833E+03  0.41800000000E+01 0. -1.
        -11    1    3    3    0    0  0.18491073594E+02  0.19556654391E+02  0.19154919568E+02  0.33034731379E+02  0.00000000000E+00 0.  1.
         11    1    3    3    0    0 -0.24435287788E+02  0.33519426398E+02 -0.65976237750E+02  0.77932658000E+02  0.00000000000E+00 0. -1.
</event>
<event>
 8    1  0.5900800E-006  0.1030374E+03  0.7561462E-02  0.1274035E+00
          1   -1    0    0  501    0  0.00000000000E+00  0.00000000000E+00  0.69466319542E+03  0.69466319542E+03  0.00000000000E+00 0. -1.
         -1   -1    0    0    0  501 -0.00000000000E+00 -0.00000000000E+00 -0.39513374182E+02  0.39513374182E+02  0.00000000000E+00 0.  1.
         23    2    1    2    0    0 -0.61615979973E+02  0.79691014464E+02  0.14150208342E+03  0.19600317900E+03  0.90814204798E+02 0.  0.
         23    2    1    2    0    0  0.61615979973E+02 -0.79691014464E+02  0.51364773782E+03  0.53817339060E+03  0.12509761392E+03 0.  0.
          5    1    4    4  502    0  0.29317644638E+02 -0.55859511974E+02  0.48396407202E+03  0.48807633089E+03  0.41800000000E+01 0.  1.
         -5    1    4    4    0  502  0.32298335335E+02 -0.23831502490E+02  0.29683665793E+02  0.50097059707E+02  0.41800000000E+01 0.  1.
        -11    1    3    3    0    0 -0.64908155958E+01  0.20977345557E+02 -0.10228142168E+02  0.24223843748E+02  0.00000000000E+00 0.  1.
         11    1    3    3    0    0 -0.55125164377E+02  0.58713668906E+02  0.15173022559E+03  0.17177933525E+03  0.00000000000E+00 0. -1.
</event>
<event>
 8    1  0.5900800E-006  0.1081657E+03  0.7561462E-02  0.1264005E+00
         -2   -1    0    0    0  501 -0.00000000000E+00  0.00000000000E+00  0.31680163941E+03  0.31680163941E+03  0.00000000000E+00 0.  1.
          2   -1    0    0  501    0  0.00000000000E+00 -0.00000000000E+00 -0.45737157969E+02  0.45737157969E+02  0.00000000000E+00 0. -1.
         23    2    1    2    0    0 -0.22047908967E+02  0.39254079789E+02  0.15776849002E+03  0.18786486297E+03  0.91516759260E+02 0.  0.
         23    2    1    2    0    0  0.22047908967E+02 -0.39254079789E+02  0.11329599143E+03  0.17467393442E+03  0.12509200063E+03 0.  0.
          5    1    4    4  502    0  0.29901870685E+02 -0.82945055931E+02  0.78288804695E+02  0.11798564961E+03  0.41800000000E+01 0.  1.
         -5    1    4    4    0  502 -0.78539617180E+01  0.43690976142E+02  0.35007186733E+02  0.56688284803E+02  0.41800000000E+01 0.  1.
        -11    1    3    3    0    0  0.25791202019E+02  0.12470226991E+02  0.11447696543E+03  0.11800706876E+03  0.00000000000E+00 0.  1.
         11    1    3    3    0    0 -0.47839110986E+02  0.26783852797E+02  0.43291524585E+02  0.69857794207E+02  0.00000000000E+00 0. -1.
</event>
<event>
 7    1  0.5900800E-006  0.8208248E+02  0.7561462E-02  0.1323243E+00
         -2   -1    0    0    0  501 -0.00000000000E+00  0.00000000000E+00  0.97145959698E+01  0.97145959698E+01  0.00000000000E+00 0.  1.
          2   -1    0    0  501    0  0.00000000000E+00 -0.00000000000E+00 -0.27377102800E+04  0.27377102800E+04  0.00000000000E+00 0. -1.
         23    2    1    2    0    0 -0.12803223645E+02 -0.13018204666E+02 -0.30707574920E+03  0.32035310404E+03  0.89427061516E+02 0.  0.
          5    1    1    2  502    0  0.34996239098E+02 -0.14787528878E+02 -0.23139065197E+04  0.23142221722E+04  0.41800000000E+01 0. -1.
         -5    1    1    2    0  502 -0.22193015453E+02  0.27805733544E+02 -0.10701341511E+03  0.11284959976E+03  0.41800000000E+01 0.  1.
        -11    1    3    3    0    0 -0.48454669936E+02 -0.22213907034E+02 -0.20584879448E+03  0.21263828181E+03  0.00000000000E+00 0. -1.
         11    1    3    3    0    0  0.35651446291E+02  0.91957023677E+01 -0.10122695472E+03  0.10771482223E+03  0.00000000000E+00 0.  1.
</event>
<event>
 8    1  0.5900800E-006  0.7702035E+02  0.7561462E-02  0.1337726E+00
          1   -1    0    0  501    0  0.00000000000E+00  0.00000000000E+00  0.38438643870E+03  0.38438643870E+03  0.00000000000E+00 0. -1.
         -1   -1    0    0    0  501 -0.00000000000E+00 -0.00000000000E+00 -0.49036463547E+02  0.49036463547E+02  0.00000000000E+00 0.  1.
         23    2    1    2    0    0  0.64975526506E+02 -0.54843878295E+01  0.67564405045E+02  0.13075700848E+03  0.90997521304E+02 0.  0.
         23    2    1    2    0    0 -0.64975526506E+02  0.54843878295E+01  0.26778557011E+03  0.30266589377E+03  0.12508250931E+03 0.  0.
          5    1    4    4  502    0 -0.41358739080E+02 -0.75220394400E+01  0.99626448182E+01  0.43403376221E+02  0.41800000000E+01 0. -1.
         -5    1    4    4    0  502 -0.23616787426E+02  0.13006427269E+02  0.25782292529E+03  0.25926251755E+03  0.41800000000E+01 0. -1.
        -11    1    3    3    0    0  0.18429133366E+02  0.23359321805E+02 -0.13706919629E+02  0.32759281396E+02  0.00000000000E+00 0.  1.
         11    1    3    3    0    0  0.46546393139E+02 -0.28843709635E+02  0.81271324674E+02  0.97997727086E+02  0.00000000000E+00 0. -1.
</event>
<event>
 8    1  0.5900800E-006  0.2142959E+03  0.7561462E-02  0.1138209E+00
         -1   -1    0    0    0  501 -0.00000000000E+00  0.00000000000E+00  0.25069673360E+03  0.25069673360E+03  0.00000000000E+00 0.  1.
          1   -1    0    0  501    0  0.00000000000E+00 -0.00000000000E+00 -0.20105083380E+03  0.20105083380E+03  0.00000000000E+00 0. -1.
         23    2    1    2    0    0  0.16487497048E+03  0.10207447234E+03  0.53288414852E+02  0.22096584880E+03  0.91560348316E+02 0.  0.
         23    2    1    2    0    0 -0.16487497048E+03 -0.10207447234E+03 -0.36425150568E+01  0.23078171860E+03  0.12507589667E+03 0.  0.
          5    1    4    4  502    0 -0.78392434666E+02 -0.11691238853E+03  0.12822217246E+02  0.14140637207E+03  0.41800000000E+01 0.  1.
         -5    1    4    4    0  502 -0.86482535818E+02  0.14837916194E+02 -0.16464732303E+02  0.89375346536E+02  0.41800000000E+01 0.  1.
        -11    1    3    3    0    0  0.77807357896E+02  0.76644197334E+02  0.68604654726E+02  0.12897641869E+03  0.00000000000E+00 0.  1.
         11    1    3    3    0    0  0.87067612588E+02  0.25430275006E+02 -0.15316239874E+02  0.91989430113E+02  0.00000000000E+00 0. -1.
</event>
<event>
 8    1  0.5900800E-006  0.1064268E+03  0.7561462E-02  0.1267334E+00
         -1   -1    0    0    0  501 -0.00000000000E+00  0.00000000000E+00  0.21678900999E+02  0.21678900999E+02  0.00000000000E+00 0.  1.
          1   -1    0    0  501    0  0.00000000000E+00 -0.00000000000E+00 -0.71203558078E+03  0.71203558078E+03  0.00000000000E+00 0. -1.
         23    2    1    2    0    0  0.10686322583E+02  0.34891466418E+02 -0.16930146087E+03  0.19661368468E+03  0.93071716589E+02 0.  0.
         23    2    1    2    0    0 -0.10686322583E+02 -0.34891466418E+02 -0.52105521890E+03  0.53710079710E+03  0.12508842144E+03 0.  0.
          5    1    4    4  502    0  0.39348663386E+02 -0.53778611797E+02 -0.18266741426E+03  0.19448730814E+03  0.41800000000E+01 0.  1.
         -5    1    4    4    0  502 -0.50034985969E+02  0.18887145379E+02 -0.33838780464E+03  0.34261348895E+03  0.41800000000E+01 0.  1.
        -11    1    3    3    0    0  0.44696525727E+02  0.37482662211E+02 -0.67307638840E+02  0.89067657569E+02  0.00000000000E+00 0. -1.
         11    1    3    3    0    0 -0.34010203144E+02 -0.25911957932E+01 -0.10199382203E+03  0.10754602711E+03  0.00000000000E+00 0.  1.
</event>
<event>
 8    1  0.5900800E-006  0.1023447E+03  0.7561462E-02  0.1275441E+00
          2   -1    0    0  501    0  0.00000000000E+00  0.00000000000E+00  0.10684473662E+03  0.10684473662E+03  0.00000000000E+00 0. -1.
         -2   -1    0    0    0  501 -0.00000000000E+00 -0.00000000000E+00 -0.18617468734E+03  0.18617468734E+03  0.00000000000E+00 0.  1.
         23    2    1    2    0    0  0.62200547989E+02  0.90157650877E+01 -0.10241575999E+03  0.15113625413E+03  0.91667809112E+02 0.  0.
         23    2    1    2    0    0 -0.62200547989E+02 -0.90157650877E+01  0.23085809270E+02  0.14188316983E+03  0.12509071549E+03 0.  0.
          5    1    4    4  502    0  0.14150812740E+02 -0.11392715001E+02 -0.39085626666E+02  0.43303557223E+02  0.41800000000E+01 0. -1.
         -5    1    4    4    0  502 -0.76351360728E+02  0.23769499134E+01  0.62171435936E+02  0.98579612610E+02  0.41800000000E+01 0. -1.
        -11    1    3    3    0    0 -0.18843364036E+02  0.20324943106E+02 -0.15476477070E+02  0.31744243934E+02  0.00000000000E+00 0. -1.
         11    1    3    3    0    0  0.81043912024E+02 -0.11309178019E+02 -0.86939282916E+02  0.11939201019E+03  0.00000000000E+00 0.  1.
</event>
<event>
 8    1  0.5900800E-006  0.6703275E+02  0.7561462E-02  0.1370484E+00
         -2   -1    0    0    0  501 -0.00000000000E+00  0.00000000000E+00  0.34959054698E+02  0.34959054698E+02  0.00000000000E+00 0. -1.
          2   -1    0    0  501    0  0.00000000000E+00 -0.00000000000E+00 -0.36141320939E+03  0.36141320939E+03  0.00000000000E+00 0.  1.
         23    2    1    2    0    0  0.16909586992E+02  0.25088869164E+02 -0.12842258764E+03  0.16019406493E+03  0.90853684207E+02 0.  0.
         23    2    1    2    0    0 -0.16909586992E+02 -0.25088869164E+02 -0.19803156705E+03  0.23617819916E+03  0.12509298430E+03 0.  0.
          5    1    4    4  502    0 -0.44327335493E+02  0.15373074200E+02 -0.17637352384E+03  0.18255502293E+03  0.41800000000E+01 0.  1.
         -5    1    4    4    0  502  0.27417748501E+02 -0.40461943365E+02 -0.21658043206E+02  0.53623176232E+02  0.41800000000E+01 0.  1.
        -11    1    3    3    0    0 -0.38900309907E+01  0.13600719835E+02  0.11523171960E+02  0.18245421704E+02  0.00000000000E+00 0. -1.
         11    1    3    3    0    0  0.20799617982E+02  0.11488149329E+02 -0.13994575960E+03  0.14194864323E+03  0.00000000000E+00 0.  1.
</event>
<event>
 8    1  0.5900800E-006  0.7979066E+02  0.7561462E-02  0.1329647E+00
          2   -1    0    0  501    0  0.00000000000E+00  0.00000000000E+00  0.62827410302E+03  0.62827410302E+03  0.00000000000E+00 0. -1.
         -2   -1    0    0    0  501 -0.00000000000E+00 -0.00000000000E+00 -0.23798758785E+02  0.23798758785E+02  0.00000000000E+00 0.  1.
         23    2    1    2    0    0 -0.17840691946E+02 -0.31829847851E+02  0.14447608540E+03  0.17397230599E+03  0.89786382566E+02 0.  0.
         23    2    1    2    0    0  0.17840691946E+02  0.31829847851E+02  0.45999925883E+03  0.47810055582E+03  0.12509753731E+03 0.  0.
          5    1    4    4  502    0  0.49142273499E+02  0.80097793538E+01  0.69467056541E+02  0.85570228201E+02  0.41800000000E+01 0. -1.
         -5    1    4    4    0  502 -0.31301581552E+02  0.23820068498E+02  0.39053220229E+03  0.39253032762E+03  0.41800000000E+01 0. -1.
        -11    1    3    3    0    0 -0.10890014838E+02 -0.49703273526E+02  0.32522512994E+02  0.60388092153E+02  0.00000000000E+00 0.  1.
         11    1    3    3    0    0 -0.69506771086E+01  0.17873425675E+02  0.11195357241E+03  0.11358421384E+03  0.00000000000E+00 0. -1.
</event>
<event>
 8    1  0.5900800E-006  0.1039705E+03  0.7561462E-02  0.1272161E+00
          1   -1    0    0  501    0  0.00000000000E+00  0.00000000000E+00  0.13785754372E+03  0.13785754372E+03  0.00000000000E+00 0. -1.
         -1   -1    0    0    0  501 -0.00000000000E+00 -0.00000000000E+00 -0.31517507432E+03  0.31517507432E+03  0.00000000000E+00 0.  1.
         23    2    1    2    0    0 -0.25871275665E+02 -0.46620281740E+01 -0.27756122016E+03  0.29315846175E+03  0.90612335491E+02 0.  0.
         23    2    1    2    0    0  0.25871275665E+02  0.46620281740E+01  0.10024368957E+03  0.15987415629E+03  0.12173697524E+03 0.  0.
          5    1    4    4  502    0  0.68667442623E+02  0.18952656816E+02  0.87293227913E+02  0.11274750958E+03  0.41800000000E+01 0. -1.
         -5    1    4    4    0  502 -0.42796166959E+02 -0.14290628642E+02  0.12950461657E+02  0.47126646714E+02  0.41800000000E+01 0.  1.
        -11    1    3    3    0    0 -0.36517286128E+02  0.34772687846E+02 -0.18934947772E+03  0.19594865837E+03  0.00000000000E+00 0.  1.
         11    1    3    3    0    0  0.10646010464E+02 -0.39434716020E+02 -0.88211742445E+02  0.97209803372E+02  0.00000000000E+00 0. -1.
</event>
<event>
 8    1  0.5900800E-006  0.1538899E+03  0.7561462E-02  0.1195773E+00
         -2   -1    0    0    0  501 -0.00000000000E+00  0.00000000000E+00  0.13642688797E+03  0.13642688797E+03  0.00000000000E+00 0. -1.
          2   -1    0    0  501    0  0.00000000000E+00 -0.00000000000E+00 -0.27198647170E+03  0.27198647170E+03  0.00000000000E+00 0.  1.
         23    2    1    2    0    0 -0.20424520830E+02  0.11679519460E+03  0.52755142542E+02  0.15313236487E+03  0.81290451922E+02 0.  0.
         23    2    1    2    0    0  0.20424520830E+02 -0.11679519460E+03 -0.18831472627E+03  0.25528099481E+03  0.12509065371E+03 0.  0.
          5    1    4    4  502    0 -0.31299224521E+01  0.22317718793E+02 -0.61105941207E+02  0.65263201250E+02  0.41800000000E+01 0. -1.
         -5    1    4    4    0  502  0.23554443282E+02 -0.13911291339E+03 -0.12720878507E+03  0.19001779356E+03  0.41800000000E+01 0. -1.
        -11    1    3    3    0    0  0.27424396830E+02  0.15080718157E+02  0.13228740844E+02  0.33978304636E+02  0.00000000000E+00 0.  1.
         11    1    3    3    0    0 -0.47848917661E+02  0.10171447644E+03  0.39526401698E+02  0.11915406023E+03  0.00000000000E+00 0. -1.
</event>
<event>
 8    1  0.5900800E-006  0.1278358E+03  0.7561462E-02  0.1230703E+00
          1   -1    0    0  501    0  0.00000000000E+00  0.00000000000E+00  0.28401330714E+02  0.28401330714E+02  0.00000000000E+00 0. -1.
         -1   -1    0    0    0  501 -0.00000000000E+00 -0.00000000000E+00 -0.76721163055E+03  0.76721163055E+03  0.00000000000E+00 0.  1.
         23    2    1    2    0    0  0.10863208394E+02 -0.94289445734E+02 -0.42023614396E+03  0.44044437233E+03  0.91565930112E+02 0.  0.
         23    2    1    2    0    0 -0.10863208394E+02  0.94289445734E+02 -0.31857415587E+03  0.35516858892E+03  0.12508686940E+03 0.  0.
          5    1    4    4  502    0  0.17773452772E+02  0.93085652754E+02 -0.31111974374E+03  0.32525959127E+03  0.41800000000E+01 0. -1.
         -5    1    4    4    0  502 -0.28636661166E+02  0.12037929799E+01 -0.74544121349E+01  0.29908997652E+02  0.41800000000E+01 0. -1.
        -11    1    3    3    0    0  0.38978080626E+02 -0.63112634518E+01 -0.13053587398E+03  0.13637718729E+03  0.00000000000E+00 0.  1.
         11    1    3    3    0    0 -0.28114872232E+02 -0.87978182283E+02 -0.28970026998E+03  0.30406718505E+03  0.00000000000E+00 0. -1.
</event>
<event>
 8    1  0.5900800E-006  0.9464079E+02  0.7561462E-02  0.1291987E+00
          1   -1    0    0  501    0  0.00000000000E+00  0.00000000000E+00  0.62019087882E+03  0.62019087882E+03  0.00000000000E+00 0. -1.
         -1   -1    0    0    0  501 -0.00000000000E+00 -0.00000000000E+00 -0.26048617852E+02  0.26048617852E+02  0.00000000000E+00 0.  1.
         23    2    1    2    0    0 -0.56352289939E+02  0.11525202661E+02  0.17929513962E+03  0.20914227619E+03  0.91023808540E+02 0.  0.
         23    2    1    2    0    0  0.56352289939E+02 -0.11525202661E+02  0.41484712135E+03  0.43709722049E+03  0.12508970855E+03 0.  0.
          5    1    4    4  502    0  0.93298835832E+02 -0.13738479880E+02  0.34796969136E+03  0.36054652558E+03  0.41800000000E+01 0. -1.
         -5    1    4    4    0  502 -0.36946545893E+02  0.22132772186E+01  0.66877429987E+02  0.76550694909E+02  0.41800000000E+01 0. -1.
        -11    1    3    3    0    0 -0.30158458666E+02  0.42960668642E+01  0.17940099863E+03  0.18196897298E+03  0.00000000000E+00 0. -1.
         11    1    3    3    0    0 -0.26193831273E+02  0.72291357968E+01 -0.10585900733E+00  0.27173303209E+02  0.00000000000E+00 0.  1.
</event>
<event>
 8    1  0.1419661E-005  0.7515737E+02  0.7561462E-02  0.1343384E+00
         -2   -1    0    0    0  501 -0.00000000000E+00  0.00000000000E+00  0.23095870429E+03  0.23095870429E+03  0.00000000000E+00 0. -1.
          2   -1    0    0  501    0  0.00000000000E+00 -0.00000000000E+00 -0.65780010793E+02  0.65780010793E+02  0.00000000000E+00 0.  1.
         23    2    1    2    0    0  0.52726386307E+02 -0.16591591470E+02  0.87049695189E+02  0.13923643893E+03  0.93561657598E+02 0.  0.
         23    2    1    2    0    0 -0.52726386307E+02  0.16591591470E+02  0.78128998312E+02  0.15750227616E+03  0.12508986329E+03 0.  0.
          5    1    4    4  502    0  0.17191387796E+02  0.87693091267E+01  0.84462687089E+02  0.86740201217E+02  0.41800000000E+01 0.  1.
         -5    1    4    4    0  502 -0.69917774103E+02  0.78222823429E+01 -0.63336887767E+01  0.70762074942E+02  0.41800000000E+01 0.  1.
        -11    1    3    3    0    0  0.28939694655E+02 -0.21183793375E+02 -0.11570194791E+02  0.37684591492E+02  0.00000000000E+00 0.  1.
         11    1    3    3    0    0  0.23786691653E+02  0.45922019050E+01  0.98619889979E+02  0.10155184744E+03  0.00000000000E+00 0. -1.
</event>
<event>
 8    1  0.5900800E-006  0.1011541E+03  0.7561462E-02  0.1277887E+00
         -4   -1    0    0    0  501 -0.00000000000E+00  0.00000000000E+00  0.21034504600E+03  0.21034504600E+03  0.00000000000E+00 0.  1.
          4   -1    0    0  501    0  0.00000000000E+00 -0.00000000000E+00 -0.59975908004E+02  0.59975908004E+02  0.00000000000E+00 0. -1.
         23    2    1    2    0    0 -0.21980457837E+02 -0.18772389527E+02  0.66253947117E+02  0.11682959290E+03  0.91782488163E+02 0.  0.
         23    2    1    2    0    0  0.21980457837E+02  0.18772389527E+02  0.84115190875E+02  0.15349136110E+03  0.12509472196E+03 0.  0.
          5    1    4    4  502    0 -0.44497528053E+02  0.36056999918E+02  0.24455485085E+02  0.62415385896E+02  0.41800000000E+01 0.  1.
         -5    1    4    4    0  502  0.66477985890E+02 -0.17284610390E+02  0.59659705791E+02  0.91075975204E+02  0.41800000000E+01 0.  1.
        -11    1    3    3    0    0 -0.41677318827E+02  0.83923188373E+01 -0.55420459853E-01  0.42513915269E+02  0.00000000000E+00 0. -1.
         11    1    3    3    0    0  0.19696860990E+02 -0.27164708365E+02  0.66309367577E+02  0.74315677632E+02  0.00000000000E+00 0.  1.
</event>
<event>
 8    1  0.5900800E-006  0.1334890E+03  0.7561462E-02  0.1222369E+00
         -1   -1    0    0    0  501 -0.00000000000E+00  0.00000000000E+00  0.89038423804E+02  0.89038423804E+02  0.00000000000E+00 0.  1.
          1   -1    0    0  501    0  0.00000000000E+00 -0.00000000000E+00 -0.23463244626E+03  0.23463244626E+03  0.00000000000E+00 0. -1.
         23    2    1    2    0    0 -0.93405643225E+02 -0.17356688647E+02 -0.75487222170E+02  0.15165975080E+03  0.90975219022E+02 0.  0.
         23    2    1    2    0    0  0.93405643225E+02  0.17356688647E+02 -0.70106800288E+02  0.17201111926E+03  0.12508794057E+03 0.  0.
          5    1    4    4  502    0  0.12380703763E+03  0.21870079490E+02 -0.52184790973E+02  0.13618813367E+03  0.41800000000E+01 0.  1.
         -5    1    4    4    0  502 -0.30401394406E+02 -0.45133908433E+01 -0.17922009314E+02  0.35822985590E+02  0.41800000000E+01 0.  1.
        -11    1    3    3    0    0 -0.39496125972E+02  0.20300428954E+02  0.82711049912E+01  0.45171479501E+02  0.00000000000E+00 0.  1.
         11    1    3    3    0    0 -0.53909517253E+02 -0.37657117601E+02 -0.83758327161E+02  0.10648827130E+03  0.00000000000E+00 0. -1.
</event>
<event>
 8    1  0.5900800E-006  0.1840957E+03  0.7561462E-02  0.1163897E+00
          1   -1    0    0  501    0  0.00000000000E+00  0.00000000000E+00  0.70915354180E+03  0.70915354180E+03  0.00000000000E+00 0. -1.
         -1   -1    0    0    0  501 -0.00000000000E+00 -0.00000000000E+00 -0.54923331806E+02  0.54923331806E+02  0.00000000000E+00 0.  1.
         23    2    1    2    0    0 -0.36549917626E+02 -0.15890867927E+03  0.27580949218E+03  0.33345186351E+03  0.92365602242E+02 0.  0.
         23    2    1    2    0    0  0.36549917626E+02  0.15890867927E+03  0.37842071782E+03  0.43062501010E+03  0.12509114605E+03 0.  0.
          5    1    4    4  502    0 -0.27950471940E+02  0.10896842644E+03  0.14660613227E+03  0.18484095125E+03  0.41800000000E+01 0. -1.
         -5    1    4    4    0  502  0.64500389566E+02  0.49940252835E+02  0.23181458555E+03  0.24578405884E+03  0.41800000000E+01 0. -1.
        -11    1    3    3    0    0  0.60109219095E+01 -0.10537401201E+03  0.10245684110E+03  0.14709594786E+03  0.00000000000E+00 0.  1.
         11    1    3    3    0    0 -0.42560839536E+02 -0.53534667258E+02  0.17335265108E+03  0.18635591565E+03  0.00000000000E+00 0. -1.
</event>
<event>
 8    1  0.5900800E-006  0.1111074E+03  0.7561462E-02  0.1258533E+00
         -2   -1    0    0    0  501 -0.00000000000E+00  0.00000000000E+00  0.12187400322E+03  0.12187400322E+03  0.00000000000E+00 0.  1.
          2   -1    0    0  501    0  0.00000000000E+00 -0.00000000000E+00 -0.10040315489E+04  0.10040315489E+04  0.00000000000E+00 0. -1.
         23    2    1    2    0    0  0.28896693135E+02 -0.44017608724E+02  0.93709230667E+02  0.14064625511E+03  0.90704908418E+02 0.  0.
         23    2    1    2    0    0 -0.28896693135E+02  0.44017608724E+02 -0.97586677634E+03  0.98525929701E+03  0.12508936176E+03 0.  0.
          5    1    4    4  502    0  0.33747584440E+02 -0.13615096271E+02 -0.53360864160E+03  0.53486439879E+03  0.41800000000E+01 0.  1.
         -5    1    4    4    0  502 -0.62644277575E+02  0.57632704995E+02 -0.44225813474E+03  0.45039489822E+03  0.41800000000E+01 0.  1.
        -11    1    3    3    0    0  0.38490150427E+02 -0.65984162835E+02  0.86953339007E+02  0.11574231979E+03  0.00000000000E+00 0.  1.
         11    1    3    3    0    0 -0.95934572918E+01  0.21966554111E+02  0.67558916603E+01  0.24903935320E+02  0.00000000000E+00 0. -1.
</event>
<event>
 8    1  0.5900800E-006  0.8924385E+02  0.7561462E-02  0.1304693E+00
         -3   -1    0    0    0  501 -0.00000000000E+00  0.00000000000E+00  0.12705839998E+03  0.12705839998E+03  0.00000000000E+00 0.  1.
          3   -1    0    0  501    0  0.00000000000E+00 -0.00000000000E+00 -0.10476229803E+03  0.10476229803E+03  0.00000000000E+00 0. -1.
         23    2    1    2    0    0  0.24629301322E+02  0.22478501954E+02  0.31034044368E+02  0.10206640086E+03  0.91337575738E+02 0.  0.
         23    2    1    2    0    0 -0.24629301322E+02 -0.22478501954E+02 -0.87379424221E+01  0.12975429714E+03  0.12509172817E+03 0.  0.
          5    1    4    4  502    0  0.30432749855E+02  0.28323172156E+02  0.23668695551E+02  0.48021181720E+02  0.41800000000E+01 0.  1.
         -5    1    4    4    0  502 -0.55062051177E+02 -0.50801674110E+02 -0.32406637973E+02  0.81733115424E+02  0.41800000000E+01 0.  1.
        -11    1    3    3    0    0  0.33615929312E+02 -0.38640660969E+01  0.55504668994E+02  0.65005615068E+02  0.00000000000E+00 0.  1.
         11    1    3    3    0    0 -0.89866279897E+01  0.26342568051E+02 -0.24470624626E+02  0.37060785795E+02  0.00000000000E+00 0. -1.
</event>
<event>
 8    1  0.5900800E-006  0.7374330E+02  0.7561462E-02  0.1347807E+00
          2   -1    0    0  501    0  0.00000000000E+00  0.00000000000E+00  0.74756932609E+03  0.74756932609E+03  0.00000000000E+00 0. -1.
         -2   -1    0    0    0  501 -0.00000000000E+00 -0.00000000000E+00 -0.15892012355E+02  0.15892012355E+02  0.00000000000E+00 0.  1.
         23    2    1    2    0    0 -0.27911419517E+02 -0.16498281383E+02  0.24699508800E+03  0.26189293574E+03  0.80809007314E+02 0.  0.
         23    2    1    2    0    0  0.27911419517E+02  0.16498281383E+02  0.48468222573E+03  0.50156840270E+03  0.12491101643E+03 0.  0.
          5    1    4    4  502    0  0.35477796190E+02 -0.81260518341E+01  0.47038825039E+03  0.47181276503E+03  0.41800000000E+01 0.  1.
         -5    1    4    4    0  502 -0.75663766727E+01  0.24624333217E+02  0.14293975337E+02  0.29755637672E+02  0.41800000000E+01 0.  1.
        -11    1    3    3    0    0  0.26195539920E+02  0.47518335978E+01  0.10797551191E+03  0.11120925055E+03  0.00000000000E+00 0. -1.
         11    1    3    3    0    0 -0.54106959437E+02 -0.21250114981E+02  0.13901957609E+03  0.15068368519E+03  0.00000000000E+00 0.  1.
</event>
<event>
 8    1  0.5900800E-006  0.1012217E+03  0.7561462E-02  0.1277748E+00
          2   -1    0    0  501    0  0.00000000000E+00  0.00000000000E+00  0.18487057627E+03  0.18487057627E+03  0.00000000000E+00 0. -1.
         -2   -1    0    0    0  501 -0.00000000000E+00 -0.00000000000E+00 -0.66962152878E+02  0.66962152878E+02  0.00000000000E+00 0.  1.
         23    2    1    2    0    0  0.20077080476E+02 -0.10737668843E+02  0.38685074053E+02  0.10202583295E+03  0.91620679664E+02 0.  0.
         23    2    1    2    0    0 -0.20077080476E+02  0.10737668843E+02  0.79223349336E+02  0.14980689619E+03  0.12508948947E+03 0.  0.
          5    1    4    4  502    0 -0.63240916784E+02  0.29413640840E+02  0.74841037015E+02  0.10238764107E+03  0.41800000000E+01 0.  1.
         -5    1    4    4    0  502  0.43163836308E+02 -0.18675971997E+02  0.43823123208E+01  0.47419255120E+02  0.41800000000E+01 0.  1.
        -11    1    3    3    0    0 -0.78992798952E+01  0.32726210955E+02  0.37399910761E+02  0.50320540848E+02  0.00000000000E+00 0. -1.
         11    1    3    3    0    0  0.27976360371E+02 -0.43463879798E+02  0.12851632919E+01  0.51705292102E+02  0.00000000000E+00 0.  1.
</event>
<event>
 8    1  0.5900800E-006  0.9585592E+02  0.7561462E-02  0.1289260E+00
          1   -1    0    0  501    0  0.00000000000E+00  0.00000000000E+00  0.15953893722E+03  0.15953893722E+03  0.00000000000E+00 0. -1.
         -1   -1    0    0    0  501 -0.00000000000E+00 -0.00000000000E+00 -0.10052334754E+03  0.10052334754E+03  0.00000000000E+00 0.  1.
         23    2    1    2    0    0 -0.18252615772E+01 -0.40291606972E+02 -0.21278647125E+02  0.10604657782E+03  0.95741060530E+02 0.  0.
         23    2    1    2    0    0  0.18252615772E+01  0.40291606972E+02  0.80294236804E+02  0.15401570694E+03  0.12508768263E+03 0.  0.
          5    1    4    4  502    0  0.23551698773E+01  0.81751660055E+02  0.76675888399E+02  0.11218531548E+03  0.41800000000E+01 0.  1.
         -5    1    4    4    0  502 -0.52990830006E+00 -0.41460053083E+02  0.36183484041E+01  0.41830391459E+02  0.41800000000E+01 0.  1.
        -11    1    3    3    0    0 -0.12719976572E+02  0.10316958839E+02 -0.45890752152E+02  0.48725748602E+02  0.00000000000E+00 0.  1.
         11    1    3    3    0    0  0.10894714995E+02 -0.50608565811E+02  0.24612105027E+02  0.57320829217E+02  0.00000000000E+00 0. -1.
</event>
<event>
 8    1  0.5900800E-006  0.1088808E+03  0.7561462E-02  0.1262657E+00
          2   -1    0    0  501    0  0.00000000000E+00  0.00000000000E+00  0.27692829012E+03  0.27692829012E+03  0.00000000000E+00 0. -1.
         -2   -1    0    0    0  501 -0.00000000000E+00 -0.00000000000E+00 -0.60430960845E+02  0.60430960845E+02  0.00000000000E+00 0.  1.
         23    2    1    2    0    0 -0.28116986757E+02  0.64138856708E+02  0.90086386333E+02  0.14622738581E+03  0.91446888818E+02 0.  0.
         23    2    1    2    0    0  0.28116986757E+02 -0.64138856708E+02  0.12641094294E+03  0.19113186515E+03  0.12508919017E+03 0.  0.
          5    1    4    4  502    0 -0.30285887040E+01  0.15926105162E+02 -0.17029239040E+02  0.23880547679E+02  0.41800000000E+01 0.  1.
         -5    1    4    4    0  502  0.31145575461E+02 -0.80064961871E+02  0.14344018198E+03  0.16725131748E+03  0.41800000000E+01 0.  1.
        -11    1    3    3    0    0 -0.54647665890E+02  0.69017861581E+02  0.65485113392E+02  0.10971842453E+03  0.00000000000E+00 0. -1.
         11    1    3    3    0    0  0.26530679134E+02 -0.48790048724E+01  0.24601272941E+02  0.36508961286E+02  0.00000000000E+00 0.  1.
</event>
<event>
 8    1  0.5900800E-006  0.1047256E+03  0.7561462E-02  0.1270661E+00
         -2   -1    0    0    0  501 -0.00000000000E+00  0.00000000000E+00  0.36275667368E+02  0.36275667368E+02  0.00000000000E+00 0.  1.
          2   -1    0    0  501    0  0.00000000000E+00 -0.00000000000E+00 -0.42959840360E+03  0.42959840360E+03  0.00000000000E+00 0. -1.
         23    2    1    2    0    0 -0.47235259475E+02 -0.37720455223E+02 -0.17473388468E+03  0.20687417118E+03  0.92795418876E+02 0.  0.
         23    2    1    2    0    0  0.47235259475E+02  0.37720455223E+02 -0.21858885155E+03  0.25899989979E+03  0.12508341053E+03 0.  0.
          5    1    4    4  502    0 -0.22467691990E+02 -0.10810468670E+00  0.35173081820E+01  0.23122558829E+02  0.41800000000E+01 0.  1.
         -5    1    4    4    0  502  0.69702951465E+02  0.37828559909E+02 -0.22210615973E+03  0.23587734096E+03  0.41800000000E+01 0.  1.
        -11    1    3    3    0    0  0.26411798077E+02 -0.65664025584E+01 -0.24199139297E+02  0.36418389077E+02  0.00000000000E+00 0.  1.
         11    1    3    3    0    0 -0.73647057552E+02 -0.31154052664E+02 -0.15053474539E+03  0.17045578210E+03  0.00000000000E+00 0. -1.
</event>
<event>
 8    1  0.5900800E-006  0.2519744E+03  0.7561462E-02  0.1112063E+00
          2   -1    0    0  501    0  0.00000000000E+00  0.00000000000E+00  0.25309787323E+04  0.25309787323E+04  0.00000000000E+00 0. -1.
         -2   -1    0    0    0  501 -0.00000000000E+00 -0.00000000000E+00 -0.26920539729E+02  0.26920539729E+02  0.00000000000E+00 0.  1.
         23    2    1    2    0    0  0.22505376905E+03 -0.61926015432E+02  0.95577841003E+03  0.98812137800E+03  0.91583067346E+02 0.  0.
         23    2    1    2    0    0 -0.22505376905E+03  0.61926015432E+02  0.15482797825E+04  0.15697778940E+04  0.11201928946E+03 0.  0.
          5    1    4    4  502    0 -0.21003737815E+02 -0.23673524257E+02  0.33158677549E+03  0.33311988057E+03  0.41800000000E+01 0. -1.
         -5    1    4    4    0  502 -0.20405003124E+03  0.85599539689E+02  0.12166930070E+04  0.12366580135E+04  0.41800000000E+01 0.  1.
        -11    1    3    3    0    0  0.85705892689E+02  0.21414678785E+02  0.32919385076E+03  0.34084113585E+03  0.00000000000E+00 0.  1.
         11    1    3    3    0    0  0.13934787636E+03 -0.83340694218E+02  0.62658455927E+03  0.64728024215E+03  0.00000000000E+00 0. -1.
</event>
<event>
 7    1  0.5900800E-006  0.1159902E+03  0.7561462E-02  0.1249862E+00
         -2   -1    0    0    0  501 -0.00000000000E+00  0.00000000000E+00  0.27532443032E+02  0.27532443032E+02  0.00000000000E+00 0.  1.
          2   -1    0    0  501    0  0.00000000000E+00 -0.00000000000E+00 -0.17605108707E+04  0.17605108707E+04  0.00000000000E+00 0. -1.
         23    2    1    2    0    0 -0.25955800848E+02  0.16774171332E+02 -0.15304876491E+04  0.15359035421E+04  0.12510863374E+03 0.  0.
          5    1    3    3  502    0 -0.70749644859E+02  0.24238009176E+01 -0.11958162488E+04  0.11979170924E+04  0.41800000000E+01 0.  1.
         -5    1    3    3    0  502  0.44793844011E+02  0.14350370414E+02 -0.33467140029E+03  0.33798644968E+03  0.41800000000E+01 0.  1.
        -11    1    1    2    0    0  0.54225029823E+01  0.46760524850E+02 -0.17274369739E+03  0.17904283066E+03  0.00000000000E+00 0. -1.
         11    1    1    2    0    0  0.20533297865E+02 -0.63534696182E+02 -0.29747081209E+02  0.73096940980E+02  0.00000000000E+00 0.  1.
</event>
<event>
 8    1  0.5900800E-006  0.1550064E+03  0.7561462E-02  0.1194453E+00
          2   -1    0    0  501    0  0.00000000000E+00  0.00000000000E+00  0.98875879843E+03  0.98875879843E+03  0.00000000000E+00 0. -1.
         -2   -1    0    0    0  501 -0.00000000000E+00 -0.00000000000E+00 -0.31813563902E+02  0.31813563902E+02  0.00000000000E+00 0.  1.
         23    2    1    2    0    0  0.11116781915E+03  0.48743320298E+02  0.24113769414E+03  0.28384832498E+03  0.87682887560E+02 0.  0.
         23    2    1    2    0    0 -0.11116781915E+03 -0.48743320298E+02  0.71580754039E+03  0.73672403735E+03  0.12509067532E+03 0.  0.
          5    1    4    4  502    0  0.98917687228E+01 -0.37096777576E+02  0.73893058756E+02  0.83376702545E+02  0.41800000000E+01 0. -1.
         -5    1    4    4    0  502 -0.12105958787E+03 -0.11646542722E+02  0.64191448163E+03  0.65334733481E+03  0.41800000000E+01 0. -1.
        -11    1    3    3    0    0  0.11497461951E+03  0.15235909996E+02  0.18947948132E+03  0.22215708390E+03  0.00000000000E+00 0. -1.
         11    1    3    3    0    0 -0.38068003661E+01  0.33507410302E+02  0.51658212816E+02  0.61691241076E+02  0.00000000000E+00 0.  1.
</event>
<event>
 8    1  0.5900800E-006  0.1065818E+03  0.7561462E-02  0.1267034E+00
         -1   -1    0    0    0  501 -0.00000000000E+00  0.00000000000E+00  0.47633097131E+03  0.47633097131E+03  0.00000000000E+00 0.  1.
          1   -1    0    0  501    0  0.00000000000E+00 -0.00000000000E+00 -0.29237816902E+02  0.29237816902E+02  0.00000000000E+00 0. -1.
         23    2    1    2    0    0  0.43828744553E+01  0.39570505205E+02  0.23638206992E+03  0.25730472867E+03  0.93510459019E+02 0.  0.
         23    2    1    2    0    0 -0.43828744553E+01 -0.39570505205E+02  0.21071108449E+03  0.24826405954E+03  0.12510334793E+03 0.  0.
          5    1    4    4  502    0 -0.25066705229E+02  0.36511607050E+02  0.38560093709E+02  0.58870963873E+02  0.41800000000E+01 0.  1.
         -5    1    4    4    0  502  0.20683830774E+02 -0.76082112255E+02  0.17215099078E+03  0.18939309567E+03  0.41800000000E+01 0.  1.
        -11    1    3    3    0    0  0.38548011227E+02  0.40007162684E+02  0.81075683559E+02  0.98284224065E+02  0.00000000000E+00 0. -1.
         11    1    3    3    0    0 -0.34165136772E+02 -0.43665747897E+00  0.15530638636E+03  0.15902050460E+03  0.00000000000E+00 0.  1.
</event>
<event>
 8    1  0.5900800E-006  0.1261015E+03  0.7561462E-02  0.1233358E+00
         -1   -1    0    0    0  501 -0.00000000000E+00  0.00000000000E+00  0.28366234331E+03  0.28366234331E+03  0.00000000000E+00 0.  1.
          1   -1    0    0  501    0  0.00000000000E+00 -0.00000000000E+00 -0.75868292860E+02  0.75868292860E+02  0.00000000000E+00 0. -1.
         23    2    1    2    0    0 -0.13823730626E+02  0.80331179297E+02  0.16311029362E+03  0.20367173669E+03  0.90735960581E+02 0.  0.
         23    2    1    2    0    0  0.13823730626E+02 -0.80331179297E+02  0.44683756830E+02  0.15585889949E+03  0.12510461434E+03 0.  0.
          5    1    4    4  502    0  0.67218457916E+02 -0.51470133230E+02  0.87857661670E+01  0.85218294904E+02  0.41800000000E+01 0.  1.
         -5    1    4    4    0  502 -0.53394727289E+02 -0.28861046067E+02  0.35897990663E+02  0.70640604584E+02  0.41800000000E+01 0.  1.
        -11    1    3    3    0    0  0.13210020209E+02 -0.71608828235E+01  0.75354828636E+02  0.76838356798E+02  0.00000000000E+00 0.  1.
         11    1    3    3    0    0 -0.27033750835E+02  0.87492062120E+02  0.87755464989E+02  0.12683337989E+03  0.00000000000E+00 0. -1.
</event>
<event>
 8    1  0.5900800E-006  0.9326615E+02  0.7561462E-02  0.1295130E+00
          1   -1    0    0  501    0  0.00000000000E+00  0.00000000000E+00  0.33586027066E+03  0.33586027066E+03  0.00000000000E+00 0. -1.
         -1   -1    0    0    0  501 -0.00000000000E+00 -0.00000000000E+00 -0.45894525280E+02  0.45894525280E+02  0.00000000000E+00 0.  1.
         23    2    1    2    0    0  0.11906337086E+02 -0.34902492945E+02  0.55181579852E+02  0.11318724709E+03  0.91686429053E+02 0.  0.
         23    2    1    2    0    0 -0.11906337086E+02  0.34902492945E+02  0.23478416552E+03  0.26856754885E+03  0.12507989061E+03 0.  0.
          5    1    4    4  502    0  0.29466539109E+02  0.39128171449E+02  0.25945430720E+02  0.55587125337E+02  0.41800000000E+01 0. -1.
         -5    1    4    4    0  502 -0.41372876195E+02 -0.42256785032E+01  0.20883873480E+03  0.21298042351E+03  0.41800000000E+01 0. -1.
        -11    1    3    3    0    0 -0.44795320439E+01 -0.62940147387E+02  0.22172300797E+02  0.66881531704E+02  0.00000000000E+00 0.  1.
         11    1    3    3    0    0  0.16385869130E+02  0.28037654442E+02  0.33009279055E+02  0.46305715387E+02  0.00000000000E+00 0. -1.
</event>
<event>
 8    1  0.5900800E-006  0.8238179E+02  0.7561462E-02  0.1322425E+00
          2   -1    0    0  501    0  0.00000000000E+00  0.00000000000E+00  0.81520244270E+02  0.81520244270E+02  0.00000000000E+00 0. -1.
         -2   -1    0    0    0  501 -0.00000000000E+00 -0.00000000000E+00 -0.15269011209E+03  0.15269011209E+03  0.00000000000E+00 0.  1.
         23    2    1    2    0    0 -0.25523110803E+01 -0.23467316413E+02 -0.49281329540E+02  0.10504592816E+03  0.89714928251E+02 0.  0.
         23    2    1    2    0    0  0.25523110803E+01  0.23467316413E+02 -0.21888538282E+02  0.12916442820E+03  0.12508841742E+03 0.  0.
          5    1    4    4  502    0 -0.18451225229E+02 -0.20322114591E+02  0.41049082702E+02  0.49557397476E+02  0.41800000000E+01 0.  1.
         -5    1    4    4    0  502  0.21003536309E+02  0.43789431004E+02 -0.62937620984E+02  0.79607030722E+02  0.41800000000E+01 0.  1.
        -11    1    3    3    0    0  0.40463738444E+01 -0.55449476890E+02 -0.14752789977E+02  0.57520973920E+02  0.00000000000E+00 0. -1.
         11    1    3    3    0    0 -0.65986849247E+01  0.31982160476E+02 -0.34528539564E+02  0.47524954244E+02  0.00000000000E+00 0.  1.
</event>
<event>
 8    1  0.5900800E-006  0.1009495E+03  0.7561462E-02  0.1278312E+00
          3   -1    0    0  501    0  0.00000000000E+00  0.00000000000E+00  0.10699735688E+03  0.10699735688E+03  0.00000000000E+00 0. -1.
         -3   -1    0    0    0  501 -0.00000000000E+00 -0.00000000000E+00 -0.15136891395E+03  0.15136891395E+03  0.00000000000E+00 0.  1.
         23    2    1    2    0    0  0.29306083314E+02 -0.55759817496E+02 -0.14845349765E+02  0.11523271153E+03  0.95342485969E+02 0.  0.
         23    2    1    2    0    0 -0.29306083314E+02  0.55759817496E+02 -0.29526207305E+02  0.14313355931E+03  0.12508962833E+03 0.  0.
          5    1    4    4  502    0 -0.24750466633E+02  0.93881561291E+02 -0.36652908726E+02  0.10386164483E+03  0.41800000000E+01 0. -1.
         -5    1    4    4    0  502 -0.45556166810E+01 -0.38121743795E+02  0.71267014213E+01  0.39271914474E+02  0.41800000000E+01 0. -1.
        -11    1    3    3    0    0  0.27806619670E+02 -0.32417610743E+02 -0.54471061809E+02  0.69218539124E+02  0.00000000000E+00 0.  1.
         11    1    3    3    0    0  0.14994636442E+01 -0.23342206753E+02  0.39625712044E+02  0.46014172408E+02  0.00000000000E+00 0. -1.
</event>
<event>
 8    1  0.5900800E-006  0.9955710E+02  0.7561462E-02  0.1281230E+00
         -4   -1    0    0    0  501 -0.00000000000E+00  0.00000000000E+00  0.23409295864E+02  0.23409295864E+02  0.00000000000E+00 0.  1.
          4   -1    0    0  501    0  0.00000000000E+00 -0.00000000000E+00 -0.55568811249E+03  0.55568811249E+03  0.00000000000E+00 0. -1.
         23    2    1    2    0    0 -0.52222352719E+00 -0.23841792169E+02 -0.16926465498E+03  0.19439606641E+03  0.92577553648E+02 0.  0.
         23    2    1    2    0    0  0.52222352719E+00  0.23841792169E+02 -0.36301416164E+03  0.38470134194E+03  0.12508851732E+03 0.  0.
          5    1    4    4  502    0  0.56148780375E+02  0.30045772074E+02 -0.25630977941E+03  0.26413558900E+03  0.41800000000E+01 0. -1.
         -5    1    4    4    0  502 -0.55626556848E+02 -0.62039799048E+01 -0.10670438223E+03  0.12056575294E+03  0.41800000000E+01 0. -1.
        -11    1    3    3    0    0  0.34975690458E+02  0.23473617736E+01 -0.13223119594E+03  0.13679875076E+03  0.00000000000E+00 0. -1.
         11    1    3    3    0    0 -0.35497913986E+02 -0.26189153942E+02 -0.37033459040E+02  0.57597315649E+02  0.00000000000E+00 0.  1.
</event>
<event>
 8    1  0.5900800E-006  0.1222817E+03  0.7561462E-02  0.1239380E+00
          2   -1    0    0  501    0  0.00000000000E+00  0.00000000000E+00  0.75388146445E+03  0.75388146445E+03  0.00000000000E+00 0. -1.
         -2   -1    0    0    0  501 -0.00000000000E+00 -0.00000000000E+00 -0.25188767059E+02  0.25188767059E+02  0.00000000000E+00 0.  1.
         23    2    1    2    0    0  0.32124702268E+02 -0.49869746955E+02  0.22783042228E+03  0.25942770650E+03  0.10898185824E+03 0.  0.
         23    2    1    2    0    0 -0.32124702268E+02  0.49869746955E+02  0.50086227511E+03  0.51964252501E+03  0.12508535891E+03 0.  0.
          5    1    4    4  502    0  0.35039304824E+02 -0.25471063814E+01  0.29046373332E+03  0.29261048068E+03  0.41800000000E+01 0.  1.
         -5    1    4    4    0  502 -0.67164007092E+02  0.52416853337E+02  0.21039854180E+03  0.22703204433E+03  0.41800000000E+01 0.  1.
        -11    1    3    3    0    0  0.72753062094E+02 -0.33168000802E+02  0.15392160450E+03  0.17345023682E+03  0.00000000000E+00 0. -1.
         11    1    3    3    0    0 -0.40628359826E+02 -0.16701746153E+02  0.73908817779E+02  0.85977469678E+02  0.00000000000E+00 0.  1.
</event>
<event>
 8    1  0.5900800E-006  0.9765817E+02  0.7561462E-02  0.1285299E+00
         -1   -1    0    0    0  501 -0.00000000000E+00  0.00000000000E+00  0.90150200168E+02  0.90150200168E+02  0.00000000000E+00 0.  1.
          1   -1    0    0  501    0  0.00000000000E+00 -0.00000000000E+00 -0.19557367902E+03  0.19557367902E+03  0.00000000000E+00 0. -1.
         23    2    1    2    0    0  0.31612290822E+02  0.32643586303E+02  0.18360529152E+02  0.10395226539E+03  0.91673462847E+02 0.  0.
         23    2    1    2    0    0 -0.31612290822E+02 -0.32643586303E+02 -0.12378400800E+03  0.18177161380E+03  0.12511394123E+03 0.  0.
          5    1    4    4  502    0  0.30023236450E+02 -0.31877623601E+02 -0.11000163000E+03  0.11847112988E+03  0.41800000000E+01 0. -1.
         -5    1    4    4    0  502 -0.61635527272E+02 -0.76596270218E+00 -0.13782378004E+02  0.63300483919E+02  0.41800000000E+01 0. -1.
        -11    1    3    3    0    0 -0.68270284841E+01  0.47756317464E+02 -0.15364182054E+02  0.50629361697E+02  0.00000000000E+00 0. -1.
         11    1    3    3    0    0  0.38439319306E+02 -0.15112731161E+02  0.33724711206E+02  0.53322903688E+02  0.00000000000E+00 0.  1.
</event>
<event>
 8    1  0.5900800E-006  0.2396208E+03  0.7561462E-02  0.1120046E+00
         -2   -1    0    0    0  501 -0.00000000000E+00  0.00000000000E+00  0.37490845360E+03  0.37490845360E+03  0.00000000000E+00 0.  1.
          2   -1    0    0  501    0  0.00000000000E+00 -0.00000000000E+00 -0.17772965049E+03  0.17772965049E+03  0.00000000000E+00 0. -1.
         23    2    1    2    0    0  0.20054882245E+03 -0.72794428927E+02  0.18825539062E+03  0.30515260748E+03  0.11026859336E+03 0.  0.
         23    2    1    2    0    0 -0.20054882245E+03  0.72794428927E+02  0.89234124797E+01  0.24748549661E+03  0.12510229684E+03 0.  0.
          5    1    4    4  502    0 -0.29821485434E+02 -0.30500155848E+02 -0.17225175729E+02  0.46192635551E+02  0.41800000000E+01 0.  1.
         -5    1    4    4    0  502 -0.17072733702E+03  0.10329458477E+03  0.26148588209E+02  0.20129286106E+03  0.41800000000E+01 0.  1.
        -11    1    3    3    0    0  0.20971082100E+03 -0.55038243015E+02  0.15559919871E+03  0.26686878288E+03  0.00000000000E+00 0.  1.
         11    1    3    3    0    0 -0.91619985455E+01 -0.17756185911E+02  0.32656191914E+02  0.38283824597E+02  0.00000000000E+00 0. -1.
</event>
<event>
 8    1  0.5900800E-006  0.1176644E+03  0.7561462E-02  0.1247001E+00
         -1   -1    0    0    0  501 -0.00000000000E+00  0.00000000000E+00  0.22679007063E+02  0.22679007063E+02  0.00000000000E+00 0.  1.
          1   -1    0    0  501    0  0.00000000000E+00 -0.00000000000E+00 -0.89198200547E+03  0.89198200547E+03  0.00000000000E+00 0. -1.
         23    2    1    2    0    0 -0.40981489445E+02 -0.60683898514E+02 -0.20868079341E+03  0.23832436425E+03  0.88818979045E+02 0.  0.
         23    2    1    2    0    0  0.40981489445E+02  0.60683898514E+02 -0.66062220499E+03  0.67633664828E+03  0.12509015176E+03 0.  0.
          5    1    4    4  502    0  0.25241593306E+02  0.87797692493E+02 -0.28337192335E+03  0.29776281195E+03  0.41800000000E+01 0. -1.
         -5    1    4    4    0  502  0.15739896139E+02 -0.27113793979E+02 -0.37725028164E+03  0.37857383633E+03  0.41800000000E+01 0. -1.
        -11    1    3    3    0    0  0.24007318265E+01 -0.68182661860E+02 -0.15154541340E+03  0.16619461849E+03  0.00000000000E+00 0. -1.
         11    1    3    3    0    0 -0.43382221271E+02  0.74987633455E+01 -0.57135380009E+02  0.72129745756E+02  0.00000000000E+00 0.  1.
</event>
<event>
 8    1  0.5900800E-006  0.8504125E+02  0.7561462E-02  0.1315325E+00
          2   -1    0    0  501    0  0.00000000000E+00  0.00000000000E+00  0.19837359105E+03  0.19837359105E+03  0.00000000000E+00 0. -1.
         -2   -1    0    0    0  501 -0.00000000000E+00 -0.00000000000E+00 -0.66491346439E+02  0.66491346439E+02  0.00000000000E+00 0.  1.
         23    2    1    2    0    0 -0.10307365799E+02 -0.31021554915E+02  0.82557174199E+02  0.12648172135E+03  0.90074192561E+02 0.  0.
         23    2    1    2    0    0  0.10307365799E+02  0.31021554915E+02  0.49325070416E+02  0.13838321614E+03  0.12509345818E+03 0.  0.
          5    1    4    4  502    0  0.38460025313E+02  0.62105861846E+02 -0.43808422636E+00  0.73170868114E+02  0.41800000000E+01 0.  1.
         -5    1    4    4    0  502 -0.28152659514E+02 -0.31084306931E+02  0.49763154642E+02  0.65212348026E+02  0.41800000000E+01 0.  1.
        -11    1    3    3    0    0  0.11029341002E+02  0.56102998030E+01 -0.15393705201E+02  0.19750645220E+02  0.00000000000E+00 0.  1.
         11    1    3    3    0    0 -0.21336706800E+02 -0.36631854718E+02  0.97950879399E+02  0.10673107613E+03  0.00000000000E+00 0. -1.
</event>
<event>
 8    1  0.5900800E-006  0.8061150E+02  0.7561462E-02  0.1327325E+00
         -1   -1    0    0    0  501 -0.00000000000E+00  0.00000000000E+00  0.22924734389E+02  0.22924734389E+02  0.00000000000E+00 0.  1.
          1   -1    0    0  501    0  0.00000000000E+00 -0.00000000000E+00 -0.53623985654E+03  0.53623985654E+03  0.00000000000E+00 0. -1.
         23    2    1    2    0    0 -0.14318131785E+02  0.42789325871E+01 -0.17708981286E+03  0.20011273063E+03  0.91983612547E+02 0.  0.
         23    2    1    2    0    0  0.14318131785E+02 -0.42789325871E+01 -0.33622530929E+03  0.35905186030E+03  0.12508981421E+03 0.  0.
          5    1    4    4  502    0  0.49089425793E+02 -0.26593441715E+02 -0.29596196257E+03  0.30121078758E+03  0.41800000000E+01 0. -1.
         -5    1    4    4    0  502 -0.34771294009E+02  0.22314509128E+02 -0.40263346722E+02  0.57841072724E+02  0.41800000000E+01 0. -1.
        -11    1    3    3    0    0 -0.37803068914E+02  0.10839087331E+02 -0.17032741101E+03  0.17480842307E+03  0.00000000000E+00 0. -1.
         11    1    3    3    0    0  0.23484937129E+02 -0.65601547436E+01 -0.67624018505E+01  0.25304307558E+02  0.00000000000E+00 0.  1.
</event>
<event>
 8    1  0.5900800E-006  0.3261881E+03  0.7561462E-02  0.1072836E+00
          1   -1    0    0  501    0  0.00000000000E+00  0.00000000000E+00  0.76347146096E+03  0.76347146096E+03  0.00000000000E+00 0. -1.
         -1   -1    0    0    0  501 -0.00000000000E+00 -0.00000000000E+00 -0.15624405127E+03  0.15624405127E+03  0.00000000000E+00 0.  1.
         23    2    1    2    0    0 -0.12955458292E+02 -0.31067538194E+03  0.43596686961E+03  0.54333127612E+03  0.91949591476E+02 0.  0.
         23    2    1    2    0    0  0.12955458292E+02  0.31067538194E+03  0.17126054008E+03  0.37638423611E+03  0.12509150154E+03 0.  0.
          5    1    4    4  502    0  0.60726458672E+02  0.23979279860E+03  0.10790961497E+03  0.26990784807E+03  0.41800000000E+01 0.  1.
         -5    1    4    4    0  502 -0.47771000380E+02  0.70882583333E+02  0.63350925110E+02  0.10647638804E+03  0.41800000000E+01 0.  1.
        -11    1    3    3    0    0  0.30577868415E+02 -0.13232541499E+03  0.23268214364E+03  0.26941789373E+03  0.00000000000E+00 0. -1.
         11    1    3    3    0    0 -0.43533326706E+02 -0.17834996694E+03  0.20328472596E+03  0.27391338239E+03  0.00000000000E+00 0.  1.
</event>
<event>
 8    1  0.5900800E-006  0.8569322E+02  0.7561462E-02  0.1313630E+00
         -2   -1    0    0    0  501 -0.00000000000E+00  0.00000000000E+00  0.18659200110E+03  0.18659200110E+03  0.00000000000E+00 0.  1.
          2   -1    0    0  501    0  0.00000000000E+00 -0.00000000000E+00 -0.12757016594E+03  0.12757016594E+03  0.00000000000E+00 0. -1.
         23    2    1    2    0    0 -0.13799272051E+02  0.72977963292E+01  0.13769953650E+03  0.16556387947E+03  0.90590055153E+02 0.  0.
         23    2    1    2    0    0  0.13799272051E+02 -0.72977963292E+01 -0.78677701340E+02  0.14859828757E+03  0.12509033792E+03 0.  0.
          5    1    4    4  502    0 -0.14598055151E+02  0.53965192544E+02 -0.21581680511E+02  0.60071512002E+02  0.41800000000E+01 0. -1.
         -5    1    4    4    0  502  0.28397327203E+02 -0.61262988873E+02 -0.57096020829E+02  0.88526775568E+02  0.41800000000E+01 0. -1.
        -11    1    3    3    0    0  0.51886221908E+01 -0.16460006396E+02 -0.63115762350E+01  0.18376332751E+02  0.00000000000E+00 0. -1.
         11    1    3    3    0    0 -0.18987894242E+02  0.23757802725E+02  0.14401111274E+03  0.14718754672E+03  0.00000000000E+00 0.  1.
</event>
<event>
 8    1  0.5900800E-006  0.1343087E+03  0.7561462E-02  0.1221199E+00
          1   -1    0    0  501    0  0.00000000000E+00  0.00000000000E+00  0.61874055287E+03  0.61874055287E+03  0.00000000000E+00 0. -1.
         -1   -1    0    0    0  501 -0.00000000000E+00 -0.00000000000E+00 -0.10856155842E+03  0.10856155842E+03  0.00000000000E+00 0.  1.
         23    2    1    2    0    0  0.11133718945E+03  0.40882685733E+02 -0.35769298979E+02  0.15479176993E+03  0.92809943120E+02 0.  0.
         23    2    1    2    0    0 -0.11133718945E+03 -0.40882685733E+02  0.54594829343E+03  0.57251034136E+03  0.12506473567E+03 0.  0.
          5    1    4    4  502    0  0.30040275481E+00  0.18112560003E+02  0.25043784425E+03  0.25112694261E+03  0.41800000000E+01 0. -1.
         -5    1    4    4    0  502 -0.11163759221E+03 -0.58995245736E+02  0.29551044918E+03  0.32138339875E+03  0.41800000000E+01 0. -1.
        -11    1    3    3    0    0  0.48839376537E+02  0.36626660320E+02 -0.61880391926E+02  0.86925139353E+02  0.00000000000E+00 0.  1.
         11    1    3    3    0    0  0.62497812916E+02  0.42560254131E+01  0.26111092946E+02  0.67866630581E+02  0.00000000000E+00 0. -1.
</event>
<event>
 8    1  0.5900800E-006  0.1073275E+03  0.7561462E-02  0.1265601E+00
         -1   -1    0    0    0  501 -0.00000000000E+00  0.00000000000E+00  0.70158684465E+02  0.70158684465E+02  0.00000000000E+00 0.  1.
          1   -1    0    0  501    0  0.00000000000E+00 -0.00000000000E+00 -0.25372127118E+03  0.25372127118E+03  0.00000000000E+00 0. -1.
         23    2    1    2    0    0  0.75688419960E+01 -0.13269849669E+02  0.89724783830E+01  0.93769583240E+02  0.92080687950E+02 0.  0.
         23    2    1    2    0    0 -0.75688419960E+01  0.13269849669E+02 -0.19253506510E+03  0.23011037240E+03  0.12509059084E+03 0.  0.
          5    1    4    4  502    0 -0.27990595330E+02  0.62392812557E+02 -0.78402396458E+02  0.10411889673E+03  0.41800000000E+01 0.  1.
         -5    1    4    4    0  502  0.20421753334E+02 -0.49122962889E+02 -0.11413266864E+03  0.12599147567E+03  0.41800000000E+01 0.  1.
        -11    1    3    3    0    0  0.36829994876E+02 -0.39125350983E+02  0.13004264882E+00  0.53733216200E+02  0.00000000000E+00 0. -1.
         11    1    3    3    0    0 -0.29261152880E+02  0.25855501315E+02  0.88424357342E+01  0.40036367040E+02  0.00000000000E+00 0.  1.
</event>
<event>
 8    1  0.5900800E-006  0.1120291E+03  0.7561462E-02  0.1256858E+00
          2   -1    0    0  501    0  0.00000000000E+00  0.00000000000E+00  0.44369591249E+02  0.44369591249E+02  0.00000000000E+00 0. -1.
         -2   -1    0    0    0  501 -0.00000000000E+00 -0.00000000000E+00 -0.41719155432E+03  0.41719155432E+03  0.00000000000E+00 0.  1.
         23    2    1    2    0    0 -0.54296428115E+02 -0.56809477153E+02 -0.20859193061E+03  0.24066693658E+03  0.90744487684E+02 0.  0.
         23    2    1    2    0    0  0.54296428115E+02  0.56809477153E+02 -0.16423003246E+03  0.22089420899E+03  0.12508928493E+03 0.  0.
          5    1    4    4  502    0  0.56408150442E+02  0.10567672460E+02 -0.82417222672E+01  0.58128766746E+02  0.41800000000E+01 0.  1.
         -5    1    4    4    0  502 -0.21117223272E+01  0.46241804692E+02 -0.15598831019E+03  0.16276544225E+03  0.41800000000E+01 0.  1.
        -11    1    3    3    0    0 -0.83868060260E+01  0.24922034178E+02 -0.46435334873E+02  0.53363720144E+02  0.00000000000E+00 0. -1.
         11    1    3    3    0    0 -0.45909622089E+02 -0.81731511331E+02 -0.16215659574E+03  0.18730321643E+03  0.00000000000E+00 0.  1.
</event>
<event>
 8    1  0.5900800E-006  0.1161266E+03  0.7561462E-02  0.1249627E+00
          1   -1    0    0  501    0  0.00000000000E+00  0.00000000000E+00  0.58094897892E+02  0.58094897892E+02  0.00000000000E+00 0. -1.
         -1   -1    0    0    0  501 -0.00000000000E+00 -0.00000000000E+00 -0.29191590700E+03  0.29191590700E+03  0.00000000000E+00 0.  1.
         23    2    1    2    0    0 -0.64939050138E+02 -0.30456391935E+02 -0.10205217921E+03  0.15467333675E+03  0.91457759523E+02 0.  0.
         23    2    1    2    0    0  0.64939050138E+02  0.30456391935E+02 -0.13176882990E+03  0.19533746815E+03  0.12509608262E+03 0.  0.
          5    1    4    4  502    0  0.50181408319E+02  0.70756699802E+02 -0.12420999533E+03  0.15155949210E+03  0.41800000000E+01 0. -1.
         -5    1    4    4    0  502  0.14757641819E+02 -0.40300307867E+02 -0.75588345724E+01  0.43777976042E+02  0.41800000000E+01 0. -1.
        -11    1    3    3    0    0 -0.80490539625E+02 -0.18290803517E+02 -0.44384310789E+02  0.93718981571E+02  0.00000000000E+00 0. -1.
         11    1    3    3    0    0  0.15551489487E+02 -0.12165588418E+02 -0.57667868423E+02  0.60954355179E+02  0.00000000000E+00 0.  1.
</event>
<event>
 8    1  0.5900800E-006  0.9687670E+02  0.7561462E-02  0.1287004E+00
          1   -1    0    0  501    0  0.00000000000E+00  0.00000000000E+00  0.41997453799E+03  0.41997453799E+03  0.00000000000E+00 0. -1.
         -1   -1    0    0    0  501 -0.00000000000E+00 -0.00000000000E+00 -0.30138841549E+02  0.30138841549E+02  0.00000000000E+00 0.  1.
         23    2    1    2    0    0  0.10253927907E+02 -0.22359382638E+02  0.13672029742E+03  0.16671025593E+03  0.92167156172E+02 0.  0.
         23    2    1    2    0    0 -0.10253927907E+02  0.22359382638E+02  0.25311539903E+03  0.28340312361E+03  0.12507933570E+03 0.  0.
          5    1    4    4  502    0  0.12484457100E+02  0.61482771634E+02  0.67260274824E+02  0.92072850756E+02  0.41800000000E+01 0.  1.
         -5    1    4    4    0  502 -0.22738385007E+02 -0.39123388996E+02  0.18585512420E+03  0.19133027286E+03  0.41800000000E+01 0.  1.
        -11    1    3    3    0    0  0.21483578230E+02 -0.50637672501E+02  0.11996677842E+03  0.13197630823E+03  0.00000000000E+00 0. -1.
         11    1    3    3    0    0 -0.11229650323E+02  0.28278289862E+02  0.16753518997E+02  0.34733947698E+02  0.00000000000E+00 0.  1.
</event>
<event>
 8    1  0.5900800E-006  0.1030702E+03  0.7561462E-02  0.1273969E+00
         -2   -1    0    0    0  501 -0.00000000000E+00  0.00000000000E+00  0.33275392028E+02  0.33275392028E+02  0.00000000000E+00 0.  1.
          2   -1    0    0  501    0  0.00000000000E+00 -0.00000000000E+00 -0.46174686471E+03  0.46174686471E+03  0.00000000000E+00 0. -1.
         23    2    1    2    0    0  0.56971795021E+02 -0.12773455016E+02 -0.16389924636E+03  0.19660183278E+03  0.91544366925E+02 0.  0.
         23    2    1    2    0    0 -0.56971795021E+02  0.12773455016E+02 -0.26457222633E+03  0.29842042396E+03  0.12508932773E+03 0.  0.
          5    1    4    4  502    0 -0.64257381982E+02  0.55094769342E+02 -0.22276901563E+03  0.23834418699E+03  0.41800000000E+01 0.  1.
         -5    1    4    4    0  502  0.72855869614E+01 -0.42321314326E+02 -0.41803210698E+02  0.60076236969E+02  0.41800000000E+01 0.  1.
        -11    1    3    3    0    0  0.58000630257E+01 -0.24976250389E+02 -0.12661707425E+01  0.25672105542E+02  0.00000000000E+00 0.  1.
         11    1    3    3    0    0  0.51171731995E+02  0.12202795373E+02 -0.16263307562E+03  0.17092972724E+03  0.00000000000E+00 0. -1.
</event>
<event>
 8    1  0.5900800E-006  0.1036364E+03  0.7561462E-02  0.1272830E+00
          1   -1    0    0  501    0  0.00000000000E+00  0.00000000000E+00  0.10968451248E+04  0.10968451248E+04  0.00000000000E+00 0. -1.
         -1   -1    0    0    0  501 -0.00000000000E+00 -0.00000000000E+00 -0.12985147254E+02  0.12985147254E+02  0.00000000000E+00 0.  1.
         23    2    1    2    0    0 -0.23479801980E+02 -0.40553435928E+02  0.39409047679E+03  0.40724465978E+03  0.91351117983E+02 0.  0.
         23    2    1    2    0    0  0.23479801980E+02  0.40553435928E+02  0.68976950077E+03  0.70258561229E+03  0.12509474862E+03 0.  0.
          5    1    4    4  502    0  0.28674747450E+02  0.69321256280E+02  0.23196500050E+03  0.24382967738E+03  0.41800000000E+01 0.  1.
         -5    1    4    4    0  502 -0.51949454693E+01 -0.28767820351E+02  0.45780450027E+03  0.45875593491E+03  0.41800000000E+01 0.  1.
        -11    1    3    3    0    0 -0.55926040514E+02 -0.77351282927E+01  0.22378641746E+03  0.23079842907E+03  0.00000000000E+00 0.  1.
         11    1    3    3    0    0  0.32446238534E+02 -0.32818307636E+02  0.17030405933E+03  0.17644623072E+03  0.00000000000E+00 0. -1.
</event>
<event>
 8    1  0.5900800E-006  0.1480464E+03  0.7561462E-02  0.1202894E+00
         -1   -1    0    0    0  501 -0.00000000000E+00  0.00000000000E+00  0.45491058102E+02  0.45491058102E+02  0.00000000000E+00 0.  1.
          1   -1    0    0  501    0  0.00000000000E+00 -0.00000000000E+00 -0.64069941609E+03  0.64069941609E+03  0.00000000000E+00 0. -1.
         23    2    1    2    0    0 -0.63263529631E+02 -0.94601202352E+02 -0.14494027290E+03  0.20521199056E+03  0.90291841798E+02 0.  0.
         23    2    1    2    0    0  0.63263529631E+02  0.94601202352E+02 -0.45026808510E+03  0.48097848363E+03  0.12508913460E+03 0.  0.
          5    1    4    4  502    0  0.18916665296E+02 -0.24728883169E+02 -0.37051310111E+02  0.48576021551E+02  0.41800000000E+01 0.  1.
         -5    1    4    4    0  502  0.44346864334E+02  0.11933008552E+03 -0.41321677498E+03  0.43240246208E+03  0.41800000000E+01 0.  1.
        -11    1    3    3    0    0 -0.65590616304E+02 -0.10655702074E+03 -0.10464741859E+03  0.16311839208E+03  0.00000000000E+00 0.  1.
         11    1    3    3    0    0  0.23270866731E+01  0.11955818384E+02 -0.40292854302E+02  0.42093598485E+02  0.00000000000E+00 0. -1.
</event>
<event>
 8    1  0.5900800E-006  0.1330887E+03  0.7561462E-02  0.1222943E+00
         -1   -1    0    0    0  501 -0.00000000000E+00  0.00000000000E+00  0.20862520121E+03  0.20862520121E+03  0.00000000000E+00 0.  1.
          1   -1    0    0  501    0  0.00000000000E+00 -0.00000000000E+00 -0.13061865476E+03  0.13061865476E+03  0.00000000000E+00 0. -1.
         23    2    1    2    0    0 -0.34897017632E+02 -0.11678362430E+03  0.12872861173E+02  0.15283950926E+03  0.91312585616E+02 0.  0.
         23    2    1    2    0    0  0.34897017632E+02  0.11678362430E+03  0.65133685284E+02  0.18640434671E+03  0.12509183333E+03 0.  0.
          5    1    4    4  502    0  0.18400128896E+02 -0.10587316268E+01 -0.29005852981E+02  0.34619323551E+02  0.41800000000E+01 0. -1.
         -5    1    4    4    0  502  0.16496888736E+02  0.11784235593E+03  0.94139538265E+02  0.15178502315E+03  0.41800000000E+01 0. -1.
        -11    1    3    3    0    0  0.48076014538E+01 -0.52065582995E+02 -0.35146963428E+02  0.63001960307E+02  0.00000000000E+00 0.  1.
         11    1    3    3    0    0 -0.39704619086E+02 -0.64718041309E+02  0.48019824601E+02  0.89837548956E+02  0.00000000000E+00 0. -1.
</event>
<event>
 8    1  0.5900800E-006  0.1534722E+03  0.7561462E-02  0.1196270E+00
          2   -1    0    0  501    0  0.00000000000E+00  0.00000000000E+00  0.15838461764E+04  0.15838461764E+04  0.00000000000E+00 0. -1.
         -2   -1    0    0    0  501 -0.00000000000E+00 -0.00000000000E+00 -0.19634842365E+02  0.19634842365E+02  0.00000000000E+00 0.  1.
         23    2    1    2    0    0  0.10317283669E+03  0.78936408364E+02  0.52037506754E+03  0.54418008391E+03  0.92011749320E+02 0.  0.
         23    2    1    2    0    0 -0.10317283669E+03 -0.78936408364E+02  0.10438362665E+04  0.10593009349E+04  0.12509487815E+03 0.  0.
          5    1    4    4  502    0 -0.12063821828E+03 -0.77244969472E+02  0.67605384838E+03  0.69107643812E+03  0.41800000000E+01 0. -1.
         -5    1    4    4    0  502  0.17465381592E+02 -0.16914388920E+01  0.36778241814E+03  0.36822449676E+03  0.41800000000E+01 0. -1.
        -11    1    3    3    0    0 -0.45523700524E+00  0.31711378023E+02  0.43126432683E+02  0.53532307375E+02  0.00000000000E+00 0.  1.
         11    1    3    3    0    0  0.10362807369E+03  0.47225030341E+02  0.47724863485E+03  0.49064777653E+03  0.00000000000E+00 0. -1.
</event>
<event>
 7    1  0.5900800E-006  0.2584777E+03  0.7561462E-02  0.1108061E+00
          1   -1    0    0  501    0  0.00000000000E+00  0.00000000000E+00  0.17321443243E+03  0.17321443243E+03  0.00000000000E+00 0. -1.
         -1   -1    0    0    0  501 -0.00000000000E+00 -0.00000000000E+00 -0.46353720564E+03  0.46353720564E+03  0.00000000000E+00 0.  1.
         23    2    1    2    0    0  0.24374964899E+03 -0.57554153474E+02 -0.21992173461E+03  0.34578677984E+03  0.92068212735E+02 0.  0.
          5    1    1    2  502    0 -0.21068426619E+03  0.66092257703E+02 -0.10289505750E+03  0.24364094854E+03  0.41800000000E+01 0. -1.
         -5    1    1    2    0  502 -0.33065382797E+02 -0.85381042291E+01  0.32494018907E+02  0.47323909687E+02  0.41800000000E+01 0.  1.
        -11    1    3    3    0    0  0.19935928030E+02 -0.30252358070E+02 -0.57276194903E+02  0.67773216670E+02  0.00000000000E+00 0. -1.
         11    1    3    3    0    0  0.22381372096E+03 -0.27301795403E+02 -0.16264553971E+03  0.27801356317E+03  0.00000000000E+00 0.  1.
</event>
<event>
 8    1  0.5900800E-006  0.1293461E+03  0.7561462E-02  0.1228429E+00
         -2   -1    0    0    0  501 -0.00000000000E+00  0.00000000000E+00  0.11019328113E+03  0.11019328113E+03  0.00000000000E+00 0.  1.
          2   -1    0    0  501    0  0.00000000000E+00 -0.00000000000E+00 -0.16720915657E+03  0.16720915657E+03  0.00000000000E+00 0. -1.
         23    2    1    2    0    0  0.75613419146E+02  0.30940277562E+02 -0.15034562781E+02  0.12221179854E+03  0.89638137496E+02 0.  0.
         23    2    1    2    0    0 -0.75613419146E+02 -0.30940277562E+02 -0.41981312662E+02  0.15519063917E+03  0.12508802477E+03 0.  0.
          5    1    4    4  502    0 -0.10531084156E+03 -0.32422015748E+02 -0.54082998601E+02  0.12281695157E+03  0.41800000000E+01 0.  1.
         -5    1    4    4    0  502  0.29697422413E+02  0.14817381857E+01  0.12101685939E+02  0.32373687596E+02  0.41800000000E+01 0.  1.
        -11    1    3    3    0    0  0.90477076595E+01  0.48675766380E+02  0.67361405074E+01  0.49965656560E+02  0.00000000000E+00 0.  1.
         11    1    3    3    0    0  0.66565711486E+02 -0.17735488818E+02 -0.21770703289E+02  0.72246141980E+02  0.00000000000E+00 0. -1.
</event>
<event>
 8    1  0.5900800E-006  0.7941540E+02  0.7561462E-02  0.1330719E+00
         -1   -1    0    0    0  501 -0.00000000000E+00  0.00000000000E+00  0.28714852069E+02  0.28714852069E+02  0.00000000000E+00 0.  1.
          1   -1    0    0  501    0  0.00000000000E+00 -0.00000000000E+00 -0.57663199194E+03  0.57663199194E+03  0.00000000000E+00 0. -1.
         23    2    1    2    0    0  0.81626368532E+01 -0.30439132283E+01 -0.92048098587E+02  0.13254700674E+03  0.94973483105E+02 0.  0.
         23    2    1    2    0    0 -0.81626368532E+01  0.30439132283E+01 -0.45586904129E+03  0.47279983728E+03  0.12508880556E+03 0.  0.
          5    1    4    4  502    0 -0.21481728484E+02 -0.24380906275E+02 -0.43354717530E+03  0.43478330103E+03  0.41800000000E+01 0. -1.
         -5    1    4    4    0  502  0.13319091631E+02  0.27424819503E+02 -0.22321865991E+02  0.38016536244E+02  0.41800000000E+01 0. -1.
        -11    1    3    3    0    0  0.48683072162E+02 -0.18284505580E+02 -0.47575347699E+02  0.70482468517E+02  0.00000000000E+00 0.  1.
         11    1    3    3    0    0 -0.40520435309E+02  0.15240592352E+02 -0.44472750887E+02  0.62064538219E+02  0.00000000000E+00 0. -1.
</event>
<event>
 8    1  0.5900800E-006  0.9416831E+02  0.7561462E-02  0.1293060E+00
         -1   -1    0    0    0  501 -0.00000000000E+00  0.00000000000E+00  0.95789766200E+01  0.95789766200E+01  0.00000000000E+00 0.  1.
          1   -1    0    0  501    0  0.00000000000E+00 -0.00000000000E+00 -0.13368533598E+04  0.13368533598E+04  0.00000000000E+00 0. -1.
         23    2    1    2    0    0  0.14713729101E+02 -0.29328886224E+02 -0.38732718203E+03  0.39925713446E+03  0.91144040332E+02 0.  0.
         23    2    1    2    0    0 -0.14713729101E+02  0.29328886224E+02 -0.93994720110E+03  0.94717520191E+03  0.11208677381E+03 0.  0.
          5    1    4    4  502    0  0.21433588108E+02  0.47939234275E+02 -0.79009887204E+03  0.79185306016E+03  0.41800000000E+01 0. -1.
         -5    1    4    4    0  502 -0.36147317209E+02 -0.18610348050E+02 -0.14984832906E+03  0.15532214175E+03  0.41800000000E+01 0.  1.
        -11    1    3    3    0    0  0.47428296249E+02  0.46051002995E+01 -0.23585467761E+03  0.24062019696E+03  0.00000000000E+00 0.  1.
         11    1    3    3    0    0 -0.32714567148E+02 -0.33933986524E+02 -0.15147250442E+03  0.15863693750E+03  0.00000000000E+00 0. -1.
</event>
<event>
 8    1  0.5900800E-006  0.2116181E+03  0.7561462E-02  0.1140291E+00
          2   -1    0    0  501    0  0.00000000000E+00  0.00000000000E+00  0.15397828723E+04  0.15397828723E+04  0.00000000000E+00 0. -1.
         -2   -1    0    0    0  501 -0.00000000000E+00 -0.00000000000E+00 -0.46059354488E+02  0.46059354488E+02  0.00000000000E+00 0.  1.
         23    2    1    2    0    0 -0.14356566831E+03  0.11184859302E+03  0.24553732343E+03  0.31827087157E+03  0.88806315186E+02 0.  0.
         23    2    1    2    0    0  0.14356566831E+03 -0.11184859302E+03  0.12481861944E+04  0.12675713552E+04  0.12508859196E+03 0.  0.
          5    1    4    4  502    0  0.16607363287E+03 -0.89024048964E+02  0.10730029999E+04  0.10894304214E+04  0.41800000000E+01 0. -1.
         -5    1    4    4    0  502 -0.22507964555E+02 -0.22824544052E+02  0.17518319448E+03  0.17814093383E+03  0.41800000000E+01 0. -1.
        -11    1    3    3    0    0  0.12017589908E+02  0.14793344927E+02  0.20730817066E+02  0.28160829134E+02  0.00000000000E+00 0.  1.
         11    1    3    3    0    0 -0.15558325822E+03  0.97055248089E+02  0.22480650637E+03  0.29011004244E+03  0.00000000000E+00 0. -1.
</event>
<event>
 8    1  0.5900800E-006  0.2462681E+03  0.7561462E-02  0.1115686E+00
          2   -1    0    0  501    0  0.00000000000E+00  0.00000000000E+00  0.11919545491E+04  0.11919545491E+04  0.00000000000E+00 0.  1.
         -2   -1    0    0    0  501 -0.00000000000E+00 -0.00000000000E+00 -0.11628375388E+04  0.11628375388E+04  0.00000000000E+00 0. -1.
         23    2    1    2    0    0  0.13173369256E+03 -0.18168783986E+03 -0.11359794333E+04  0.11617031923E+04  0.93492230547E+02 0.  0.
         23    2    1    2    0    0 -0.13173369256E+03  0.18168783986E+03  0.11650964436E+04  0.11930888957E+04  0.12508858077E+03 0.  0.
          5    1    4    4  502    0 -0.14869738737E+03  0.11763788865E+03  0.90451319333E+03  0.92418135405E+03  0.41800000000E+01 0.  1.
         -5    1    4    4    0  502  0.16963694807E+02  0.64049951212E+02  0.26058325031E+03  0.26890754160E+03  0.41800000000E+01 0.  1.
        -11    1    3    3    0    0  0.13367841326E+03 -0.13575988043E+03 -0.10047573707E+04  0.10226622303E+04  0.00000000000E+00 0. -1.
         11    1    3    3    0    0 -0.19447206986E+01 -0.45927959435E+02 -0.13122206259E+03  0.13904096198E+03  0.00000000000E+00 0.  1.
</event>
<event>
 8    1  0.5900800E-006  0.1237102E+03  0.7561462E-02  0.1237099E+00
          1   -1    0    0  501    0  0.00000000000E+00  0.00000000000E+00  0.27272600371E+03  0.27272600371E+03  0.00000000000E+00 0. -1.
         -1   -1    0    0    0  501 -0.00000000000E+00 -0.00000000000E+00 -0.64480734501E+02  0.64480734501E+02  0.00000000000E+00 0.  1.
         23    2    1    2    0    0  0.53807246898E+02  0.51151527751E+02  0.11395078222E+03  0.16385397001E+03  0.91387330137E+02 0.  0.
         23    2    1    2    0    0 -0.53807246898E+02 -0.51151527751E+02  0.94294486993E+02  0.17335276820E+03  0.12509209950E+03 0.  0.
          5    1    4    4  502    0 -0.11213510926E+02  0.38285011750E+02  0.59424087007E+01  0.40549593995E+02  0.41800000000E+01 0.  1.
         -5    1    4    4    0  502 -0.42593735972E+02 -0.89436539500E+02  0.88352078292E+02  0.13280317421E+03  0.41800000000E+01 0.  1.
        -11    1    3    3    0    0  0.97359366323E+01 -0.21264186354E+02  0.20616964140E+01  0.23477748519E+02  0.00000000000E+00 0. -1.
         11    1    3    3    0    0  0.44071310266E+02  0.72415714104E+02  0.11188908581E+03  0.14037622149E+03  0.00000000000E+00 0.  1.
</event>
<event>
 8    1  0.5900800E-006  0.1028208E+03  0.7561462E-02  0.1274474E+00
         -2   -1    0    0    0  501 -0.00000000000E+00  0.00000000000E+00  0.18609103236E+02  0.18609103236E+02  0.00000000000E+00 0.  1.
          2   -1    0    0  501    0  0.00000000000E+00 -0.00000000000E+00 -0.74106894063E+03  0.74106894063E+03  0.00000000000E+00 0. -1.
         23    2    1    2    0    0  0.54494064234E+01  0.20545363490E+02 -0.18920022452E+03  0.21153190180E+03  0.92180326142E+02 0.  0.
         23    2    1    2    0    0 -0.54494064234E+01 -0.20545363490E+02 -0.53325961288E+03  0.54814614207E+03  0.12508625165E+03 0.  0.
          5    1    4    4  502    0 -0.62409535192E+01 -0.69229235329E+02 -0.40398912016E+03  0.40994672597E+03  0.41800000000E+01 0. -1.
         -5    1    4    4    0  502  0.79154709573E+00  0.48683871839E+02 -0.12927049271E+03  0.13819941610E+03  0.41800000000E+01 0. -1.
        -11    1    3    3    0    0 -0.29823391873E+02  0.37571665056E+02 -0.61712369745E+02  0.78163170979E+02  0.00000000000E+00 0.  1.
         11    1    3    3    0    0  0.35272798296E+02 -0.17026301566E+02 -0.12748785478E+03  0.13336873082E+03  0.00000000000E+00 0. -1.
</event>
<event>
 8    1  0.5900800E-006  0.1742412E+03  0.7561462E-02  0.1173496E+00
          1   -1    0    0  501    0  0.00000000000E+00  0.00000000000E+00  0.29406534024E+03  0.29406534024E+03  0.00000000000E+00 0. -1.
         -1   -1    0    0    0  501 -0.00000000000E+00 -0.00000000000E+00 -0.11059483441E+03  0.11059483441E+03  0.00000000000E+00 0.  1.
         23    2    1    2    0    0 -0.35503643395E+02  0.13567363014E+03  0.56666778614E+02  0.17796255893E+03  0.93764097462E+02 0.  0.
         23    2    1    2    0    0  0.35503643395E+02 -0.13567363014E+03  0.12680372722E+03  0.22669761572E+03  0.12507909948E+03 0.  0.
          5    1    4    4  502    0  0.68599064181E+02 -0.13167583124E+03  0.78902353784E+02  0.16818861428E+03  0.41800000000E+01 0.  1.
         -5    1    4    4    0  502 -0.33095420786E+02 -0.39977988964E+01  0.47901373436E+02  0.58509001445E+02  0.41800000000E+01 0.  1.
        -11    1    3    3    0    0 -0.10816545348E+02  0.14073708147E+03  0.36794539198E+02  0.14586898872E+03  0.00000000000E+00 0. -1.
         11    1    3    3    0    0 -0.24687098047E+02 -0.50634513364E+01  0.19872239415E+02  0.32093570209E+02  0.00000000000E+00 0.  1.
</event>
<event>
 8    1  0.5900800E-006  0.1114846E+03  0.7561462E-02  0.1257845E+00
          2   -1    0    0  501    0  0.00000000000E+00  0.00000000000E+00  0.15728868264E+03  0.15728868264E+03  0.00000000000E+00 0. -1.
         -2   -1    0    0    0  501 -0.00000000000E+00 -0.00000000000E+00 -0.11349004085E+03  0.11349004085E+03  0.00000000000E+00 0.  1.
         23    2    1    2    0    0  0.48952098520E+02  0.59650397990E+02  0.16649879967E+02  0.12131602304E+03  0.92118841795E+02 0.  0.
         23    2    1    2    0    0 -0.48952098520E+02 -0.59650397990E+02  0.27148761824E+02  0.14946270044E+03  0.12509022994E+03 0.  0.
          5    1    4    4  502    0 -0.35979755083E+02 -0.75141243823E+02 -0.30044335259E+02  0.88661625184E+02  0.41800000000E+01 0.  1.
         -5    1    4    4    0  502 -0.12972343437E+02  0.15490845833E+02  0.57193097083E+02  0.60801075260E+02  0.41800000000E+01 0.  1.
        -11    1    3    3    0    0 -0.27482444862E+01  0.66686665824E+02  0.17978037246E+02  0.69122167715E+02  0.00000000000E+00 0.  1.
         11    1    3    3    0    0  0.51700343006E+02 -0.70362678341E+01 -0.13281572786E+01  0.52193855325E+02  0.00000000000E+00 0. -1.
</event>
<event>
 8    1  0.5900800E-006  0.8453054E+02  0.7561462E-02  0.1316665E+00
         -1   -1    0    0    0  501 -0.00000000000E+00  0.00000000000E+00  0.14489084394E+03  0.14489084394E+03  0.00000000000E+00 0.  1.
          1   -1    0    0  501    0  0.00000000000E+00 -0.00000000000E+00 -0.10840960203E+03  0.10840960203E+03  0.00000000000E+00 0. -1.
         23    2    1    2    0    0  0.44188563003E+02  0.19644494780E+02  0.62101641962E+02  0.11676151198E+03  0.86244428629E+02 0.  0.
         23    2    1    2    0    0 -0.44188563003E+02 -0.19644494780E+02 -0.25620400052E+02  0.13653893399E+03  0.12509172762E+03 0.  0.
          5    1    4    4  502    0 -0.55476274727E+02 -0.20915451584E+02  0.38808214289E+02  0.70983259075E+02  0.41800000000E+01 0. -1.
         -5    1    4    4    0  502  0.11287711724E+02  0.12709568039E+01 -0.64428614341E+02  0.65555674911E+02  0.41800000000E+01 0. -1.
        -11    1    3    3    0    0  0.45747874509E+02 -0.25483810662E+02  0.23679146857E+02  0.57471685409E+02  0.00000000000E+00 0. -1.
         11    1    3    3    0    0 -0.15593115054E+01  0.45128305442E+02  0.38422495105E+02  0.59289826569E+02  0.00000000000E+00 0.  1.
</event>
<event>
 8    1  0.5900800E-006  0.1107845E+03  0.7561462E-02  0.1259124E+00
          2   -1    0    0  501    0  0.00000000000E+00  0.00000000000E+00  0.58558357385E+03  0.58558357385E+03  0.00000000000E+00 0. -1.
         -2   -1    0    0    0  501 -0.00000000000E+00 -0.00000000000E+00 -0.33372079250E+02  0.33372079250E+02  0.00000000000E+00 0.  1.
         23    2    1    2    0    0 -0.62260612327E+02 -0.99279005219E+01  0.11754513792E+03  0.16227479347E+03  0.92419165178E+02 0.  0.
         23    2    1    2    0    0  0.62260612327E+02  0.99279005219E+01  0.43466635669E+03  0.45668085963E+03  0.12509044273E+03 0.  0.
          5    1    4    4  502    0 -0.15382584319E+02 -0.25952191338E+02  0.28932490577E+02  0.42008350915E+02  0.41800000000E+01 0.  1.
         -5    1    4    4    0  502  0.77643196646E+02  0.35880091860E+02  0.40573386611E+03  0.41467250872E+03  0.41800000000E+01 0.  1.
        -11    1    3    3    0    0 -0.35402293650E+02 -0.47531579311E+02  0.38377689227E+02  0.70607509925E+02  0.00000000000E+00 0.  1.
         11    1    3    3    0    0 -0.26858318677E+02  0.37603678789E+02  0.79167448689E+02  0.91667283545E+02  0.00000000000E+00 0. -1.
</event>
<event>
 8    1  0.5900800E-006  0.1061116E+03  0.7561462E-02  0.1267945E+00
         -1   -1    0    0    0  501 -0.00000000000E+00  0.00000000000E+00  0.51981153575E+03  0.51981153575E+03  0.00000000000E+00 0.  1.
          1   -1    0    0  501    0  0.00000000000E+00 -0.00000000000E+00 -0.47148707373E+02  0.47148707373E+02  0.00000000000E+00 0. -1.
         23    2    1    2    0    0  0.73750135439E+02 -0.15616969335E+02  0.36912603926E+03  0.38793502505E+03  0.92501776150E+02 0.  0.
         23    2    1    2    0    0 -0.73750135439E+02  0.15616969335E+02  0.10353678911E+03  0.17902521807E+03  0.12508872770E+03 0.  0.
          5    1    4    4  502    0 -0.42217079602E+02 -0.23861420471E+02 -0.14311705723E+02  0.50734076494E+02  0.41800000000E+01 0. -1.
         -5    1    4    4    0  502 -0.31533055837E+02  0.39478389807E+02  0.11784849483E+03  0.12829114157E+03  0.41800000000E+01 0. -1.
        -11    1    3    3    0    0  0.70758832983E+02 -0.44647140183E+02  0.32034345012E+03  0.33108927135E+03  0.00000000000E+00 0.  1.
         11    1    3    3    0    0  0.29913024565E+01  0.29030170848E+02  0.48782589147E+02  0.56845753700E+02  0.00000000000E+00 0. -1.
</event>
<event>
 8    1  0.5900800E-006  0.8374772E+02  0.7561462E-02  0.1318740E+00
          2   -1    0    0  501    0  0.00000000000E+00  0.00000000000E+00  0.29429419097E+03  0.29429419097E+03  0.00000000000E+00 0.  1.
         -2   -1    0    0    0  501 -0.00000000000E+00 -0.00000000000E+00 -0.45609668505E+02  0.45609668505E+02  0.00000000000E+00 0. -1.
         23    2    1    2    0    0  0.16986079976E+02 -0.33302698672E+02  0.91971995235E+02  0.13593381871E+03  0.92852347891E+02 0.  0.
         23    2    1    2    0    0 -0.16986079976E+02  0.33302698672E+02  0.15671252723E+03  0.20397004077E+03  0.12508942676E+03 0.  0.
          5    1    4    4  502    0 -0.66440647847E+02  0.30434273712E+02  0.12544907135E+03  0.14524306044E+03  0.41800000000E+01 0. -1.
         -5    1    4    4    0  502  0.49454567871E+02  0.28684249605E+01  0.31263455878E+02  0.58726980329E+02  0.41800000000E+01 0. -1.
        -11    1    3    3    0    0  0.17520372232E+02 -0.79759457505E+01  0.10548189761E+03  0.10722411052E+03  0.00000000000E+00 0.  1.
         11    1    3    3    0    0 -0.53429225537E+00 -0.25326752922E+02 -0.13509902376E+02  0.28709708184E+02  0.00000000000E+00 0. -1.
</event>
<event>
 8    1  0.5900800E-006  0.1181203E+03  0.7561462E-02  0.1246231E+00
          1   -1    0    0  501    0  0.00000000000E+00  0.00000000000E+00  0.51289055136E+03  0.51289055136E+03  0.00000000000E+00 0. -1.
         -1   -1    0    0    0  501 -0.00000000000E+00 -0.00000000000E+00 -0.34726483050E+02  0.34726483050E+02  0.00000000000E+00 0.  1.
         23    2    1    2    0    0  0.20463909275E+02  0.52331808467E+02  0.93347488059E+02  0.13909868017E+03  0.86471379884E+02 0.  0.
         23    2    1    2    0    0 -0.20463909275E+02 -0.52331808467E+02  0.38481658025E+03  0.40851835423E+03  0.12508419385E+03 0.  0.
          5    1    4    4  502    0 -0.25647265847E+02 -0.92561331776E+02  0.28028614376E+03  0.29631600897E+03  0.41800000000E+01 0.  1.
         -5    1    4    4    0  502  0.51833565717E+01  0.40229523309E+02  0.10453043649E+03  0.11220234527E+03  0.41800000000E+01 0.  1.
        -11    1    3    3    0    0  0.36551031550E+02 -0.75467200213E+01  0.17751247784E+02  0.41328412604E+02  0.00000000000E+00 0.  1.
         11    1    3    3    0    0 -0.16087122275E+02  0.59878528488E+02  0.75596240275E+02  0.97770267570E+02  0.00000000000E+00 0. -1.
</event>
<event>
 8    1  0.5900800E-006  0.1008058E+03  0.7561462E-02  0.1278611E+00
          3   -1    0    0  501    0  0.00000000000E+00  0.00000000000E+00  0.20500187992E+02  0.20500187992E+02  0.00000000000E+00 0. -1.
         -3   -1    0    0    0  501 -0.00000000000E+00 -0.00000000000E+00 -0.56536098870E+03  0.56536098870E+03  0.00000000000E+00 0.  1.
         23    2    1    2    0    0 -0.55337760997E+01  0.61375970631E+00 -0.25307334432E+03  0.26863405778E+03  0.89928527268E+02 0.  0.
         23    2    1    2    0    0  0.55337760997E+01 -0.61375970631E+00 -0.29178745639E+03  0.31722711891E+03  0.12434679685E+03 0.  0.
          5    1    4    4  502    0  0.55187045338E+02 -0.32695939680E+02 -0.13243319975E+03  0.14720957591E+03  0.41800000000E+01 0. -1.
         -5    1    4    4    0  502 -0.49653269238E+02  0.32082179973E+02 -0.15935425664E+03  0.17001754300E+03  0.41800000000E+01 0.  1.
        -11    1    3    3    0    0  0.14158282517E+02 -0.34786679476E+02 -0.18997260547E+03  0.19364958266E+03  0.00000000000E+00 0. -1.
         11    1    3    3    0    0 -0.19692058616E+02  0.35400439183E+02 -0.63100738845E+02  0.74984475124E+02  0.00000000000E+00 0.  1.
</event>
<event>
 8    1  0.5900800E-006  0.1055825E+03  0.7561462E-02  0.1268976E+00
         -1   -1    0    0    0  501 -0.00000000000E+00  0.00000000000E+00  0.50263964242E+02  0.50263964242E+02  0.00000000000E+00 0.  1.
          1   -1    0    0  501    0  0.00000000000E+00 -0.00000000000E+00 -0.36901431884E+03  0.36901431884E+03  0.00000000000E+00 0. -1.
         23    2    1    2    0    0 -0.20697563279E+01  0.37903630505E+02 -0.28369301390E+02  0.10159316416E+03  0.89863143983E+02 0.  0.
         23    2    1    2    0    0  0.20697563279E+01 -0.37903630505E+02 -0.29038105321E+03  0.31768511892E+03  0.12313289416E+03 0.  0.
          5    1    4    4  502    0  0.58921493788E+02 -0.39848801699E+02 -0.14645043860E+03  0.16286458422E+03  0.41800000000E+01 0. -1.
         -5    1    4    4    0  502 -0.56851737460E+02  0.19451711939E+01 -0.14393061461E+03  0.15482053471E+03  0.41800000000E+01 0.  1.
        -11    1    3    3    0    0  0.26432095746E+02  0.46166029305E+02 -0.43097258779E+02  0.68464090308E+02  0.00000000000E+00 0. -1.
         11    1    3    3    0    0 -0.28501852074E+02 -0.82623988004E+01  0.14727957390E+02  0.33129073855E+02  0.00000000000E+00 0.  1.
</event>
<event>
 8    1  0.5900800E-006  0.6317507E+02  0.7561462E-02  0.1384971E+00
          2   -1    0    0  501    0  0.00000000000E+00  0.00000000000E+00  0.38413727774E+03  0.38413727774E+03  0.00000000000E+00 0. -1.
         -2   -1    0    0    0  501 -0.00000000000E+00 -0.00000000000E+00 -0.45448188527E+02  0.45448188527E+02  0.00000000000E+00 0.  1.
         23    2    1    2    0    0 -0.11752541287E+02 -0.14284209268E+02  0.27905308131E+02  0.94054280273E+02  0.87893916483E+02 0.  0.
         23    2    1    2    0    0  0.11752541287E+02  0.14284209268E+02  0.31078378108E+03  0.33553118599E+03  0.12510978111E+03 0.  0.
          5    1    4    4  502    0  0.25682409590E+02  0.24538196872E+02  0.31517878869E+03  0.31720159285E+03  0.41800000000E+01 0. -1.
         -5    1    4    4    0  502 -0.13929868302E+02 -0.10253987605E+02 -0.43950076104E+01  0.18329593138E+02  0.41800000000E+01 0. -1.
        -11    1    3    3    0    0 -0.37426204763E+02  0.85953016396E+01 -0.13066929720E+02  0.40562848341E+02  0.00000000000E+00 0.  1.
         11    1    3    3    0    0  0.25673663476E+02 -0.22879510907E+02  0.40972237851E+02  0.53491431932E+02  0.00000000000E+00 0. -1.
</event>
<event>
 8    1  0.5900800E-006  0.1195146E+03  0.7561462E-02  0.1243900E+00
         -2   -1    0    0    0  501 -0.00000000000E+00  0.00000000000E+00  0.75417050627E+02  0.75417050627E+02  0.00000000000E+00 0.  1.
          2   -1    0    0  501    0  0.00000000000E+00 -0.00000000000E+00 -0.30665389943E+03  0.30665389943E+03  0.00000000000E+00 0. -1.
         23    2    1    2    0    0 -0.87646138353E+02 -0.60968705696E+02 -0.10177126469E+03  0.17276688031E+03  0.89955411018E+02 0.  0.
         23    2    1    2    0    0  0.87646138353E+02  0.60968705696E+02 -0.12946558411E+03  0.20930406975E+03  0.12509127668E+03 0.  0.
          5    1    4    4  502    0  0.39797055148E+02 -0.14467343395E+02 -0.10977408653E+03  0.11773245983E+03  0.41800000000E+01 0.  1.
         -5    1    4    4    0  502  0.47849083205E+02  0.75436049091E+02 -0.19691497573E+02  0.91571609916E+02  0.41800000000E+01 0.  1.
        -11    1    3    3    0    0 -0.72229115734E+02 -0.46479179369E+02 -0.11810743111E+03  0.14603672332E+03  0.00000000000E+00 0. -1.
         11    1    3    3    0    0 -0.15417022619E+02 -0.14489526327E+02  0.16336166414E+02  0.26730156990E+02  0.00000000000E+00 0.  1.
</event>
<event>
 7    1  0.5900800E-006  0.1200445E+03  0.7561462E-02  0.1243024E+00
         -1   -1    0    0    0  501 -0.00000000000E+00  0.00000000000E+00  0.19305274637E+03  0.19305274637E+03  0.00000000000E+00 0.  1.
          1   -1    0    0  501    0  0.00000000000E+00 -0.00000000000E+00 -0.11893915589E+03  0.11893915589E+03  0.00000000000E+00 0. -1.
         23    2    1    2    0    0  0.33595235099E+02  0.13453223913E+02  0.11012336499E+03  0.14808318708E+03  0.92151211193E+02 0.  0.
          5    1    1    2  502    0 -0.47775761035E+02 -0.78544272112E+02 -0.11239688214E+02  0.92712075886E+02  0.41800000000E+01 0. -1.
         -5    1    1    2    0  502  0.14180525936E+02  0.65091048198E+02 -0.24770086299E+02  0.71196639293E+02  0.41800000000E+01 0.  1.
        -11    1    3    3    0    0  0.37548210714E+02  0.39772946780E+02  0.10839347318E+03  0.12141210998E+03  0.00000000000E+00 0.  1.
         11    1    3    3    0    0 -0.39529756147E+01 -0.26319722867E+02  0.17298918174E+01  0.26671077100E+02  0.00000000000E+00 0. -1.
</event>
<event>
 8    1  0.5900800E-006  0.7091282E+02  0.7561462E-02  0.1357016E+00
         -2   -1    0    0    0  501 -0.00000000000E+00  0.00000000000E+00  0.24349416622E+02  0.24349416622E+02  0.00000000000E+00 0.  1.
          2   -1    0    0  501    0  0.00000000000E+00 -0.00000000000E+00 -0.59575761479E+03  0.59575761479E+03  0.00000000000E+00 0. -1.
         23    2    1    2    0    0  0.74532168619E+01  0.36742417320E+01 -0.10580282325E+03  0.13791861545E+03  0.88080966084E+02 0.  0.
         23    2    1    2    0    0 -0.74532168619E+01 -0.36742417320E+01 -0.46560537492E+03  0.48218841596E+03  0.12509297678E+03 0.  0.
          5    1    4    4  502    0 -0.13854097757E+02 -0.49724378505E+02 -0.91147941838E+02  0.10483257864E+03  0.41800000000E+01 0. -1.
         -5    1    4    4    0  502  0.64008808953E+01  0.46050136773E+02 -0.37445743308E+03  0.37735583732E+03  0.41800000000E+01 0. -1.
        -11    1    3    3    0    0  0.56268775843E+00 -0.19332929620E+02  0.84952092651E+01  0.21124567822E+02  0.00000000000E+00 0.  1.
         11    1    3    3    0    0  0.68905291035E+01  0.23007171352E+02 -0.11429803251E+03  0.11679404763E+03  0.00000000000E+00 0. -1.
</event>
<event>
 8    1  0.5900800E-006  0.1535368E+03  0.7561462E-02  0.1196193E+00
         -2   -1    0    0    0  501 -0.00000000000E+00  0.00000000000E+00  0.48125254442E+02  0.48125254442E+02  0.00000000000E+00 0.  1.
          2   -1    0    0  501    0  0.00000000000E+00 -0.00000000000E+00 -0.67023759614E+03  0.67023759614E+03  0.00000000000E+00 0. -1.
         23    2    1    2    0    0  0.58345560800E+02 -0.98904211340E+02 -0.12913419393E+03  0.19697738498E+03  0.94542068234E+02 0.  0.
         23    2    1    2    0    0 -0.58345560800E+02  0.98904211340E+02 -0.49297814777E+03  0.52138546560E+03  0.12501640723E+03 0.  0.
          5    1    4    4  502    0  0.12874899447E+02 -0.23189127804E+02 -0.56165595329E+02  0.62253876849E+02  0.41800000000E+01 0.  1.
         -5    1    4    4    0  502 -0.71220460247E+02  0.12209333914E+03 -0.43681255244E+03  0.45913158875E+03  0.41800000000E+01 0.  1.
        -11    1    3    3    0    0  0.24931158854E+02 -0.10223728009E+03 -0.62588709241E+02  0.12243925288E+03  0.00000000000E+00 0.  1.
         11    1    3    3    0    0  0.33414401946E+02  0.33330687458E+01 -0.66545484688E+02  0.74538132101E+02  0.00000000000E+00 0. -1.
</event>
<event>
 8    1  0.5900800E-006  0.9882264E+02  0.7561462E-02  0.1282791E+00
         -2   -1    0    0    0  501 -0.00000000000E+00  0.00000000000E+00  0.14886990394E+03  0.14886990394E+03  0.00000000000E+00 0.  1.
          2   -1    0    0  501    0  0.00000000000E+00 -0.00000000000E+00 -0.86183603281E+02  0.86183603281E+02  0.00000000000E+00 0. -1.
         23    2    1    2    0    0 -0.22181644174E+02 -0.58643392589E+01  0.58137922492E+02  0.10780429623E+03  0.87836965119E+02 0.  0.
         23    2    1    2    0    0  0.22181644174E+02  0.58643392589E+01  0.45483781643E+01  0.12724921099E+03  0.12508100631E+03 0.  0.
          5    1    4    4  502    0 -0.46135016825E+02 -0.11601618549E+02  0.24739355620E+02  0.53782389747E+02  0.41800000000E+01 0.  1.
         -5    1    4    4    0  502  0.68316660999E+02  0.17465957808E+02 -0.20190977456E+02  0.73466821238E+02  0.41800000000E+01 0.  1.
        -11    1    3    3    0    0  0.84035741806E+01 -0.35610098330E+02  0.53602460726E+02  0.64899329411E+02  0.00000000000E+00 0.  1.
         11    1    3    3    0    0 -0.30585218355E+02  0.29745759071E+02  0.45354617661E+01  0.42904966822E+02  0.00000000000E+00 0. -1.
</event>
<event>
 8    1  0.5900800E-006  0.9204655E+02  0.7561462E-02  0.1297970E+00
         -1   -1    0    0    0  501 -0.00000000000E+00  0.00000000000E+00  0.36946768172E+02  0.36946768172E+02  0.00000000000E+00 0.  1.
          1   -1    0    0  501    0  0.00000000000E+00 -0.00000000000E+00 -0.35096465944E+03  0.35096465944E+03  0.00000000000E+00 0. -1.
         23    2    1    2    0    0 -0.33622742779E+02  0.47571644758E+01 -0.11129332254E+03  0.14729006695E+03  0.90305264155E+02 0.  0.
         23    2    1    2    0    0  0.33622742779E+02 -0.47571644758E+01 -0.20272456873E+03  0.24062136066E+03  0.12509304136E+03 0.  0.
          5    1    4    4  502    0 -0.32504400843E+02  0.33255137939E+02 -0.11604515384E+03  0.12508553235E+03  0.41800000000E+01 0.  1.
         -5    1    4    4    0  502  0.66127143622E+02 -0.38012302415E+02 -0.86679414884E+02  0.11553582831E+03  0.41800000000E+01 0.  1.
        -11    1    3    3    0    0 -0.47218204968E+02  0.31166857420E+01 -0.12138267999E+03  0.13028057265E+03  0.00000000000E+00 0. -1.
         11    1    3    3    0    0  0.13595462190E+02  0.16404787338E+01  0.10089357443E+02  0.17009494297E+02  0.00000000000E+00 0.  1.
</event>
<event>
 8    1  0.6503175E-006  0.7029229E+02  0.7561462E-02  0.1359102E+00
         -4   -1    0    0    0  501 -0.00000000000E+00  0.00000000000E+00  0.26457937029E+03  0.26457937029E+03  0.00000000000E+00 0. -1.
          4   -1    0    0  501    0  0.00000000000E+00 -0.00000000000E+00 -0.47115408891E+02  0.47115408891E+02  0.00000000000E+00 0.  1.
         23    2    1    2    0    0 -0.22327478278E+02 -0.27134274781E+02  0.10810526372E+03  0.14186567213E+03  0.84878358439E+02 0.  0.
         23    2    1    2    0    0  0.22327478278E+02  0.27134274781E+02  0.10935869769E+03  0.16982910706E+03  0.12509122947E+03 0.  0.
          5    1    4    4  502    0  0.38967637263E+02  0.38669688699E+02  0.12965287638E+03  0.14085866084E+03  0.41800000000E+01 0. -1.
         -5    1    4    4    0  502 -0.16640158984E+02 -0.11535413918E+02 -0.20294178696E+02  0.28970446220E+02  0.41800000000E+01 0. -1.
        -11    1    3    3    0    0 -0.31977762559E+02  0.40281604564E+01  0.36520705268E+01  0.32436722924E+02  0.00000000000E+00 0.  1.
         11    1    3    3    0    0  0.96502842805E+01 -0.31162435237E+02  0.10445319319E+03  0.10942894920E+03  0.00000000000E+00 0. -1.
</event>
<event>
 8    1  0.5900800E-006  0.1100660E+03  0.7561462E-02  0.1260448E+00
          1   -1    0    0  501    0  0.00000000000E+00  0.00000000000E+00  0.74871826317E+03  0.74871826317E+03  0.00000000000E+00 0. -1.
         -1   -1    0    0    0  501 -0.00000000000E+00 -0.00000000000E+00 -0.18670675443E+02  0.18670675443E+02  0.00000000000E+00 0.  1.
         23    2    1    2    0    0 -0.33327300423E+02  0.19640680973E+02  0.21756697583E+03  0.23843377346E+03  0.89547808757E+02 0.  0.
         23    2    1    2    0    0  0.33327300423E+02 -0.19640680973E+02  0.51248061190E+03  0.52895516516E+03  0.12514281388E+03 0.  0.
          5    1    4    4  502    0 -0.42124106025E+02 -0.33477281845E+02  0.22573391416E+03  0.23209575850E+03  0.41800000000E+01 0.  1.
         -5    1    4    4    0  502  0.75451406448E+02  0.13836600872E+02  0.28674669774E+03  0.29685940666E+03  0.41800000000E+01 0.  1.
        -11    1    3    3    0    0 -0.19484881248E+02 -0.31124787058E+02  0.13976841951E+03  0.14451167447E+03  0.00000000000E+00 0.  1.
         11    1    3    3    0    0 -0.13842419175E+02  0.50765468031E+02  0.77798556314E+02  0.93922098984E+02  0.00000000000E+00 0. -1.
</event>
<event>
 8    1  0.5900800E-006  0.1119379E+03  0.7561462E-02  0.1257023E+00
         -2   -1    0    0    0  501 -0.00000000000E+00  0.00000000000E+00  0.22651363541E+03  0.22651363541E+03  0.00000000000E+00 0.  1.
          2   -1    0    0  501    0  0.00000000000E+00 -0.00000000000E+00 -0.61531209527E+02  0.61531209527E+02  0.00000000000E+00 0. -1.
         23    2    1    2    0    0  0.16949671223E+02 -0.42068169036E+02  0.56996232617E+02  0.11668342790E+03  0.91156072827E+02 0.  0.
         23    2    1    2    0    0 -0.16949671223E+02  0.42068169036E+02  0.10798619326E+03  0.17136141704E+03  0.12508675035E+03 0.  0.
          5    1    4    4  502    0  0.15408479428E+02 -0.36608224727E+02  0.64157728127E+02  0.75572943798E+02  0.41800000000E+01 0.  1.
         -5    1    4    4    0  502 -0.32358150651E+02  0.78676393763E+02  0.43828465138E+02  0.95788473238E+02  0.41800000000E+01 0.  1.
        -11    1    3    3    0    0 -0.51632559225E+01 -0.65987658151E+02  0.24243239619E+02  0.70489466640E+02  0.00000000000E+00 0.  1.
         11    1    3    3    0    0  0.22112927145E+02  0.23919489116E+02  0.32752992998E+02  0.46193961259E+02  0.00000000000E+00 0. -1.
</event>
<event>
 8    1  0.5900800E-006  0.1399903E+03  0.7561462E-02  0.1213342E+00
         -1   -1    0    0    0  501 -0.00000000000E+00  0.00000000000E+00  0.75988679501E+02  0.75988679501E+02  0.00000000000E+00 0.  1.
          1   -1    0    0  501    0  0.00000000000E+00 -0.00000000000E+00 -0.42111270551E+03  0.42111270551E+03  0.00000000000E+00 0. -1.
         23    2    1    2    0    0  0.38782214432E+02 -0.10491957046E+03 -0.37524588418E+02  0.14670574504E+03  0.87191194915E+02 0.  0.
         23    2    1    2    0    0 -0.38782214432E+02  0.10491957046E+03 -0.30759943759E+03  0.35039563996E+03  0.12509002390E+03 0.  0.
          5    1    4    4  502    0 -0.63903142920E+02  0.10059557686E+03 -0.15468655685E+03  0.19531637164E+03  0.41800000000E+01 0. -1.
         -5    1    4    4    0  502  0.25120928488E+02  0.43239935988E+01 -0.15291288074E+03  0.15507926833E+03  0.41800000000E+01 0. -1.
        -11    1    3    3    0    0  0.68480121076E+01  0.11935169887E+02  0.95408489393E+01  0.16744293014E+02  0.00000000000E+00 0.  1.
         11    1    3    3    0    0  0.31934202324E+02 -0.11685474035E+03 -0.47065437357E+02  0.12996145203E+03  0.00000000000E+00 0. -1.
</event>
<event>
 8    1  0.5900800E-006  0.1070850E+03  0.7561462E-02  0.1266065E+00
          1   -1    0    0  501    0  0.00000000000E+00  0.00000000000E+00  0.71253000280E+03  0.71253000280E+03  0.00000000000E+00 0. -1.
         -1   -1    0    0    0  501 -0.00000000000E+00 -0.00000000000E+00 -0.17309960602E+02  0.17309960602E+02  0.00000000000E+00 0.  1.
         23    2    1    2    0    0 -0.16324615563E+02  0.10807190151E+02  0.27083435404E+03  0.28697037969E+03  0.92830291695E+02 0.  0.
         23    2    1    2    0    0  0.16324615563E+02 -0.10807190151E+02  0.42438568816E+03  0.44286958372E+03  0.12508783888E+03 0.  0.
          5    1    4    4  502    0  0.67171082891E+02 -0.12493244001E+02  0.16723779789E+03  0.18070414762E+03  0.41800000000E+01 0. -1.
         -5    1    4    4    0  502 -0.50846467327E+02  0.16860538504E+01  0.25714789027E+03  0.26216543610E+03  0.41800000000E+01 0. -1.
        -11    1    3    3    0    0  0.28348025499E+02 -0.24707233519E+02  0.98602321671E+02  0.10552950193E+03  0.00000000000E+00 0.  1.
         11    1    3    3    0    0 -0.44672641063E+02  0.35514423669E+02  0.17223203237E+03  0.18144087776E+03  0.00000000000E+00 0. -1.
</event>
<event>
 8    1  0.5900800E-006  0.1020345E+03  0.7561462E-02  0.1276075E+00
          2   -1    0    0  501    0  0.00000000000E+00  0.00000000000E+00  0.11711682656E+04  0.11711682656E+04  0.00000000000E+00 0. -1.
         -2   -1    0    0    0  501 -0.00000000000E+00 -0.00000000000E+00 -0.13308674700E+02  0.13308674700E+02  0.00000000000E+00 0.  1.
         23    2    1    2    0    0  0.16702494929E+01 -0.61360454199E+02  0.47856577585E+03  0.49104135647E+03  0.91260708298E+02 0.  0.
         23    2    1    2    0    0 -0.16702494929E+01  0.61360454199E+02  0.67929381506E+03  0.69343558384E+03  0.12507968132E+03 0.  0.
          5    1    4    4  502    0  0.33703274240E+02  0.43155973354E+02  0.11205864314E+03  0.12479166893E+03  0.41800000000E+01 0. -1.
         -5    1    4    4    0  502 -0.35373523733E+02  0.18204480845E+02  0.56723517192E+03  0.56864391491E+03  0.41800000000E+01 0. -1.
        -11    1    3    3    0    0 -0.34633319059E+02 -0.63980085527E+02  0.28930727020E+03  0.29831462372E+03  0.00000000000E+00 0. -1.
         11    1    3    3    0    0  0.36303568552E+02  0.26196313272E+01  0.18925850564E+03  0.19272673275E+03  0.00000000000E+00 0.  1.
</event>
<event>
 8    1  0.5900800E-006  0.1075535E+03  0.7561462E-02  0.1265169E+00
         -1   -1    0    0    0  501 -0.00000000000E+00  0.00000000000E+00  0.31370182099E+03  0.31370182099E+03  0.00000000000E+00 0.  1.
          1   -1    0    0  501    0  0.00000000000E+00 -0.00000000000E+00 -0.47566573746E+02  0.47566573746E+02  0.00000000000E+00 0. -1.
         23    2    1    2    0    0  0.54106944306E+02  0.14829811803E+02  0.10057000112E+03  0.14631030832E+03  0.90249080085E+02 0.  0.
         23    2    1    2    0    0 -0.54106944306E+02 -0.14829811803E+02  0.16556524612E+03  0.21495808641E+03  0.12509054101E+03 0.  0.
          5    1    4    4  502    0  0.30663988365E+02  0.68074617326E+01  0.10179845658E+03  0.10661622709E+03  0.41800000000E+01 0. -1.
         -5    1    4    4    0  502 -0.84770932671E+02 -0.21637273535E+02  0.63766789546E+02  0.10834185932E+03  0.41800000000E+01 0. -1.
        -11    1    3    3    0    0  0.17802079201E+02  0.45148322096E+02  0.82421897190E+02  0.95648597211E+02  0.00000000000E+00 0.  1.
         11    1    3    3    0    0  0.36304865105E+02 -0.30318510293E+02  0.18148103931E+02  0.50661711113E+02  0.00000000000E+00 0. -1.
</event>
<event>
 6    1  0.1773675E-005  0.1750294E+03  0.7561462E-02  0.1172702E+00
         -4   -1    0    0    0  501 -0.00000000000E+00  0.00000000000E+00  0.15005391588E+03  0.15005391588E+03  0.00000000000E+00 0.  1.
          4   -1    0    0  501    0  0.00000000000E+00 -0.00000000000E+00 -0.23741972479E+03  0.23741972479E+03  0.00000000000E+00 0. -1.
          5    1    1    2  502    0 -0.56605946063E+02 -0.82856168671E+02 -0.64338900841E+02  0.11927424021E+03  0.41800000000E+01 0. -1.
         -5    1    1    2    0  502  0.13706768312E+03  0.93246330904E+02 -0.59659029747E+02  0.17623592203E+03  0.41800000000E+01 0.  1.
        -11    1    1    2    0    0 -0.38970766404E+02 -0.15601337388E+02  0.23631173121E+02  0.48172136194E+02  0.00000000000E+00 0.  1.
         11    1    1    2    0    0 -0.41490970648E+02  0.52111751558E+01  0.13000948554E+02  0.43791342240E+02  0.00000000000E+00 0. -1.
</event>
<event>
 8    1  0.5900800E-006  0.1301656E+03  0.7561462E-02  0.1227210E+00
          3   -1    0    0  501    0  0.00000000000E+00  0.00000000000E+00  0.74165929960E+03  0.74165929960E+03  0.00000000000E+00 0. -1.
         -3   -1    0    0    0  501 -0.00000000000E+00 -0.00000000000E+00 -0.36131458392E+02  0.36131458392E+02  0.00000000000E+00 0.  1.
         23    2    1    2    0    0  0.37766917981E+02  0.10888778084E+03  0.19176994030E+03  0.23661221249E+03  0.76985324503E+02 0.  0.
         23    2    1    2    0    0 -0.37766917981E+02 -0.10888778084E+03  0.51375790091E+03  0.54117854550E+03  0.12507657035E+03 0.  0.
          5    1    4    4  502    0 -0.39249970003E+02 -0.40229418287E+02  0.42577333366E+03  0.42948733427E+03  0.41800000000E+01 0.  1.
         -5    1    4    4    0  502  0.14830520218E+01 -0.68658362555E+02  0.87984567250E+02  0.11169121123E+03  0.41800000000E+01 0.  1.
        -11    1    3    3    0    0 -0.72914841330E+01  0.82767280700E+02  0.14229459163E+03  0.16477663458E+03  0.00000000000E+00 0.  1.
         11    1    3    3    0    0  0.45058402114E+02  0.26120500141E+02  0.49475348665E+02  0.71835577914E+02  0.00000000000E+00 0. -1.
</event>
<event>
 8    1  0.5900800E-006  0.8528424E+02  0.7561462E-02  0.1314691E+00
          1   -1    0    0  501    0  0.00000000000E+00  0.00000000000E+00  0.12796523585E+03  0.12796523585E+03  0.00000000000E+00 0. -1.
         -1   -1    0    0    0  501 -0.00000000000E+00 -0.00000000000E+00 -0.15075179953E+03  0.15075179953E+03  0.00000000000E+00 0.  1.
         23    2    1    2    0    0 -0.38930814951E+02  0.21889043214E+01 -0.86802017664E+02  0.13288827871E+03  0.92759391401E+02 0.  0.
         23    2    1    2    0    0  0.38930814951E+02 -0.21889043214E+01  0.64015453985E+02  0.14582875667E+03  0.12509056027E+03 0.  0.
          5    1    4    4  502    0 -0.43725900717E+02  0.69027321935E+01  0.72317967555E+01  0.45048567009E+02  0.41800000000E+01 0. -1.
         -5    1    4    4    0  502  0.82656715668E+02 -0.90916365149E+01  0.56783657229E+02  0.10078018966E+03  0.41800000000E+01 0. -1.
        -11    1    3    3    0    0 -0.27523102435E+02  0.97035929384E+01 -0.10565223294E+03  0.10960873692E+03  0.00000000000E+00 0.  1.
         11    1    3    3    0    0 -0.11407712516E+02 -0.75146886170E+01  0.18850215279E+02  0.23279541789E+02  0.00000000000E+00 0. -1.
</event>
<event>
 8    1  0.5900800E-006  0.9870537E+02  0.7561462E-02  0.1283042E+00
          1   -1    0    0  501    0  0.00000000000E+00  0.00000000000E+00  0.21130519286E+03  0.21130519286E+03  0.00000000000E+00 0. -1.
         -1   -1    0    0    0  501 -0.00000000000E+00 -0.00000000000E+00 -0.81827551146E+02  0.81827551146E+02  0.00000000000E+00 0.  1.
         23    2    1    2    0    0 -0.63661853056E+02  0.24986076397E+02  0.46907856843E+02  0.12838391268E+03  0.98004828726E+02 0.  0.
         23    2    1    2    0    0  0.63661853056E+02 -0.24986076397E+02  0.82569784872E+02  0.16474883133E+03  0.12508905828E+03 0.  0.
          5    1    4    4  502    0 -0.27491670921E+02 -0.25429436861E+02  0.59830366376E+02  0.70707802750E+02  0.41800000000E+01 0.  1.
         -5    1    4    4    0  502  0.91153523977E+02  0.44336046393E+00  0.22739418496E+02  0.94041028575E+02  0.41800000000E+01 0.  1.
        -11    1    3    3    0    0 -0.31635831877E+02  0.10543158988E+02 -0.29349633225E+02  0.44422798544E+02  0.00000000000E+00 0.  1.
         11    1    3    3    0    0 -0.32026021179E+02  0.14442917409E+02  0.76257490068E+02  0.83961114138E+02  0.00000000000E+00 0. -1.
</event>
<event>
 8    1  0.5900800E-006  0.1052087E+03  0.7561462E-02  0.1269709E+00
          3   -1    0    0  501    0  0.00000000000E+00  0.00000000000E+00  0.66950276181E+02  0.66950276181E+02  0.00000000000E+00 0. -1.
         -3   -1    0    0    0  501 -0.00000000000E+00 -0.00000000000E+00 -0.26519542756E+03  0.26519542756E+03  0.00000000000E+00 0.  1.
         23    2    1    2    0    0 -0.29773981155E+02  0.69863045782E+02 -0.10589756376E+03  0.15910672319E+03  0.91287021164E+02 0.  0.
         23    2    1    2    0    0  0.29773981155E+02 -0.69863045782E+02 -0.92347587612E+02  0.17303898055E+03  0.12508827576E+03 0.  0.
          5    1    4    4  502    0 -0.41127791204E+02 -0.24602204611E+02 -0.71668639915E+02  0.86317032087E+02  0.41800000000E+01 0. -1.
         -5    1    4    4    0  502  0.70901772359E+02 -0.45260841171E+02 -0.20678947697E+02  0.86721948462E+02  0.41800000000E+01 0. -1.
        -11    1    3    3    0    0 -0.14816486819E+02  0.14457196354E+02 -0.99189506920E+02  0.10132668499E+03  0.00000000000E+00 0.  1.
         11    1    3    3    0    0 -0.14957494336E+02  0.55405849428E+02 -0.67080568445E+01  0.57780038199E+02  0.00000000000E+00 0. -1.
</event>
<event>
 8    1  0.5900800E-006  0.1294482E+03  0.7561462E-02  0.1228277E+00
          3   -1    0    0  501    0  0.00000000000E+00  0.00000000000E+00  0.35522506920E+02  0.35522506920E+02  0.00000000000E+00 0. -1.
         -3   -1    0    0    0  501 -0.00000000000E+00 -0.00000000000E+00 -0.55905950125E+03  0.55905950125E+03  0.00000000000E+00 0.  1.
         23    2    1    2    0    0 -0.11336460076E+02 -0.88688519205E+02 -0.32131175460E+03  0.34543391817E+03  0.89939865505E+02 0.  0.
         23    2    1    2    0    0  0.11336460076E+02  0.88688519205E+02 -0.20222523973E+03  0.24914809001E+03  0.11482836934E+03 0.  0.
          5    1    4    4  502    0  0.22024477123E+00  0.11510386104E+03 -0.14660306156E+03  0.18643732832E+03  0.41800000000E+01 0. -1.
         -5    1    4    4    0  502  0.11116215305E+02 -0.26415341831E+02 -0.55622178175E+02  0.62710761690E+02  0.41800000000E+01 0.  1.
        -11    1    3    3    0    0 -0.40161739059E+02 -0.69032124264E+02 -0.14346151098E+03  0.16419380194E+03  0.00000000000E+00 0.  1.
         11    1    3    3    0    0  0.28825278983E+02 -0.19656394941E+02 -0.17785024363E+03  0.18124011622E+03  0.00000000000E+00 0. -1.
</event>
<event>
 8    1  0.5900800E-006  0.1041361E+03  0.7561462E-02  0.1271831E+00
          1   -1    0    0  501    0  0.00000000000E+00  0.00000000000E+00  0.23071440359E+03  0.23071440359E+03  0.00000000000E+00 0. -1.
         -1   -1    0    0    0  501 -0.00000000000E+00 -0.00000000000E+00 -0.54920070831E+02  0.54920070831E+02  0.00000000000E+00 0.  1.
         23    2    1    2    0    0  0.29900839821E+02  0.43967619369E+02  0.51148607684E+02  0.10121201850E+03  0.69285502423E+02 0.  0.
         23    2    1    2    0    0 -0.29900839821E+02 -0.43967619369E+02  0.12464572508E+03  0.18442245592E+03  0.12509146131E+03 0.  0.
          5    1    4    4  502    0 -0.32148946593E+02 -0.86800240228E+02  0.89329466062E+02  0.12870533158E+03  0.41800000000E+01 0.  1.
         -5    1    4    4    0  502  0.22481067721E+01  0.42832620860E+02  0.35316259014E+02  0.55717124338E+02  0.41800000000E+01 0.  1.
        -11    1    3    3    0    0  0.19810226513E+02 -0.66579612228E+01  0.44501262313E+02  0.49164376021E+02  0.00000000000E+00 0. -1.
         11    1    3    3    0    0  0.10090613308E+02  0.50625580591E+02  0.66473453710E+01  0.52047642479E+02  0.00000000000E+00 0.  1.
</event>
<event>
 8    1  0.5900800E-006  0.1011531E+03  0.7561462E-02  0.1277890E+00
          2   -1    0    0  501    0  0.00000000000E+00  0.00000000000E+00  0.10458763358E+03  0.10458763358E+03  0.00000000000E+00 0. -1.
         -2   -1    0    0    0  501 -0.00000000000E+00 -0.00000000000E+00 -0.11684105417E+03  0.11684105417E+03  0.00000000000E+00 0.  1.
         23    2    1    2    0    0  0.16001323263E+02  0.17155730370E+02 -0.68903003443E+01  0.94045388776E+02  0.90811329032E+02 0.  0.
         23    2    1    2    0    0 -0.16001323263E+02 -0.17155730370E+02 -0.53631202474E+01  0.12738329898E+03  0.12508948945E+03 0.  0.
          5    1    4    4  502    0 -0.27687219962E+02  0.46694196967E+02  0.19377865261E+02  0.57791904638E+02  0.41800000000E+01 0.  1.
         -5    1    4    4    0  502  0.11685896699E+02 -0.63849927338E+02 -0.24740985508E+02  0.69591394343E+02  0.41800000000E+01 0.  1.
        -11    1    3    3    0    0 -0.32231034282E+02  0.11638541778E+02  0.18835616057E+02  0.39103397012E+02  0.00000000000E+00 0. -1.
         11    1    3    3    0    0  0.48232357545E+02  0.55171885927E+01 -0.25725916402E+02  0.54941991764E+02  0.00000000000E+00 0.  1.
</event>
<event>
 8    1  0.5900800E-006  0.1451925E+03  0.7561462E-02  0.1206508E+00
         -2   -1    0    0    0  501 -0.00000000000E+00  0.00000000000E+00  0.52934707647E+03  0.52934707647E+03  0.00000000000E+00 0.  1.
          2   -1    0    0  501    0  0.00000000000E+00 -0.00000000000E+00 -0.44134392670E+02  0.44134392670E+02  0.00000000000E+00 0. -1.
         23    2    1    2    0    0 -0.77886388348E+02  0.74515641238E+02  0.23082372107E+03  0.27019909909E+03  0.90050500621E+02 0.  0.
         23    2    1    2    0    0  0.77886388348E+02 -0.74515641238E+02  0.25438896273E+03  0.30328237005E+03  0.12509029277E+03 0.  0.
          5    1    4    4  502    0  0.16931616970E+02  0.27302894266E+02  0.14257423134E+02  0.35395963088E+02  0.41800000000E+01 0.  1.
         -5    1    4    4    0  502  0.60954771378E+02 -0.10181853550E+03  0.24013153959E+03  0.26788640696E+03  0.41800000000E+01 0.  1.
        -11    1    3    3    0    0 -0.68958688793E+02  0.94715481221E+02  0.20589599377E+03  0.23689551155E+03  0.00000000000E+00 0.  1.
         11    1    3    3    0    0 -0.89276995549E+01 -0.20199839982E+02  0.24927727300E+02  0.33303587540E+02  0.00000000000E+00 0. -1.
</event>
<event>
 7    1  0.5900800E-006  0.1084433E+03  0.7561462E-02  0.1263480E+00
         -2   -1    0    0    0  501 -0.00000000000E+00  0.00000000000E+00  0.39019103131E+02  0.39019103131E+02  0.00000000000E+00 0.  1.
          2   -1    0    0  501    0  0.00000000000E+00 -0.00000000000E+00 -0.52998436789E+03  0.52998436789E+03  0.00000000000E+00 0. -1.
         23    2    1    2    0    0  0.36466406526E+02 -0.36613388622E+02 -0.15042899578E+03  0.18608315435E+03  0.96580114568E+02 0.  0.
          5    1    1    2  502    0  0.20623885282E+02  0.48134716118E+02 -0.31472419565E+03  0.31907849703E+03  0.41800000000E+01 0. -1.
         -5    1    1    2    0  502 -0.57090291808E+02 -0.11521327496E+02 -0.25812073335E+02  0.63841819647E+02  0.41800000000E+01 0.  1.
        -11    1    3    3    0    0 -0.27843595821E+02 -0.30599613487E+02 -0.36754739488E+02  0.55339976948E+02  0.00000000000E+00 0.  1.
         11    1    3    3    0    0  0.64310002347E+02 -0.60137751351E+01 -0.11367425629E+03  0.13074317740E+03  0.00000000000E+00 0. -1.
</event>
<event>
 8    1  0.5900800E-006  0.1092044E+03  0.7561462E-02  0.1262050E+00
          1   -1    0    0  501    0  0.00000000000E+00  0.00000000000E+00  0.69024688808E+03  0.69024688808E+03  0.00000000000E+00 0. -1.
         -1   -1    0    0    0  501 -0.00000000000E+00 -0.00000000000E+00 -0.18857516351E+02  0.18857516351E+02  0.00000000000E+00 0.  1.
         23    2    1    2    0    0 -0.81834323886E+01 -0.24122263496E+02  0.31797836804E+03  0.33334291313E+03  0.96738839283E+02 0.  0.
         23    2    1    2    0    0  0.81834323886E+01  0.24122263496E+02  0.35341100369E+03  0.37576149131E+03  0.12509399930E+03 0.  0.
          5    1    4    4  502    0 -0.25257201512E+02  0.66649271574E+02  0.16720246538E+03  0.18180810889E+03  0.41800000000E+01 0. -1.
         -5    1    4    4    0  502  0.33440633901E+02 -0.42527008078E+02  0.18620853831E+03  0.19395338242E+03  0.41800000000E+01 0. -1.
        -11    1    3    3    0    0  0.38774155482E+02  0.23496204913E+01  0.75066654076E+02  0.84521940370E+02  0.00000000000E+00 0.  1.
         11    1    3    3    0    0 -0.46957587870E+02 -0.26471883987E+02  0.24291171397E+03  0.24882097276E+03  0.00000000000E+00 0. -1.
</event>
<event>
 8    1  0.5900800E-006  0.1125468E+03  0.7561462E-02  0.1255925E+00
         -2   -1    0    0    0  501 -0.00000000000E+00  0.00000000000E+00  0.33458350380E+02  0.33458350380E+02  0.00000000000E+00 0.  1.
          2   -1    0    0  501    0  0.00000000000E+00 -0.00000000000E+00 -0.45733247732E+03  0.45733247732E+03  0.00000000000E+00 0. -1.
         23    2    1    2    0    0  0.52667631698E+02  0.29371751119E+02 -0.17142498221E+03  0.20266836054E+03  0.89729374486E+02 0.  0.
         23    2    1    2    0    0 -0.52667631698E+02 -0.29371751119E+02 -0.25244914474E+03  0.28812246717E+03  0.12508959276E+03 0.  0.
          5    1    4    4  502    0 -0.74740283425E+02 -0.53569933195E+02 -0.23121657326E+03  0.24886627706E+03  0.41800000000E+01 0.  1.
         -5    1    4    4    0  502  0.22072651727E+02  0.24198182076E+02 -0.21232571477E+02  0.39256190105E+02  0.41800000000E+01 0.  1.
        -11    1    3    3    0    0  0.30057524404E+02  0.56930135273E+02 -0.69716504297E+02  0.94894078039E+02  0.00000000000E+00 0.  1.
         11    1    3    3    0    0  0.22610107294E+02 -0.27558384155E+02 -0.10170847791E+03  0.10777428250E+03  0.00000000000E+00 0. -1.
</event>
<event>
 8    1  0.5900800E-006  0.1237495E+03  0.7561462E-02  0.1237037E+00
         -2   -1    0    0    0  501 -0.00000000000E+00  0.00000000000E+00  0.69896633088E+02  0.69896633088E+02  0.00000000000E+00 0. -1.
          2   -1    0    0  501    0  0.00000000000E+00 -0.00000000000E+00 -0.35669877432E+03  0.35669877432E+03  0.00000000000E+00 0.  1.
         23    2    1    2    0    0 -0.23736633837E+02  0.68410213528E+02 -0.13755627368E+02  0.11765553012E+03  0.91707259160E+02 0.  0.
         23    2    1    2    0    0  0.23736633837E+02 -0.68410213528E+02 -0.27304651386E+03  0.30893987728E+03  0.12508422740E+03 0.  0.
          5    1    4    4  502    0 -0.42160270495E+02 -0.63385056362E+02 -0.11985976618E+03  0.14205277093E+03  0.41800000000E+01 0. -1.
         -5    1    4    4    0  502  0.65896904332E+02 -0.50251571654E+01 -0.15318674768E+03  0.16688710636E+03  0.41800000000E+01 0. -1.
        -11    1    3    3    0    0  0.26178335596E+02  0.39403758604E+02 -0.31996084724E+02  0.57111390145E+02  0.00000000000E+00 0.  1.
         11    1    3    3    0    0 -0.49914969433E+02  0.29006454924E+02  0.18240457355E+02  0.60544139974E+02  0.00000000000E+00 0. -1.
</event>
<event>
 8    1  0.5900800E-006  0.1022790E+03  0.7561462E-02  0.1275575E+00
          2   -1    0    0  501    0  0.00000000000E+00  0.00000000000E+00  0.67583551953E+03  0.67583551953E+03  0.00000000000E+00 0. -1.
         -2   -1    0    0    0  501 -0.00000000000E+00 -0.00000000000E+00 -0.20745374647E+02  0.20745374647E+02  0.00000000000E+00 0.  1.
         23    2    1    2    0    0 -0.25223560926E+02  0.54128769064E+02  0.19568292294E+03  0.21666178960E+03  0.71304789979E+02 0.  0.
         23    2    1    2    0    0  0.25223560926E+02 -0.54128769064E+02  0.45940722194E+03  0.47991910458E+03  0.12530442811E+03 0.  0.
          5    1    4    4  502    0  0.21174697888E+02  0.26817554763E+02  0.40183930856E+02  0.52912850738E+02  0.41800000000E+01 0. -1.
         -5    1    4    4    0  502  0.40488630381E+01 -0.80946323827E+02  0.41922329108E+03  0.42700625384E+03  0.41800000000E+01 0. -1.
        -11    1    3    3    0    0 -0.30538660062E+02  0.67772983240E+02  0.18210395197E+03  0.19669172920E+03  0.00000000000E+00 0. -1.
         11    1    3    3    0    0  0.53150991359E+01 -0.13644214176E+02  0.13578970974E+02  0.19970060391E+02  0.00000000000E+00 0.  1.
</event>
<event>
 8    1  0.5900800E-006  0.1840294E+03  0.7561462E-02  0.1163959E+00
         -2   -1    0    0    0  501 -0.00000000000E+00  0.00000000000E+00  0.20566092613E+03  0.20566092613E+03  0.00000000000E+00 0.  1.
          2   -1    0    0  501    0  0.00000000000E+00 -0.00000000000E+00 -0.22406173620E+03  0.22406173620E+03  0.00000000000E+00 0. -1.
         23    2    1    2    0    0 -0.47013799853E+02  0.17698763536E+03 -0.29589184847E+02  0.20767015469E+03  0.93361945352E+02 0.  0.
         23    2    1    2    0    0  0.47013799853E+02 -0.17698763536E+03  0.11188374771E+02  0.22205250764E+03  0.12508883233E+03 0.  0.
          5    1    4    4  502    0  0.35286350830E+02 -0.13535579659E+03 -0.48600287769E+02  0.14814107667E+03  0.41800000000E+01 0. -1.
         -5    1    4    4    0  502  0.11727449023E+02 -0.41631838767E+02  0.59788662541E+02  0.73911430970E+02  0.41800000000E+01 0. -1.
        -11    1    3    3    0    0 -0.20238475185E+02  0.12004977825E+03 -0.62297345287E+02  0.13675709988E+03  0.00000000000E+00 0. -1.
         11    1    3    3    0    0 -0.26775324668E+02  0.56937857107E+02  0.32708160440E+02  0.70913054810E+02  0.00000000000E+00 0.  1.
</event>
<event>
 8    1  0.5900800E-006  0.1533734E+03  0.7561462E-02  0.1196388E+00
          1   -1    0    0  501    0  0.00000000000E+00  0.00000000000E+00  0.34807300263E+03  0.34807300263E+03  0.00000000000E+00 0.  1.
         -1   -1    0    0    0  501 -0.00000000000E+00 -0.00000000000E+00 -0.11611679102E+03  0.11611679102E+03  0.00000000000E+00 0. -1.
         23    2    1    2    0    0 -0.10714310358E+03 -0.43654927786E+02 -0.31223369150E+02  0.15066884535E+03  0.91328006729E+02 0.  0.
         23    2    1    2    0    0  0.10714310358E+03  0.43654927786E+02  0.26317958075E+03  0.31352094830E+03  0.12508595418E+03 0.  0.
          5    1    4    4  502    0  0.11225892136E+03  0.71973079179E+02  0.17115123725E+03  0.21700785231E+03  0.41800000000E+01 0.  1.
         -5    1    4    4    0  502 -0.51158177795E+01 -0.28318151393E+02  0.92028343504E+02  0.96513095992E+02  0.41800000000E+01 0.  1.
        -11    1    3    3    0    0 -0.98857163202E+02  0.97340253239E+00 -0.67293123928E+01  0.99090715378E+02  0.00000000000E+00 0.  1.
         11    1    3    3    0    0 -0.82859403787E+01 -0.44628330318E+02 -0.24494056758E+02  0.51578129972E+02  0.00000000000E+00 0. -1.
</event>
<event>
 8    1  0.5900800E-006  0.1306878E+03  0.7561462E-02  0.1226439E+00
         -1   -1    0    0    0  501 -0.00000000000E+00  0.00000000000E+00  0.23225025084E+03  0.23225025084E+03  0.00000000000E+00 0.  1.
          1   -1    0    0  501    0  0.00000000000E+00 -0.00000000000E+00 -0.14181883018E+03  0.14181883018E+03  0.00000000000E+00 0. -1.
         23    2    1    2    0    0 -0.12578903646E+03 -0.62518091435E+01  0.11370765983E+03  0.19503987514E+03  0.96172522996E+02 0.  0.
         23    2    1    2    0    0  0.12578903646E+03  0.62518091435E+01 -0.23276239174E+02  0.17902920589E+03  0.12509079278E+03 0.  0.
          5    1    4    4  502    0  0.50016581985E+02 -0.16531817463E+02 -0.69492107531E+02  0.87301688822E+02  0.41800000000E+01 0. -1.
         -5    1    4    4    0  502  0.75772454475E+02  0.22783626606E+02  0.46215868357E+02  0.91727517063E+02  0.41800000000E+01 0. -1.
        -11    1    3    3    0    0 -0.47402262620E+02 -0.16613835263E+02 -0.70267328699E+01  0.50718527172E+02  0.00000000000E+00 0. -1.
         11    1    3    3    0    0 -0.78386773840E+02  0.10362026120E+02  0.12073439270E+03  0.14432134797E+03  0.00000000000E+00 0.  1.
</event>
<event>
 8    1  0.5900800E-006  0.3472079E+03  0.7561462E-02  0.1063767E+00
          2   -1    0    0  501    0  0.00000000000E+00  0.00000000000E+00  0.80608896275E+03  0.80608896275E+03  0.00000000000E+00 0. -1.
         -2   -1    0    0    0  501 -0.00000000000E+00 -0.00000000000E+00 -0.15245124084E+03  0.15245124084E+03  0.00000000000E+00 0.  1.
         23    2    1    2    0    0  0.19319339628E+03  0.27116651808E+03  0.31771641118E+03  0.46931104735E+03  0.91946573293E+02 0.  0.
         23    2    1    2    0    0 -0.19319339628E+03 -0.27116651808E+03  0.33592131073E+03  0.48922915624E+03  0.12508825451E+03 0.  0.
          5    1    4    4  502    0 -0.10386868250E+03 -0.47466866298E+02  0.96326726022E+02  0.14945941638E+03  0.41800000000E+01 0. -1.
         -5    1    4    4    0  502 -0.89324713788E+02 -0.22369965178E+03  0.23959458471E+03  0.33976973985E+03  0.41800000000E+01 0. -1.
        -11    1    3    3    0    0  0.19016797077E+03  0.23215677136E+03  0.30569099564E+03  0.42837788040E+03  0.00000000000E+00 0. -1.
         11    1    3    3    0    0  0.30254255164E+01  0.39009746714E+02  0.12025415537E+02  0.40933166956E+02  0.00000000000E+00 0.  1.
</event>
<event>
 8    1  0.5900800E-006  0.3464477E+03  0.7561462E-02  0.1064083E+00
          1   -1    0    0  501    0  0.00000000000E+00  0.00000000000E+00  0.13522372304E+04  0.13522372304E+04  0.00000000000E+00 0. -1.
         -1   -1    0    0    0  501 -0.00000000000E+00 -0.00000000000E+00 -0.93304514432E+02  0.93304514432E+02  0.00000000000E+00 0.  1.
         23    2    1    2    0    0 -0.73783654254E+02 -0.32449218050E+03  0.50723070661E+03  0.61401228101E+03  0.94809749811E+02 0.  0.
         23    2    1    2    0    0  0.73783654254E+02  0.32449218050E+03  0.75170200937E+03  0.83152946384E+03  0.12508451343E+03 0.  0.
          5    1    4    4  502    0  0.10502225018E+03  0.28384431550E+03  0.66644398750E+03  0.73195787403E+03  0.41800000000E+01 0.  1.
         -5    1    4    4    0  502 -0.31238595925E+02  0.40647864995E+02  0.85258021867E+02  0.99571589807E+02  0.41800000000E+01 0.  1.
        -11    1    3    3    0    0 -0.56559537271E+02 -0.11084976831E+03  0.24942221889E+03  0.27874378140E+03  0.00000000000E+00 0. -1.
         11    1    3    3    0    0 -0.17224116983E+02 -0.21364241219E+03  0.25780848773E+03  0.33526849961E+03  0.00000000000E+00 0.  1.
</event>
<event>
 8    1  0.5900800E-006  0.1272489E+03  0.7561462E-02  0.1231596E+00
          1   -1    0    0  501    0  0.00000000000E+00  0.00000000000E+00  0.26133770335E+03  0.26133770335E+03  0.00000000000E+00 0. -1.
         -1   -1    0    0    0  501 -0.00000000000E+00 -0.00000000000E+00 -0.63863369160E+02  0.63863369160E+02  0.00000000000E+00 0.  1.
         23    2    1    2    0    0  0.18502815674E+02  0.67750085698E+02  0.81911975686E+02  0.14102363630E+03  0.90805649241E+02 0.  0.
         23    2    1    2    0    0 -0.18502815674E+02 -0.67750085698E+02  0.11556235851E+03  0.18417743622E+03  0.12503695856E+03 0.  0.
          5    1    4    4  502    0  0.42221432817E+02 -0.68887239051E+02  0.52059352682E+02  0.96206806905E+02  0.41800000000E+01 0.  1.
         -5    1    4    4    0  502 -0.60724248491E+02  0.11371533525E+01  0.63503005825E+02  0.87970629310E+02  0.41800000000E+01 0.  1.
        -11    1    3    3    0    0 -0.35757063322E+02  0.28993275609E+02  0.20575548666E+02  0.50423514464E+02  0.00000000000E+00 0.  1.
         11    1    3    3    0    0  0.54259878996E+02  0.38756810089E+02  0.61336427020E+02  0.90600121835E+02  0.00000000000E+00 0. -1.
</event>
<event>
 7    1  0.5900800E-006  0.1851581E+03  0.7561462E-02  0.1162902E+00
         -1   -1    0    0    0  501 -0.00000000000E+00  0.00000000000E+00  0.11777023964E+03  0.11777023964E+03  0.00000000000E+00 0.  1.
          1   -1    0    0  501    0  0.00000000000E+00 -0.00000000000E+00 -0.41966011843E+03  0.41966011843E+03  0.00000000000E+00 0. -1.
         23    2    1    2    0    0 -0.12490399695E+03 -0.88753609227E+02 -0.21197826739E+02  0.18493735288E+03  0.10136204924E+03 0.  0.
          5    1    1    2  502    0  0.88737691444E+02  0.12882362897E+03 -0.18283092256E+03  0.24065436607E+03  0.41800000000E+01 0. -1.
         -5    1    1    2    0  502  0.36166305508E+02 -0.40070019743E+02 -0.97861129482E+02  0.11183863912E+03  0.41800000000E+01 0.  1.
        -11    1    3    3    0    0 -0.59635600023E+02 -0.69635588790E+02  0.33551351658E+02  0.97627932552E+02  0.00000000000E+00 0.  1.
         11    1    3    3    0    0 -0.65268396929E+02 -0.19118020438E+02 -0.54749178397E+02  0.87309420329E+02  0.00000000000E+00 0. -1.
</event>
<event>
 8    1  0.5900800E-006  0.1067152E+03  0.7561462E-02  0.1266777E+00
          2   -1    0    0  501    0  0.00000000000E+00  0.00000000000E+00  0.97699095192E+03  0.97699095192E+03  0.00000000000E+00 0. -1.
         -2   -1    0    0    0  501 -0.00000000000E+00 -0.00000000000E+00 -0.23155276038E+02  0.23155276038E+02  0.00000000000E+00 0.  1.
         23    2    1    2    0    0 -0.52639018492E+02  0.60913996517E+02  0.23587777959E+03  0.26693846617E+03  0.95584708912E+02 0.  0.
         23    2    1    2    0    0  0.52639018492E+02 -0.60913996517E+02  0.71795789629E+03  0.73320776178E+03  0.12509476351E+03 0.  0.
          5    1    4    4  502    0 -0.24612993559E+02 -0.36936915937E+02  0.94246836657E+02  0.10425964622E+03  0.41800000000E+01 0.  1.
         -5    1    4    4    0  502  0.77252012051E+02 -0.23977080580E+02  0.62371105963E+03  0.62894811556E+03  0.41800000000E+01 0.  1.
        -11    1    3    3    0    0 -0.79045752047E+01  0.35569873922E+02  0.13762373727E+02  0.38949982935E+02  0.00000000000E+00 0.  1.
         11    1    3    3    0    0 -0.44734443287E+02  0.25344122595E+02  0.22211540587E+03  0.22798848324E+03  0.00000000000E+00 0. -1.
</event>
<event>
 8    1  0.5900800E-006  0.1132150E+03  0.7561462E-02  0.1254729E+00
         -2   -1    0    0    0  501 -0.00000000000E+00  0.00000000000E+00  0.11419940439E+02  0.11419940439E+02  0.00000000000E+00 0.  1.
          2   -1    0    0  501    0  0.00000000000E+00 -0.00000000000E+00 -0.12991171268E+04  0.12991171268E+04  0.00000000000E+00 0. -1.
         23    2    1    2    0    0 -0.23685104925E+02  0.33699776093E+02 -0.34902176252E+03  0.36266793710E+03  0.89527553224E+02 0.  0.
         23    2    1    2    0    0  0.23685104925E+02 -0.33699776093E+02 -0.93867542383E+03  0.94786913012E+03  0.12509067685E+03 0.  0.
          5    1    4    4  502    0  0.10959376270E+02 -0.79901699902E+02 -0.67796190078E+03  0.68275486148E+03  0.41800000000E+01 0. -1.
         -5    1    4    4    0  502  0.12725728655E+02  0.46201923809E+02 -0.26071352305E+03  0.26511426864E+03  0.41800000000E+01 0. -1.
        -11    1    3    3    0    0 -0.34462660897E+02 -0.21966139006E+02 -0.12156267859E+03  0.12824847401E+03  0.00000000000E+00 0.  1.
         11    1    3    3    0    0  0.10777555971E+02  0.55665915099E+02 -0.22745908393E+03  0.23441946309E+03  0.00000000000E+00 0. -1.
</event>
<event>
 8    1  0.5900800E-006  0.8198632E+02  0.7561462E-02  0.1323507E+00
          1   -1    0    0  501    0  0.00000000000E+00  0.00000000000E+00  0.60337430152E+03  0.60337430152E+03  0.00000000000E+00 0. -1.
         -1   -1    0    0    0  501 -0.00000000000E+00 -0.00000000000E+00 -0.27398073984E+02  0.27398073984E+02  0.00000000000E+00 0.  1.
         23    2    1    2    0    0  0.44078336822E+02 -0.75867220913E+01  0.12721783421E+03  0.16276381391E+03  0.91143972087E+02 0.  0.
         23    2    1    2    0    0 -0.44078336822E+02  0.75867220913E+01  0.44875839333E+03  0.46800856160E+03  0.12508980781E+03 0.  0.
          5    1    4    4  502    0 -0.63244608436E+02  0.21710580438E+02  0.43513278789E+03  0.44026042894E+03  0.41800000000E+01 0.  1.
         -5    1    4    4    0  502  0.19166271614E+02 -0.14123858347E+02  0.13625605442E+02  0.27748132655E+02  0.41800000000E+01 0.  1.
        -11    1    3    3    0    0  0.40267416794E+02  0.19995200598E+02  0.12720886876E+03  0.13491986212E+03  0.00000000000E+00 0. -1.
         11    1    3    3    0    0  0.38109200283E+01 -0.27581922689E+02  0.89654433443E-02  0.27843951786E+02  0.00000000000E+00 0.  1.
</event>
<event>
 8    1  0.5900800E-006  0.1077160E+03  0.7561462E-02  0.1264859E+00
          2   -1    0    0  501    0  0.00000000000E+00  0.00000000000E+00  0.23266286800E+03  0.23266286800E+03  0.00000000000E+00 0. -1.
         -2   -1    0    0    0  501 -0.00000000000E+00 -0.00000000000E+00 -0.79942777690E+02  0.79942777690E+02  0.00000000000E+00 0.  1.
         23    2    1    2    0    0  0.65188400774E+02  0.23339272233E+02  0.13142215098E+02  0.11279179500E+03  0.88062602607E+02 0.  0.
         23    2    1    2    0    0 -0.65188400774E+02 -0.23339272233E+02  0.13957787521E+03  0.19981385069E+03  0.12509733192E+03 0.  0.
          5    1    4    4  502    0 -0.14790577554E+01  0.47019550262E+02  0.36995560212E+02  0.59993079551E+02  0.41800000000E+01 0.  1.
         -5    1    4    4    0  502 -0.63709343018E+02 -0.70358822495E+02  0.10258231500E+03  0.13982077114E+03  0.41800000000E+01 0.  1.
        -11    1    3    3    0    0  0.27685014536E+02 -0.22761454698E+01  0.48055580099E+02  0.55506573005E+02  0.00000000000E+00 0. -1.
         11    1    3    3    0    0  0.37503386238E+02  0.25615417702E+02 -0.34913365001E+02  0.57285221996E+02  0.00000000000E+00 0.  1.
</event>
<event>
 7    1  0.5900800E-006  0.1259400E+03  0.7561462E-02  0.1233608E+00
          1   -1    0    0  501    0  0.00000000000E+00  0.00000000000E+00  0.12260608729E+03  0.12260608729E+03  0.00000000000E+00 0. -1.
         -1   -1    0    0    0  501 -0.00000000000E+00 -0.00000000000E+00 -0.13011890450E+03  0.13011890450E+03  0.00000000000E+00 0.  1.
         23    2    1    2    0    0 -0.48904105092E+02  0.76216743054E+02 -0.11354687691E+02  0.15484080480E+03  0.12508454133E+03 0.  0.
          5    1    3    3  502    0  0.13650601488E+02  0.89130479425E+02 -0.33139544748E+01  0.90327382215E+02  0.41800000000E+01 0.  1.
         -5    1    3    3    0  502 -0.62554706580E+02 -0.12913736371E+02 -0.80407332159E+01  0.64513422580E+02  0.41800000000E+01 0.  1.
        -11    1    1    2    0    0  0.31825495520E+02 -0.73779986189E+02  0.73310110441E+00  0.80354750727E+02  0.00000000000E+00 0.  1.
         11    1    1    2    0    0  0.17078609573E+02 -0.24367568651E+01  0.31087693715E+01  0.17529436271E+02  0.00000000000E+00 0. -1.
</event>
<event>
 7    1  0.5900800E-006  0.1304400E+03  0.7561462E-02  0.1226804E+00
         -1   -1    0    0    0  501 -0.00000000000E+00  0.00000000000E+00  0.17346770537E+02  0.17346770537E+02  0.00000000000E+00 0.  1.
          1   -1    0    0  501    0  0.00000000000E+00 -0.00000000000E+00 -0.14852948784E+04  0.14852948784E+04  0.00000000000E+00 0. -1.
         23    2    1    2    0    0  0.12979814033E+02  0.75488809073E+02 -0.26696527964E+03  0.29225308178E+03  0.90963549902E+02 0.  0.
          5    1    1    2  502    0  0.52734475321E+02 -0.47501424407E+02 -0.79289012674E+03  0.79607131319E+03  0.41800000000E+01 0. -1.
         -5    1    1    2    0  502 -0.65714289354E+02 -0.27987384666E+02 -0.40809270150E+03  0.41431725397E+03  0.41800000000E+01 0.  1.
        -11    1    3    3    0    0 -0.37106717103E+02  0.49332165822E+02 -0.12369349950E+03  0.13824128493E+03  0.00000000000E+00 0.  1.
         11    1    3    3    0    0  0.50086531136E+02  0.26156643251E+02 -0.14327178013E+03  0.15401179685E+03  0.00000000000E+00 0. -1.
</event>
<event>
 8    1  0.5900800E-006  0.1283859E+03  0.7561462E-02  0.1229871E+00
         -1   -1    0    0    0  501 -0.00000000000E+00  0.00000000000E+00  0.13330030147E+03  0.13330030147E+03  0.00000000000E+00 0.  1.
          1   -1    0    0  501    0  0.00000000000E+00 -0.00000000000E+00 -0.14171415486E+03  0.14171415486E+03  0.00000000000E+00 0. -1.
         23    2    1    2    0    0  0.29719699120E+02 -0.74517052232E+02  0.21176456993E+02  0.12349390803E+03  0.91467214895E+02 0.  0.
         23    2    1    2    0    0 -0.29719699120E+02  0.74517052232E+02 -0.29590310385E+02  0.15152054830E+03  0.12508732349E+03 0.  0.
          5    1    4    4  502    0 -0.63544042670E+02  0.82658952947E+02 -0.44502835193E+02  0.11343862923E+03  0.41800000000E+01 0. -1.
         -5    1    4    4    0  502  0.33824343550E+02 -0.81419007159E+01  0.14912524808E+02  0.38081919070E+02  0.41800000000E+01 0. -1.
        -11    1    3    3    0    0  0.50875932444E+02 -0.80652684327E+02  0.37943814598E+01  0.95433816448E+02  0.00000000000E+00 0.  1.
         11    1    3    3    0    0 -0.21156233325E+02  0.61356320951E+01  0.17382075533E+02  0.28060091581E+02  0.00000000000E+00 0. -1.
</event>
<event>
 8    1  0.5900800E-006  0.8947521E+02  0.7561462E-02  0.1304128E+00
         -1   -1    0    0    0  501 -0.00000000000E+00  0.00000000000E+00  0.37955036876E+02  0.37955036876E+02  0.00000000000E+00 0.  1.
          1   -1    0    0  501    0  0.00000000000E+00 -0.00000000000E+00 -0.34872840846E+03  0.34872840846E+03  0.00000000000E+00 0. -1.
         23    2    1    2    0    0 -0.53644752312E+01  0.21113707728E+02 -0.89816752075E+02  0.13184478875E+03  0.94028895124E+02 0.  0.
         23    2    1    2    0    0  0.53644752312E+01 -0.21113707728E+02 -0.22095661951E+03  0.25483865659E+03  0.12508535861E+03 0.  0.
          5    1    4    4  502    0 -0.35634296208E+01  0.52424021633E+02 -0.87880693078E+02  0.10247665437E+03  0.41800000000E+01 0. -1.
         -5    1    4    4    0  502  0.89279048520E+01 -0.73537729361E+02 -0.13307592643E+03  0.15236200222E+03  0.41800000000E+01 0. -1.
        -11    1    3    3    0    0  0.48183885393E+01 -0.14355165652E+02  0.14639537270E+02  0.21061901635E+02  0.00000000000E+00 0.  1.
         11    1    3    3    0    0 -0.10182863770E+02  0.35468873379E+02 -0.10445628935E+03  0.11078288711E+03  0.00000000000E+00 0. -1.
</event>
<event>
 8    1  0.5900800E-006  0.1412258E+03  0.7561462E-02  0.1211689E+00
         -2   -1    0    0    0  501 -0.00000000000E+00  0.00000000000E+00  0.83841053607E+02  0.83841053607E+02  0.00000000000E+00 0. -1.
          2   -1    0    0  501    0  0.00000000000E+00 -0.00000000000E+00 -0.30118051072E+03  0.30118051072E+03  0.00000000000E+00 0.  1.
         23    2    1    2    0    0  0.99392675623E+02  0.48474413547E+02 -0.56013925981E+02  0.15285187444E+03  0.89428535040E+02 0.  0.
         23    2    1    2    0    0 -0.99392675623E+02 -0.48474413547E+02 -0.16132553113E+03  0.23216968988E+03  0.12509262637E+03 0.  0.
          5    1    4    4  502    0  0.24330497331E+02 -0.34353645100E+02 -0.43699422014E+02  0.60821525107E+02  0.41800000000E+01 0. -1.
         -5    1    4    4    0  502 -0.12372317295E+03 -0.14120768447E+02 -0.11762610911E+03  0.17134816478E+03  0.41800000000E+01 0. -1.
        -11    1    3    3    0    0  0.58474620154E+02  0.98799241633E+01 -0.73039948663E+02  0.94083623465E+02  0.00000000000E+00 0.  1.
         11    1    3    3    0    0  0.40918055469E+02  0.38594489383E+02  0.17026022682E+02  0.58768250974E+02  0.00000000000E+00 0. -1.
</event>
<event>
 8    1  0.5900800E-006  0.1516022E+03  0.7561462E-02  0.1198518E+00
         -1   -1    0    0    0  501 -0.00000000000E+00  0.00000000000E+00  0.22949376978E+03  0.22949376978E+03  0.00000000000E+00 0.  1.
          1   -1    0    0  501    0  0.00000000000E+00 -0.00000000000E+00 -0.11799781583E+03  0.11799781583E+03  0.00000000000E+00 0. -1.
         23    2    1    2    0    0 -0.33367215182E+02 -0.10509399252E+03  0.11146673738E+03  0.18074446120E+03  0.89920011103E+02 0.  0.
         23    2    1    2    0    0  0.33367215182E+02  0.10509399252E+03  0.29216558716E-01  0.16674712441E+03  0.12508590781E+03 0.  0.
          5    1    4    4  502    0  0.68510064472E+02  0.20436152054E+02  0.16578667835E+02  0.73509114209E+02  0.41800000000E+01 0. -1.
         -5    1    4    4    0  502 -0.35142849290E+02  0.84657840470E+02 -0.16549451276E+02  0.93238010204E+02  0.41800000000E+01 0. -1.
        -11    1    3    3    0    0 -0.62614081411E+02 -0.65578016982E+02  0.55744227456E+02  0.10643504309E+03  0.00000000000E+00 0. -1.
         11    1    3    3    0    0  0.29246866229E+02 -0.39515975542E+02  0.55722509927E+02  0.74309418110E+02  0.00000000000E+00 0.  1.
</event>
<event>
 8    1  0.5900800E-006  0.1351364E+03  0.7561462E-02  0.1220027E+00
          2   -1    0    0  501    0  0.00000000000E+00  0.00000000000E+00  0.24549139136E+03  0.24549139136E+03  0.00000000000E+00 0. -1.
         -2   -1    0    0    0  501 -0.00000000000E+00 -0.00000000000E+00 -0.90393583106E+02  0.90393583106E+02  0.00000000000E+00 0.  1.
         23    2    1    2    0    0 -0.59812615373E+02  0.75771236803E+02  0.35679925584E+02  0.13782924478E+03  0.91678865295E+02 0.  0.
         23    2    1    2    0    0  0.59812615373E+02 -0.75771236803E+02  0.11941788267E+03  0.19805572969E+03  0.12508641844E+03 0.  0.
          5    1    4    4  502    0  0.69848892498E+02 -0.96228325544E+02  0.12666483550E+03  0.17378208012E+03  0.41800000000E+01 0. -1.
         -5    1    4    4    0  502 -0.10036277126E+02  0.20457088741E+02 -0.72469528220E+01  0.24273649571E+02  0.41800000000E+01 0. -1.
        -11    1    3    3    0    0 -0.53272763468E+02  0.94393610427E+02  0.43237341722E+02  0.11669451031E+03  0.00000000000E+00 0. -1.
         11    1    3    3    0    0 -0.65398519053E+01 -0.18622373624E+02 -0.75574161387E+01  0.21134734468E+02  0.00000000000E+00 0.  1.
</event>
<event>
 8    1  0.5900800E-006  0.6917222E+02  0.7561462E-02  0.1362931E+00
          2   -1    0    0  501    0  0.00000000000E+00  0.00000000000E+00  0.81406323150E+02  0.81406323150E+02  0.00000000000E+00 0.  1.
         -2   -1    0    0    0  501 -0.00000000000E+00 -0.00000000000E+00 -0.22463270324E+03  0.22463270324E+03  0.00000000000E+00 0. -1.
         23    2    1    2    0    0 -0.24504430417E+02  0.47809955429E+02 -0.13558327948E+03  0.16968630939E+03  0.86743062965E+02 0.  0.
         23    2    1    2    0    0  0.24504430417E+02 -0.47809955429E+02 -0.76431006070E+01  0.13635271699E+03  0.12508951793E+03 0.  0.
          5    1    4    4  502    0  0.61442490779E+01 -0.24621710790E+02 -0.65978701032E+02  0.70814135798E+02  0.41800000000E+01 0.  1.
         -5    1    4    4    0  502  0.18360181340E+02 -0.23188244638E+02  0.58335600425E+02  0.65538581196E+02  0.41800000000E+01 0.  1.
        -11    1    3    3    0    0 -0.15800291418E+02 -0.13529279329E+02 -0.91029066119E+02  0.93375486540E+02  0.00000000000E+00 0. -1.
         11    1    3    3    0    0 -0.87041389997E+01  0.61339234758E+02 -0.44554213363E+02  0.76310822855E+02  0.00000000000E+00 0.  1.
</event>
<event>
 8    1  0.5900800E-006  0.1766143E+03  0.7561462E-02  0.1171120E+00
          2   -1    0    0  501    0  0.00000000000E+00  0.00000000000E+00  0.15684314893E+03  0.15684314893E+03  0.00000000000E+00 0. -1.
         -2   -1    0    0    0  501 -0.00000000000E+00 -0.00000000000E+00 -0.31708422945E+03  0.31708422945E+03  0.00000000000E+00 0.  1.
         23    2    1    2    0    0 -0.66885414078E+01  0.15521154264E+03 -0.20326395425E+03  0.26988400094E+03  0.85940556850E+02 0.  0.
         23    2    1    2    0    0  0.66885414078E+01 -0.15521154264E+03  0.43022873729E+02  0.20404337744E+03  0.12508945862E+03 0.  0.
          5    1    4    4  502    0  0.48803747518E+02 -0.33459882141E+02  0.46071752002E+02  0.75109574737E+02  0.41800000000E+01 0. -1.
         -5    1    4    4    0  502 -0.42115206110E+02 -0.12175166050E+03 -0.30488782727E+01  0.12893380270E+03  0.41800000000E+01 0. -1.
        -11    1    3    3    0    0  0.16346824605E+02  0.12934691607E+03 -0.19450524562E+03  0.23415835228E+03  0.00000000000E+00 0.  1.
         11    1    3    3    0    0 -0.23035366013E+02  0.25864626569E+02 -0.87587086292E+01  0.35725648654E+02  0.00000000000E+00 0. -1.
</event>
<event>
 8    1  0.5900800E-006  0.1234434E+03  0.7561462E-02  0.1237522E+00
         -2   -1    0    0    0  501 -0.00000000000E+00  0.00000000000E+00  0.20043501653E+02  0.20043501653E+02  0.00000000000E+00 0.  1.
          2   -1    0    0  501    0  0.00000000000E+00 -0.00000000000E+00 -0.92040419475E+03  0.92040419475E+03  0.00000000000E+00 0. -1.
         23    2    1    2    0    0 -0.70526697343E+02  0.37922342574E+02 -0.45242198058E+03  0.46852709167E+03  0.91759838759E+02 0.  0.
         23    2    1    2    0    0  0.70526697343E+02 -0.37922342574E+02 -0.44793871251E+03  0.47192060473E+03  0.12509135821E+03 0.  0.
          5    1    4    4  502    0  0.73426820969E+02  0.17699398421E+02 -0.14167294068E+03  0.16060342855E+03  0.41800000000E+01 0. -1.
         -5    1    4    4    0  502 -0.29001236262E+01 -0.55621740994E+02 -0.30626577184E+03  0.31131717618E+03  0.41800000000E+01 0. -1.
        -11    1    3    3    0    0 -0.33211634206E+02  0.62450670438E+02 -0.19890364137E+03  0.21110603363E+03  0.00000000000E+00 0.  1.
         11    1    3    3    0    0 -0.37315063137E+02 -0.24528327864E+02 -0.25351833921E+03  0.25742105804E+03  0.00000000000E+00 0. -1.
</event>
<event>
 8    1  0.5900800E-006  0.1094944E+03  0.7561462E-02  0.1261509E+00
          1   -1    0    0  501    0  0.00000000000E+00  0.00000000000E+00  0.12965597324E+03  0.12965597324E+03  0.00000000000E+00 0. -1.
         -1   -1    0    0    0  501 -0.00000000000E+00 -0.00000000000E+00 -0.20087723658E+03  0.20087723658E+03  0.00000000000E+00 0.  1.
         23    2    1    2    0    0  0.90350925115E+01  0.51631146076E+02 -0.14777327226E+03  0.18040322928E+03  0.89224307227E+02 0.  0.
         23    2    1    2    0    0 -0.90350925115E+01 -0.51631146076E+02  0.76552008915E+02  0.15012998054E+03  0.11803132146E+03 0.  0.
          5    1    4    4  502    0  0.13709828598E+02 -0.82431598281E+02  0.28157511235E+02  0.88279361316E+02  0.41800000000E+01 0. -1.
         -5    1    4    4    0  502 -0.22744921110E+02  0.30800452205E+02  0.48394497680E+02  0.61850619221E+02  0.41800000000E+01 0.  1.
        -11    1    3    3    0    0 -0.36353128836E+02  0.20112559586E+02 -0.96322132181E+02  0.10490003898E+03  0.00000000000E+00 0.  1.
         11    1    3    3    0    0  0.45388221347E+02  0.31518586489E+02 -0.51451140078E+02  0.75503190308E+02  0.00000000000E+00 0. -1.
</event>
<event>
 8    1  0.5900800E-006  0.9997957E+02  0.7561462E-02  0.1280339E+00
         -1   -1    0    0    0  501 -0.00000000000E+00  0.00000000000E+00  0.27549401370E+03  0.27549401370E+03  0.00000000000E+00 0.  1.
          1   -1    0    0  501    0  0.00000000000E+00 -0.00000000000E+00 -0.72792868857E+02  0.72792868857E+02  0.00000000000E+00 0. -1.
         23    2    1    2    0    0 -0.50786202669E+02  0.76248192374E+02  0.10467976813E+03  0.16485115010E+03  0.88459157874E+02 0.  0.
         23    2    1    2    0    0  0.50786202669E+02 -0.76248192374E+02  0.98021376713E+02  0.18343573246E+03  0.12508977747E+03 0.  0.
          5    1    4    4  502    0  0.34088119900E+02 -0.36808230309E+02 -0.22737408774E+02  0.55238644938E+02  0.41800000000E+01 0.  1.
         -5    1    4    4    0  502  0.16698082769E+02 -0.39439962064E+02  0.12075878549E+03  0.12819708752E+03  0.41800000000E+01 0.  1.
        -11    1    3    3    0    0 -0.51064111678E+02  0.27810684884E+02  0.10699429480E+02  0.59122377205E+02  0.00000000000E+00 0.  1.
         11    1    3    3    0    0  0.27790900894E+00  0.48437507490E+02  0.93980338648E+02  0.10572877289E+03  0.00000000000E+00 0. -1.
</event>
<event>
 8    1  0.5900800E-006  0.1249030E+03  0.7561462E-02  0.1235221E+00
          2   -1    0    0  501    0  0.00000000000E+00  0.00000000000E+00  0.17412302063E+03  0.17412302063E+03  0.00000000000E+00 0. -1.
         -2   -1    0    0    0  501 -0.00000000000E+00 -0.00000000000E+00 -0.94645873494E+02  0.94645873494E+02  0.00000000000E+00 0.  1.
         23    2    1    2    0    0  0.18962393098E+02 -0.79841898668E+02  0.29887878231E+02  0.11115661806E+03  0.68761961416E+02 0.  0.
         23    2    1    2    0    0 -0.18962393098E+02  0.79841898668E+02  0.49589268903E+02  0.15761227607E+03  0.12509289685E+03 0.  0.
          5    1    4    4  502    0  0.50589839483E+02  0.50909082713E+02  0.10544316008E+02  0.72661692532E+02  0.41800000000E+01 0.  1.
         -5    1    4    4    0  502 -0.69552232581E+02  0.28932815955E+02  0.39044952895E+02  0.84950583533E+02  0.41800000000E+01 0.  1.
        -11    1    3    3    0    0  0.28043486310E+02 -0.67906916373E+01 -0.56689552897E+01  0.29405572115E+02  0.00000000000E+00 0.  1.
         11    1    3    3    0    0 -0.90810932122E+01 -0.73051207031E+02  0.35556833520E+02  0.81751045942E+02  0.00000000000E+00 0. -1.
</event>
<event>
 8    1  0.5900800E-006  0.1169632E+03  0.7561462E-02  0.1248193E+00
         -4   -1    0    0    0  501 -0.00000000000E+00  0.00000000000E+00  0.92328758066E+02  0.92328758066E+02  0.00000000000E+00 0.  1.
          4   -1    0    0  501    0  0.00000000000E+00 -0.00000000000E+00 -0.18449859849E+03  0.18449859849E+03  0.00000000000E+00 0. -1.
         23    2    1    2    0    0  0.49450401894E+02 -0.40790876056E+02 -0.10563374959E+02  0.11429759959E+03  0.94037857087E+02 0.  0.
         23    2    1    2    0    0 -0.49450401894E+02  0.40790876056E+02 -0.81606465461E+02  0.16252975696E+03  0.12508824435E+03 0.  0.
          5    1    4    4  502    0 -0.77711392548E+02  0.15170738630E+01 -0.13685911211E+02  0.79032516160E+02  0.41800000000E+01 0. -1.
         -5    1    4    4    0  502  0.28260990654E+02  0.39273802193E+02 -0.67920554250E+02  0.83497240799E+02  0.41800000000E+01 0. -1.
        -11    1    3    3    0    0 -0.17971402254E+01  0.24475065439E+02  0.13352564127E+02  0.27938316162E+02  0.00000000000E+00 0.  1.
         11    1    3    3    0    0  0.51247542119E+02 -0.65265941495E+02 -0.23915939086E+02  0.86359283432E+02  0.00000000000E+00 0. -1.
</event>
<event>
 8    1  0.5900800E-006  0.1185584E+03  0.7561462E-02  0.1245494E+00
         -3   -1    0    0    0  501 -0.00000000000E+00  0.00000000000E+00  0.10792065842E+03  0.10792065842E+03  0.00000000000E+00 0.  1.
          3   -1    0    0  501    0  0.00000000000E+00 -0.00000000000E+00 -0.24183694203E+03  0.24183694203E+03  0.00000000000E+00 0. -1.
         23    2    1    2    0    0 -0.64415071656E+02 -0.82975229336E+02  0.24190438854E+00  0.13909529113E+03  0.91177033050E+02 0.  0.
         23    2    1    2    0    0  0.64415071656E+02  0.82975229336E+02 -0.13415818800E+03  0.21066230933E+03  0.12387896926E+03 0.  0.
          5    1    4    4  502    0  0.37121865824E+02  0.15252436460E+02 -0.13142093349E+03  0.13747583024E+03  0.41800000000E+01 0. -1.
         -5    1    4    4    0  502  0.27293205832E+02  0.67722792876E+02 -0.27372545097E+01  0.73186479091E+02  0.41800000000E+01 0.  1.
        -11    1    3    3    0    0 -0.59276816725E+02 -0.94193051678E+02  0.22594714381E+02  0.11356316790E+03  0.00000000000E+00 0. -1.
         11    1    3    3    0    0 -0.51382549305E+01  0.11217822342E+02 -0.22352809993E+02  0.25532123226E+02  0.00000000000E+00 0.  1.
</event>
<event>
 8    1  0.5900800E-006  0.8517885E+02  0.7561462E-02  0.1314965E+00
          2   -1    0    0  501    0  0.00000000000E+00  0.00000000000E+00  0.20972529073E+03  0.20972529073E+03  0.00000000000E+00 0. -1.
         -2   -1    0    0    0  501 -0.00000000000E+00 -0.00000000000E+00 -0.75600267010E+02  0.75600267010E+02  0.00000000000E+00 0.  1.
         23    2    1    2    0    0 -0.14313044478E+02 -0.51729034677E+02  0.19971267900E+02  0.10767608765E+03  0.91184055843E+02 0.  0.
         23    2    1    2    0    0  0.14313044478E+02  0.51729034677E+02  0.11415375582E+03  0.17764947009E+03  0.12508995956E+03 0.  0.
          5    1    4    4  502    0  0.27898489169E+01  0.61571455553E+02 -0.64477885007E+00  0.61779572155E+02  0.41800000000E+01 0.  1.
         -5    1    4    4    0  502  0.11523195561E+02 -0.98424208751E+01  0.11479853467E+03  0.11586989793E+03  0.41800000000E+01 0.  1.
        -11    1    3    3    0    0  0.30830433565E+02 -0.13303331392E+02 -0.17176019814E+02  0.37716175795E+02  0.00000000000E+00 0. -1.
         11    1    3    3    0    0 -0.45143478043E+02 -0.38425703285E+02  0.37147287714E+02  0.69959911859E+02  0.00000000000E+00 0.  1.
</event>
<event>
 7    1  0.5900800E-006  0.7985147E+02  0.7561462E-02  0.1329473E+00
          2   -1    0    0  501    0  0.00000000000E+00  0.00000000000E+00  0.52225252201E+02  0.52225252201E+02  0.00000000000E+00 0. -1.
         -2   -1    0    0    0  501 -0.00000000000E+00 -0.00000000000E+00 -0.31837029830E+03  0.31837029830E+03  0.00000000000E+00 0.  1.
         23    2    1    2    0    0  0.68422199926E+01  0.61112114335E+02 -0.14496783025E+03  0.17971337676E+03  0.86600920817E+02 0.  0.
          5    1    1    2  502    0 -0.10525176910E+02 -0.31947907662E+02  0.24746765596E+02  0.41968118381E+02  0.41800000000E+01 0. -1.
         -5    1    1    2    0  502  0.36829569171E+01 -0.29164206673E+02 -0.14592398145E+03  0.14891405537E+03  0.41800000000E+01 0.  1.
        -11    1    3    3    0    0  0.32568109815E+02  0.31734203574E+01 -0.90152727769E+02  0.95907594579E+02  0.00000000000E+00 0. -1.
         11    1    3    3    0    0 -0.25725889822E+02  0.57938693978E+02 -0.54815102476E+02  0.83805782178E+02  0.00000000000E+00 0.  1.
</event>
<event>
 8    1  0.5900800E-006  0.1822955E+03  0.7561462E-02  0.1165600E+00
         -1   -1    0    0    0  501 -0.00000000000E+00  0.00000000000E+00  0.37364244790E+02  0.37364244790E+02  0.00000000000E+00 0.  1.
          1   -1    0    0  501    0  0.00000000000E+00 -0.00000000000E+00 -0.10298573898E+04  0.10298573898E+04  0.00000000000E+00 0. -1.
         23    2    1    2    0    0  0.32219594801E+02 -0.15034503335E+03 -0.32554930253E+03  0.37145021097E+03  0.91384788182E+02 0.  0.
         23    2    1    2    0    0 -0.32219594801E+02  0.15034503335E+03 -0.66694384252E+03  0.69577142365E+03  0.12506819564E+03 0.  0.
          5    1    4    4  502    0 -0.69551201343E+02  0.50999975684E+02 -0.21898972841E+03  0.23539825972E+03  0.41800000000E+01 0.  1.
         -5    1    4    4    0  502  0.37331606543E+02  0.99345057666E+02 -0.44795411411E+03  0.46037316394E+03  0.41800000000E+01 0.  1.
        -11    1    3    3    0    0  0.57086441688E+02 -0.11932106847E+03 -0.20023894312E+03  0.23998336098E+03  0.00000000000E+00 0.  1.
         11    1    3    3    0    0 -0.24866846888E+02 -0.31023964877E+02 -0.12531035941E+03  0.13146684999E+03  0.00000000000E+00 0. -1.
</event>
<event>
 8    1  0.5900800E-006  0.9204867E+02  0.7561462E-02  0.1297965E+00
          1   -1    0    0  501    0  0.00000000000E+00  0.00000000000E+00  0.20585888647E+03  0.20585888647E+03  0.00000000000E+00 0. -1.
         -1   -1    0    0    0  501 -0.00000000000E+00 -0.00000000000E+00 -0.20064695073E+03  0.20064695073E+03  0.00000000000E+00 0.  1.
         23    2    1    2    0    0  0.84803066254E+02 -0.74191640664E+01 -0.14630377861E+03  0.19238010394E+03  0.91425952077E+02 0.  0.
         23    2    1    2    0    0 -0.84803066254E+02  0.74191640664E+01  0.15151571436E+03  0.21412573326E+03  0.12508482684E+03 0.  0.
          5    1    4    4  502    0  0.40147760477E-01 -0.78188566606E+01  0.12287633674E+03  0.12319578995E+03  0.41800000000E+01 0.  1.
         -5    1    4    4    0  502 -0.84843214014E+02  0.15238020727E+02  0.28639377621E+02  0.90929943311E+02  0.41800000000E+01 0.  1.
        -11    1    3    3    0    0  0.31470683236E+02  0.96748783167E+01 -0.12992145908E+03  0.13402832799E+03  0.00000000000E+00 0.  1.
         11    1    3    3    0    0  0.53332383018E+02 -0.17094042383E+02 -0.16382319535E+02  0.58351775952E+02  0.00000000000E+00 0. -1.
</event>
<event>
 8    1  0.5900800E-006  0.2862868E+03  0.7561462E-02  0.1092304E+00
         -4   -1    0    0    0  501 -0.00000000000E+00  0.00000000000E+00  0.24687513848E+03  0.24687513848E+03  0.00000000000E+00 0.  1.
          4   -1    0    0  501    0  0.00000000000E+00 -0.00000000000E+00 -0.36717639312E+03  0.36717639312E+03  0.00000000000E+00 0. -1.
         23    2    1    2    0    0 -0.86562105439E+02 -0.26545956052E+03 -0.84213030582E+02  0.30597073254E+03  0.92544466490E+02 0.  0.
         23    2    1    2    0    0  0.86562105439E+02  0.26545956052E+03 -0.36088224052E+02  0.30808079907E+03  0.12509853104E+03 0.  0.
          5    1    4    4  502    0  0.26537714138E+02  0.20920742723E+03  0.14489888953E+02  0.21142239040E+03  0.41800000000E+01 0. -1.
         -5    1    4    4    0  502  0.60024391301E+02  0.56252133291E+02 -0.50578113005E+02  0.96658408667E+02  0.41800000000E+01 0. -1.
        -11    1    3    3    0    0 -0.54412110890E+02 -0.15750700616E+03 -0.96662193940E+02  0.19264660532E+03  0.00000000000E+00 0. -1.
         11    1    3    3    0    0 -0.32149994550E+02 -0.10795255436E+03  0.12449163357E+02  0.11332412722E+03  0.00000000000E+00 0.  1.
</event>
<event>
 7    1  0.5900800E-006  0.1109929E+03  0.7561462E-02  0.1258742E+00
         -2   -1    0    0    0  501 -0.00000000000E+00  0.00000000000E+00  0.33057421252E+02  0.33057421252E+02  0.00000000000E+00 0.  1.
          2   -1    0    0  501    0  0.00000000000E+00 -0.00000000000E+00 -0.13049592234E+04  0.13049592234E+04  0.00000000000E+00 0. -1.
         23    2    1    2    0    0  0.30221506053E+02  0.80157247730E+02 -0.11300716168E+03  0.16835938766E+03  0.90750983623E+02 0.  0.
          5    1    1    2  502    0 -0.86323300827E+01 -0.75108048669E+02 -0.11320967264E+04  0.11346260205E+04  0.41800000000E+01 0. -1.
         -5    1    1    2    0  502 -0.21589175971E+02 -0.50491990613E+01 -0.26797914001E+02  0.35031236419E+02  0.41800000000E+01 0.  1.
        -11    1    3    3    0    0 -0.20512727390E+02  0.68695531594E+02 -0.54366672274E+02  0.89975458321E+02  0.00000000000E+00 0.  1.
         11    1    3    3    0    0  0.50734233443E+02  0.11461716136E+02 -0.58640489410E+02  0.78383929336E+02  0.00000000000E+00 0. -1.
</event>
<event>
 8    1  0.5900800E-006  0.6447581E+02  0.7561462E-02  0.1379954E+00
          1   -1    0    0  501    0  0.00000000000E+00  0.00000000000E+00  0.23254725101E+03  0.23254725101E+03  0.00000000000E+00 0. -1.
         -1   -1    0    0    0  501 -0.00000000000E+00 -0.00000000000E+00 -0.91124352119E+02  0.91124352119E+02  0.00000000000E+00 0.  1.
         23    2    1    2    0    0 -0.33210770024E+02 -0.38353188536E+02 -0.21920798560E+02  0.11176926120E+03  0.97148978495E+02 0.  0.
         23    2    1    2    0    0  0.33210770024E+02  0.38353188536E+02  0.16334369745E+03  0.21190234193E+03  0.12509003439E+03 0.  0.
          5    1    4    4  502    0  0.78972696866E+01  0.27369432698E+02  0.17804542857E+03  0.18035825390E+03  0.41800000000E+01 0.  1.
         -5    1    4    4    0  502  0.25313500337E+02  0.10983755838E+02 -0.14701731123E+02  0.31544088030E+02  0.41800000000E+01 0.  1.
        -11    1    3    3    0    0 -0.57648992094E+01  0.12890671104E+02  0.30425689575E+02  0.33542898661E+02  0.00000000000E+00 0. -1.
         11    1    3    3    0    0 -0.27445870815E+02 -0.51243859640E+02 -0.52346488135E+02  0.78226362536E+02  0.00000000000E+00 0.  1.
</event>
<event>
 8    1  0.5900800E-006  0.1226755E+03  0.7561462E-02  0.1238747E+00
          1   -1    0    0  501    0  0.00000000000E+00  0.00000000000E+00  0.67564125676E+02  0.67564125676E+02  0.00000000000E+00 0. -1.
         -1   -1    0    0    0  501 -0.00000000000E+00 -0.00000000000E+00 -0.38362236054E+03  0.38362236054E+03  0.00000000000E+00 0.  1.
         23    2    1    2    0    0 -0.93457214875E+02 -0.73215113462E+02 -0.17423321609E+03  0.22790251263E+03  0.86531137886E+02 0.  0.
         23    2    1    2    0    0  0.93457214875E+02  0.73215113462E+02 -0.14182501877E+03  0.22328397358E+03  0.12508674213E+03 0.  0.
          5    1    4    4  502    0  0.56752413876E+02  0.54931248338E+02 -0.15981043146E+03  0.17831187546E+03  0.41800000000E+01 0. -1.
         -5    1    4    4    0  502  0.36704801000E+02  0.18283865124E+02  0.17985412688E+02  0.44972098126E+02  0.41800000000E+01 0. -1.
        -11    1    3    3    0    0 -0.48135703824E+02 -0.61739590750E+02 -0.44607522782E+02  0.90103574498E+02  0.00000000000E+00 0. -1.
         11    1    3    3    0    0 -0.45321511052E+02 -0.11475522712E+02 -0.12962569331E+03  0.13779893813E+03  0.00000000000E+00 0.  1.
</event>
<event>
 8    1  0.5900800E-006  0.1025326E+03  0.7561462E-02  0.1275059E+00
         -4   -1    0    0    0  501 -0.00000000000E+00  0.00000000000E+00  0.16711363816E+03  0.16711363816E+03  0.00000000000E+00 0.  1.
          4   -1    0    0  501    0  0.00000000000E+00 -0.00000000000E+00 -0.91556468279E+02  0.91556468279E+02  0.00000000000E+00 0. -1.
         23    2    1    2    0    0 -0.51472763854E+02  0.14353574948E+01  0.59727002421E+02  0.12246789503E+03  0.93699332043E+02 0.  0.
         23    2    1    2    0    0  0.51472763854E+02 -0.14353574948E+01  0.15830167461E+02  0.13620221141E+03  0.12509573342E+03 0.  0.
          5    1    4    4  502    0 -0.36435259074E+02  0.20103231712E+02 -0.78525571023E+01  0.42553531958E+02  0.41800000000E+01 0.  1.
         -5    1    4    4    0  502  0.87908022928E+02 -0.21538589207E+02  0.23682724564E+02  0.93648679451E+02  0.41800000000E+01 0.  1.
        -11    1    3    3    0    0  0.51485038221E+01 -0.13189084527E+02 -0.19436685089E+02  0.24046699763E+02  0.00000000000E+00 0. -1.
         11    1    3    3    0    0 -0.56621267676E+02  0.14624442022E+02  0.79163687510E+02  0.98421195267E+02  0.00000000000E+00 0.  1.
</event>
<event>
 8    1  0.5900800E-006  0.1061046E+03  0.7561462E-02  0.1267959E+00
         -1   -1    0    0    0  501 -0.00000000000E+00  0.00000000000E+00  0.43334391509E+03  0.43334391509E+03  0.00000000000E+00 0.  1.
          1   -1    0    0  501    0  0.00000000000E+00 -0.00000000000E+00 -0.33349175230E+02  0.33349175230E+02  0.00000000000E+00 0. -1.
         23    2    1    2    0    0 -0.50698159826E+02 -0.14318712215E+02  0.18009754082E+03  0.20827929760E+03  0.90387016061E+02 0.  0.
         23    2    1    2    0    0  0.50698159826E+02  0.14318712215E+02  0.21989719904E+03  0.25841379272E+03  0.12509029215E+03 0.  0.
          5    1    4    4  502    0 -0.33928530643E+02 -0.18361839493E+02  0.34303467841E+02  0.51792882205E+02  0.41800000000E+01 0.  1.
         -5    1    4    4    0  502  0.84626690468E+02  0.32680551708E+02  0.18559373120E+03  0.20662091051E+03  0.41800000000E+01 0.  1.
        -11    1    3    3    0    0  0.13486184289E+02  0.66918647848E+01 -0.91036479033E+00  0.15082671681E+02  0.00000000000E+00 0. -1.
         11    1    3    3    0    0 -0.64184344115E+02 -0.21010577000E+02  0.18100790561E+03  0.19319662592E+03  0.00000000000E+00 0.  1.
</event>
<event>
 8    1  0.5900800E-006  0.7937500E+02  0.7561462E-02  0.1330834E+00
         -1   -1    0    0    0  501 -0.00000000000E+00  0.00000000000E+00  0.28013274284E+02  0.28013274284E+02  0.00000000000E+00 0.  1.
          1   -1    0    0  501    0  0.00000000000E+00 -0.00000000000E+00 -0.62820014450E+03  0.62820014450E+03  0.00000000000E+00 0. -1.
         23    2    1    2    0    0  0.64335664084E+02  0.16741381460E+01 -0.16054885723E+03  0.19461741593E+03  0.89208310229E+02 0.  0.
         23    2    1    2    0    0 -0.64335664084E+02 -0.16741381460E+01 -0.43963801299E+03  0.46159600286E+03  0.12508959580E+03 0.  0.
          5    1    4    4  502    0 -0.51251622162E+02 -0.11108343942E+02 -0.53268802874E+02  0.74867628779E+02  0.41800000000E+01 0. -1.
         -5    1    4    4    0  502 -0.13084041922E+02  0.94342057963E+01 -0.38636921011E+03  0.38672837408E+03  0.41800000000E+01 0. -1.
        -11    1    3    3    0    0  0.85565368384E+01 -0.25885145729E+02 -0.58595718834E+01  0.27885294955E+02  0.00000000000E+00 0.  1.
         11    1    3    3    0    0  0.55779127245E+02  0.27559283875E+02 -0.15468928534E+03  0.16673212097E+03  0.00000000000E+00 0. -1.
</event>
<event>
 8    1  0.5900800E-006  0.1690567E+03  0.7561462E-02  0.1178835E+00
          1   -1    0    0  501    0  0.00000000000E+00  0.00000000000E+00  0.41878871165E+03  0.41878871165E+03  0.00000000000E+00 0. -1.
         -1   -1    0    0    0  501 -0.00000000000E+00 -0.00000000000E+00 -0.10427746707E+03  0.10427746707E+03  0.00000000000E+00 0.  1.
         23    2    1    2    0    0  0.14284042147E+03  0.79419569212E+01  0.40049110036E+01  0.15902405083E+03  0.69326392847E+02 0.  0.
         23    2    1    2    0    0 -0.14284042147E+03 -0.79419569212E+01  0.31050633358E+03  0.36404212789E+03  0.12508407972E+03 0.  0.
          5    1    4    4  502    0  0.17661909580E+02  0.84393352612E+01  0.87644908822E+01  0.21850723789E+02  0.41800000000E+01 0. -1.
         -5    1    4    4    0  502 -0.16050233105E+03 -0.16381292182E+02  0.30174184270E+03  0.34219140410E+03  0.41800000000E+01 0. -1.
        -11    1    3    3    0    0  0.60317738072E+02  0.35153329227E+02 -0.11510269564E+02  0.70756430007E+02  0.00000000000E+00 0.  1.
         11    1    3    3    0    0  0.82522683400E+02 -0.27211372305E+02  0.15515180568E+02  0.88267620827E+02  0.00000000000E+00 0. -1.
</event>
<event>
 8    1  0.5900800E-006  0.1500090E+03  0.7561462E-02  0.1200462E+00
         -2   -1    0    0    0  501 -0.00000000000E+00  0.00000000000E+00  0.20536723550E+02  0.20536723550E+02  0.00000000000E+00 0.  1.
          2   -1    0    0  501    0  0.00000000000E+00 -0.00000000000E+00 -0.18265774506E+04  0.18265774506E+04  0.00000000000E+00 0. -1.
         23    2    1    2    0    0 -0.39020696593E+02 -0.13073721576E+03 -0.43984829204E+03  0.46946758161E+03  0.91205569017E+02 0.  0.
         23    2    1    2    0    0  0.39020696593E+02  0.13073721576E+03 -0.13661924350E+04  0.13776465925E+04  0.11319686446E+03 0.  0.
          5    1    4    4  502    0  0.54452699584E+02  0.11360816836E+03 -0.13184720598E+04  0.13244840344E+04  0.41800000000E+01 0. -1.
         -5    1    4    4    0  502 -0.15432002991E+02  0.17129047409E+02 -0.47720375127E+02  0.53162558100E+02  0.41800000000E+01 0.  1.
        -11    1    3    3    0    0 -0.53784160548E+02 -0.71418678843E+02 -0.34677970117E+03  0.35811942807E+03  0.00000000000E+00 0. -1.
         11    1    3    3    0    0  0.14763463956E+02 -0.59318536921E+02 -0.93068590869E+02  0.11134815354E+03  0.00000000000E+00 0.  1.
</event>
<event>
 8    1  0.6126706E-006  0.3224691E+03  0.7561462E-02  0.1074519E+00
          2   -1    0    0  501    0  0.00000000000E+00  0.00000000000E+00  0.22973735124E+04  0.22973735124E+04  0.00000000000E+00 0. -1.
         -2   -1    0    0    0  501 -0.00000000000E+00 -0.00000000000E+00 -0.51492942502E+02  0.51492942502E+02  0.00000000000E+00 0.  1.
         23    2    1    2    0    0 -0.21882214230E+03  0.22222763059E+03  0.78197235602E+03  0.84688663381E+03  0.92021493062E+02 0.  0.
         23    2    1    2    0    0  0.21882214230E+03 -0.22222763059E+03  0.14639082139E+04  0.15019798211E+04  0.12509146475E+03 0.  0.
          5    1    4    4  502    0  0.61958954036E+02 -0.30079657220E+01  0.37969526950E+03  0.38475177702E+03  0.41800000000E+01 0.  1.
         -5    1    4    4    0  502  0.15686318826E+03 -0.21921966487E+03  0.10842129444E+04  0.11172280441E+04  0.41800000000E+01 0.  1.
        -11    1    3    3    0    0 -0.15678134012E+03  0.14020066588E+03  0.40788615280E+03  0.45892017712E+03  0.00000000000E+00 0. -1.
         11    1    3    3    0    0 -0.62040802180E+02  0.82026964708E+02  0.37408620322E+03  0.38796645668E+03  0.00000000000E+00 0.  1.
</event>
<event>
 8    1  0.5900800E-006  0.1134546E+03  0.7561462E-02  0.1254303E+00
         -3   -1    0    0    0  501 -0.00000000000E+00  0.00000000000E+00  0.98260920389E+02  0.98260920389E+02  0.00000000000E+00 0.  1.
          3   -1    0    0  501    0  0.00000000000E+00 -0.00000000000E+00 -0.22544015032E+03  0.22544015032E+03  0.00000000000E+00 0. -1.
         23    2    1    2    0    0 -0.17338184080E+02 -0.77761134480E+02 -0.11543159758E+00  0.12840968085E+03  0.10070564110E+03 0.  0.
         23    2    1    2    0    0  0.17338184080E+02  0.77761134480E+02 -0.12706379834E+03  0.19529138986E+03  0.12508441727E+03 0.  0.
          5    1    4    4  502    0 -0.52832863254E+02  0.45608415717E+02 -0.72151126835E+02  0.10047236698E+03  0.41800000000E+01 0.  1.
         -5    1    4    4    0  502  0.70171047335E+02  0.32152718763E+02 -0.54912671501E+02  0.94819022876E+02  0.41800000000E+01 0.  1.
        -11    1    3    3    0    0 -0.53769487966E+01 -0.20665956247E+02 -0.48260138507E+02  0.52773424133E+02  0.00000000000E+00 0. -1.
         11    1    3    3    0    0 -0.11961235283E+02 -0.57095178233E+02  0.48144706910E+02  0.75636256718E+02  0.00000000000E+00 0.  1.
</event>
<event>
 8    1  0.5900800E-006  0.2355768E+03  0.7561462E-02  0.1122775E+00
          1   -1    0    0  501    0  0.00000000000E+00  0.00000000000E+00  0.46571633960E+03  0.46571633960E+03  0.00000000000E+00 0. -1.
         -1   -1    0    0    0  501 -0.00000000000E+00 -0.00000000000E+00 -0.12400594874E+03  0.12400594874E+03  0.00000000000E+00 0.  1.
         23    2    1    2    0    0  0.53752479668E+02  0.20597738332E+03  0.13791827418E+03  0.26956277745E+03  0.91250365057E+02 0.  0.
         23    2    1    2    0    0 -0.53752479668E+02 -0.20597738332E+03  0.20379211669E+03  0.32015951089E+03  0.12511943926E+03 0.  0.
          5    1    4    4  502    0 -0.88128809972E+02 -0.10089700931E+03  0.89986561888E+02  0.16143713128E+03  0.41800000000E+01 0.  1.
         -5    1    4    4    0  502  0.34376330305E+02 -0.10508037401E+03  0.11380555480E+03  0.15872237962E+03  0.41800000000E+01 0.  1.
        -11    1    3    3    0    0 -0.16334854090E+02  0.85970204504E+02  0.26480721656E+02  0.91427195845E+02  0.00000000000E+00 0. -1.
         11    1    3    3    0    0  0.70087333758E+02  0.12000717881E+03  0.11143755252E+03  0.17813558160E+03  0.00000000000E+00 0.  1.
</event>
<event>
 8    1  0.5900800E-006  0.1126899E+03  0.7561462E-02  0.1255668E+00
         -1   -1    0    0    0  501 -0.00000000000E+00  0.00000000000E+00  0.13370694580E+03  0.13370694580E+03  0.00000000000E+00 0.  1.
          1   -1    0    0  501    0  0.00000000000E+00 -0.00000000000E+00 -0.15821861210E+03  0.15821861210E+03  0.00000000000E+00 0. -1.
         23    2    1    2    0    0  0.52533106782E+02 -0.69509624392E+02  0.29412466180E+02  0.13023370710E+03  0.92219358630E+02 0.  0.
         23    2    1    2    0    0 -0.52533106782E+02  0.69509624392E+02 -0.53924132482E+02  0.16169185080E+03  0.12508048352E+03 0.  0.
          5    1    4    4  502    0 -0.38647311705E+02  0.75097475635E+02  0.19383521843E+02  0.86755050964E+02  0.41800000000E+01 0.  1.
         -5    1    4    4    0  502 -0.13885795077E+02 -0.55878512427E+01 -0.73307654325E+02  0.74936799832E+02  0.41800000000E+01 0.  1.
        -11    1    3    3    0    0  0.27810257798E+02 -0.89349889833E+02  0.30765251897E+02  0.98505400747E+02  0.00000000000E+00 0.  1.
         11    1    3    3    0    0  0.24722848984E+02  0.19840265441E+02 -0.13527857170E+01  0.31728306350E+02  0.00000000000E+00 0. -1.
</event>
<event>
 8    1  0.5900800E-006  0.9946070E+02  0.7561462E-02  0.1281434E+00
         -2   -1    0    0    0  501 -0.00000000000E+00  0.00000000000E+00  0.19356387424E+03  0.19356387424E+03  0.00000000000E+00 0. -1.
          2   -1    0    0  501    0  0.00000000000E+00 -0.00000000000E+00 -0.87865231870E+02  0.87865231870E+02  0.00000000000E+00 0.  1.
         23    2    1    2    0    0 -0.48478534379E+02  0.19818143234E+02  0.10126180357E+03  0.14574885314E+03  0.90806653013E+02 0.  0.
         23    2    1    2    0    0  0.48478534379E+02 -0.19818143234E+02  0.44368387929E+01  0.13568025297E+03  0.12508604403E+03 0.  0.
          5    1    4    4  502    0  0.59138681330E+02  0.29047116998E+02 -0.32285761145E+02  0.73491233546E+02  0.41800000000E+01 0.  1.
         -5    1    4    4    0  502 -0.10660146951E+02 -0.48865260232E+02  0.36722599938E+02  0.62189019423E+02  0.41800000000E+01 0.  1.
        -11    1    3    3    0    0 -0.40706990852E+02  0.42432055910E+02  0.10614459508E+03  0.12134337039E+03  0.00000000000E+00 0. -1.
         11    1    3    3    0    0 -0.77715435267E+01 -0.22613912676E+02 -0.48827915055E+01  0.24405482749E+02  0.00000000000E+00 0.  1.
</event>
<event>
 8    1  0.5900800E-006  0.1809155E+03  0.7561462E-02  0.1166920E+00
         -1   -1    0    0    0  501 -0.00000000000E+00  0.00000000000E+00  0.29952446067E+03  0.29952446067E+03  0.00000000000E+00 0.  1.
          1   -1    0    0  501    0  0.00000000000E+00 -0.00000000000E+00 -0.12798811519E+03  0.12798811519E+03  0.00000000000E+00 0. -1.
         23    2    1    2    0    0 -0.11866042155E+03 -0.10869266272E+03  0.10663383684E+03  0.21360984224E+03  0.91454901295E+02 0.  0.
         23    2    1    2    0    0  0.11866042155E+03  0.10869266272E+03  0.64902508641E+02  0.21390273362E+03  0.12509058018E+03 0.  0.
          5    1    4    4  502    0  0.12085309468E+02 -0.26061820463E+02  0.22934676111E+02  0.36996553341E+02  0.41800000000E+01 0. -1.
         -5    1    4    4    0  502  0.10657511209E+03  0.13475448318E+03  0.41967832530E+02  0.17690618028E+03  0.41800000000E+01 0. -1.
        -11    1    3    3    0    0 -0.35764171810E+02 -0.30922711329E+02  0.85924102096E+02  0.98072633197E+02  0.00000000000E+00 0.  1.
         11    1    3    3    0    0 -0.82896249744E+02 -0.77769951388E+02  0.20709734745E+02  0.11553720904E+03  0.00000000000E+00 0. -1.
</event>
<event>
 8    1  0.5900800E-006  0.1324874E+03  0.7561462E-02  0.1223811E+00
          1   -1    0    0  501    0  0.00000000000E+00  0.00000000000E+00  0.18662317607E+03  0.18662317607E+03  0.00000000000E+00 0. -1.
         -1   -1    0    0    0  501 -0.00000000000E+00 -0.00000000000E+00 -0.15744877545E+03  0.15744877545E+03  0.00000000000E+00 0.  1.
         23    2    1    2    0    0  0.10824215682E+03 -0.10270021444E+02 -0.57129249676E+02  0.15721031646E+03  0.98129988169E+02 0.  0.
         23    2    1    2    0    0 -0.10824215682E+03  0.10270021444E+02  0.86303650299E+02  0.18686163506E+03  0.12508841972E+03 0.  0.
          5    1    4    4  502    0 -0.10845264936E+03  0.47407920083E+02  0.35210230593E+02  0.12355857226E+03  0.41800000000E+01 0. -1.
         -5    1    4    4    0  502  0.21049254197E+00 -0.37137898639E+02  0.51093419706E+02  0.63303062799E+02  0.41800000000E+01 0. -1.
        -11    1    3    3    0    0  0.31042434169E+02  0.14790661287E+01 -0.71361781170E+02  0.77835237312E+02  0.00000000000E+00 0.  1.
         11    1    3    3    0    0  0.77199722653E+02 -0.11749087572E+02  0.14232531493E+02  0.79375079145E+02  0.00000000000E+00 0. -1.
</event>
<event>
 8    1  0.5900800E-006  0.9049025E+02  0.7561462E-02  0.1301669E+00
         -2   -1    0    0    0  501 -0.00000000000E+00  0.00000000000E+00  0.24777169127E+02  0.24777169127E+02  0.00000000000E+00 0.  1.
          2   -1    0    0  501    0  0.00000000000E+00 -0.00000000000E+00 -0.66539672721E+03  0.66539672721E+03  0.00000000000E+00 0. -1.
         23    2    1    2    0    0  0.14994893833E+02 -0.66258957977E+02 -0.28764075539E+03  0.30956417446E+03  0.92074304768E+02 0.  0.
         23    2    1    2    0    0 -0.14994893833E+02  0.66258957977E+02 -0.35297880269E+03  0.38060972187E+03  0.12511845938E+03 0.  0.
          5    1    4    4  502    0  0.22682268863E+02  0.56003232127E+02 -0.60855882520E+02  0.85858943429E+02  0.41800000000E+01 0.  1.
         -5    1    4    4    0  502 -0.37677162696E+02  0.10255725850E+02 -0.29212292017E+03  0.29475077844E+03  0.41800000000E+01 0.  1.
        -11    1    3    3    0    0 -0.13064720136E+02 -0.42215855224E+02 -0.25918611300E+03  0.26292642796E+03  0.00000000000E+00 0. -1.
         11    1    3    3    0    0  0.28059613970E+02 -0.24043102753E+02 -0.28454642387E+02  0.46637746509E+02  0.00000000000E+00 0.  1.
</event>
<event>
 8    1  0.5900800E-006  0.8155180E+02  0.7561462E-02  0.1324704E+00
         -2   -1    0    0    0  501 -0.00000000000E+00  0.00000000000E+00  0.36005156565E+02  0.36005156565E+02  0.00000000000E+00 0. -1.
          2   -1    0    0  501    0  0.00000000000E+00 -0.00000000000E+00 -0.34726641266E+03  0.34726641266E+03  0.00000000000E+00 0.  1.
         23    2    1    2    0    0  0.23133751385E+02  0.46506791356E+01 -0.12943650334E+03  0.16132154034E+03  0.93348978107E+02 0.  0.
         23    2    1    2    0    0 -0.23133751385E+02 -0.46506791356E+01 -0.18182475275E+03  0.22195002888E+03  0.12507907633E+03 0.  0.
          5    1    4    4  502    0  0.22135679780E+02 -0.74845868965E+01  0.92833992592E+01  0.25488453506E+02  0.41800000000E+01 0.  1.
         -5    1    4    4    0  502 -0.45269431164E+02  0.28339077610E+01 -0.19110815201E+03  0.19646157537E+03  0.41800000000E+01 0.  1.
        -11    1    3    3    0    0 -0.19224523997E+02 -0.32311423099E+02 -0.70332472321E+02  0.79751282424E+02  0.00000000000E+00 0.  1.
         11    1    3    3    0    0  0.42358275381E+02  0.36962102234E+02 -0.59104031016E+02  0.81570257921E+02  0.00000000000E+00 0. -1.
</event>
<event>
 8    1  0.5900800E-006  0.8592593E+02  0.7561462E-02  0.1313029E+00
         -1   -1    0    0    0  501 -0.00000000000E+00  0.00000000000E+00  0.12262986891E+03  0.12262986891E+03  0.00000000000E+00 0.  1.
          1   -1    0    0  501    0  0.00000000000E+00 -0.00000000000E+00 -0.30746149032E+03  0.30746149032E+03  0.00000000000E+00 0. -1.
         23    2    1    2    0    0 -0.41905856452E+02  0.62035451517E+02  0.70471984979E+02  0.13609910253E+03  0.89174923561E+02 0.  0.
         23    2    1    2    0    0  0.41905856452E+02 -0.62035451517E+02 -0.25530360639E+03  0.29399225670E+03  0.12508803906E+03 0.  0.
          5    1    4    4  502    0 -0.94385870997E+01 -0.35238922891E+02 -0.50203606701E+01  0.37061368489E+02  0.41800000000E+01 0. -1.
         -5    1    4    4    0  502  0.51344443551E+02 -0.26796528626E+02 -0.25028324572E+03  0.25693088822E+03  0.41800000000E+01 0. -1.
        -11    1    3    3    0    0 -0.28613277772E+02  0.55065833143E+02 -0.20008799948E+01  0.62088397993E+02  0.00000000000E+00 0. -1.
         11    1    3    3    0    0 -0.13292578680E+02  0.69696183745E+01  0.72472864974E+02  0.74010704535E+02  0.00000000000E+00 0.  1.
</event>
<event>
 8    1  0.5900800E-006  0.2174752E+03  0.7561462E-02  0.1135780E+00
         -1   -1    0    0    0  501 -0.00000000000E+00  0.00000000000E+00  0.11692571632E+03  0.11692571632E+03  0.00000000000E+00 0.  1.
          1   -1    0    0  501    0  0.00000000000E+00 -0.00000000000E+00 -0.48178414661E+03  0.48178414661E+03  0.00000000000E+00 0. -1.
         23    2    1    2    0    0 -0.19872905496E+03  0.11509704727E+02 -0.88936904314E+02  0.23616481438E+03  0.90765279785E+02 0.  0.
         23    2    1    2    0    0  0.19872905496E+03 -0.11509704727E+02 -0.27592152597E+03  0.36254504855E+03  0.12522185571E+03 0.  0.
          5    1    4    4  502    0  0.12194938367E+03 -0.64795158832E+02 -0.13331010282E+03  0.19198729307E+03  0.41800000000E+01 0.  1.
         -5    1    4    4    0  502  0.76779671284E+02  0.53285454105E+02 -0.14261142316E+03  0.17055775549E+03  0.41800000000E+01 0.  1.
        -11    1    3    3    0    0 -0.93603734601E+02  0.25935610209E+02  0.89615503093E+00  0.97134536093E+02  0.00000000000E+00 0.  1.
         11    1    3    3    0    0 -0.10512532036E+03 -0.14425905482E+02 -0.89833059345E+02  0.13903027829E+03  0.00000000000E+00 0. -1.
</event>
<event>
 8    1  0.5900800E-006  0.2035659E+03  0.7561462E-02  0.1146765E+00
          1   -1    0    0  501    0  0.00000000000E+00  0.00000000000E+00  0.10969848441E+04  0.10969848441E+04  0.00000000000E+00 0. -1.
         -1   -1    0    0    0  501 -0.00000000000E+00 -0.00000000000E+00 -0.48785131096E+02  0.48785131096E+02  0.00000000000E+00 0.  1.
         23    2    1    2    0    0  0.57172244114E+02  0.17348453427E+03  0.28054172815E+03  0.34682532624E+03  0.90656475554E+02 0.  0.
         23    2    1    2    0    0 -0.57172244114E+02 -0.17348453427E+03  0.76765798485E+03  0.79894464895E+03  0.12509285054E+03 0.  0.
          5    1    4    4  502    0 -0.29712140597E+02 -0.18776092602E+03  0.66274353353E+03  0.68948055830E+03  0.41800000000E+01 0.  1.
         -5    1    4    4    0  502 -0.27460103517E+02  0.14276391746E+02  0.10491445132E+03  0.10946409065E+03  0.41800000000E+01 0.  1.
        -11    1    3    3    0    0  0.49189215941E+02  0.96048292755E+02  0.22987187555E+03  0.25394080546E+03  0.00000000000E+00 0. -1.
         11    1    3    3    0    0  0.79830281729E+01  0.77436241517E+02  0.50669852599E+02  0.92884520786E+02  0.00000000000E+00 0.  1.
</event>
<event>
 8    1  0.5900800E-006  0.1402858E+03  0.7561462E-02  0.1212945E+00
          1   -1    0    0  501    0  0.00000000000E+00  0.00000000000E+00  0.38995702675E+03  0.38995702675E+03  0.00000000000E+00 0. -1.
         -1   -1    0    0    0  501 -0.00000000000E+00 -0.00000000000E+00 -0.66656349971E+02  0.66656349971E+02  0.00000000000E+00 0.  1.
         23    2    1    2    0    0  0.97772885500E+02  0.32776591854E+02  0.61225653519E+02  0.14845095527E+03  0.87494361872E+02 0.  0.
         23    2    1    2    0    0 -0.97772885500E+02 -0.32776591854E+02  0.26207502326E+03  0.30816242145E+03  0.12508764154E+03 0.  0.
          5    1    4    4  502    0 -0.81404843314E+02 -0.68114332336E+02  0.11760165082E+03  0.15847375638E+03  0.41800000000E+01 0.  1.
         -5    1    4    4    0  502 -0.16368042186E+02  0.35337740482E+02  0.14447337244E+03  0.14968866507E+03  0.41800000000E+01 0.  1.
        -11    1    3    3    0    0  0.22388290591E+02  0.52654911367E+02  0.23755024268E+02  0.61952210813E+02  0.00000000000E+00 0.  1.
         11    1    3    3    0    0  0.75384594909E+02 -0.19878319513E+02  0.37470629251E+02  0.86498744457E+02  0.00000000000E+00 0. -1.
</event>
<event>
 8    1  0.5900800E-006  0.1031466E+03  0.7561462E-02  0.1273815E+00
         -2   -1    0    0    0  501 -0.00000000000E+00  0.00000000000E+00  0.30475461036E+02  0.30475461036E+02  0.00000000000E+00 0. -1.
          2   -1    0    0  501    0  0.00000000000E+00 -0.00000000000E+00 -0.56949592198E+03  0.56949592198E+03  0.00000000000E+00 0.  1.
         23    2    1    2    0    0 -0.61447770453E+02  0.13158259918E+02 -0.15241472996E+03  0.18880234257E+03  0.92016880809E+02 0.  0.
         23    2    1    2    0    0  0.61447770453E+02 -0.13158259918E+02 -0.38660573099E+03  0.41116904045E+03  0.12508805016E+03 0.  0.
          5    1    4    4  502    0 -0.24175171659E+00 -0.44113789622E+02 -0.47000191234E+02  0.64595473949E+02  0.41800000000E+01 0. -1.
         -5    1    4    4    0  502  0.61689522170E+02  0.30955529704E+02 -0.33960553975E+03  0.34657356650E+03  0.41800000000E+01 0. -1.
        -11    1    3    3    0    0  0.82640856426E+01  0.21110284144E+02 -0.19153167074E+01  0.22750992203E+02  0.00000000000E+00 0. -1.
         11    1    3    3    0    0 -0.69711856096E+02 -0.79520242260E+01 -0.15049941325E+03  0.16605135037E+03  0.00000000000E+00 0.  1.
</event>
<event>
 8    1  0.5900800E-006  0.1123598E+03  0.7561462E-02  0.1256261E+00
         -2   -1    0    0    0  501 -0.00000000000E+00  0.00000000000E+00  0.12916167549E+03  0.12916167549E+03  0.00000000000E+00 0.  1.
          2   -1    0    0  501    0  0.00000000000E+00 -0.00000000000E+00 -0.20227794199E+03  0.20227794199E+03  0.00000000000E+00 0. -1.
         23    2    1    2    0    0 -0.78948817856E+02  0.46140094470E+02  0.45218776815E+02  0.13647697598E+03  0.90660923436E+02 0.  0.
         23    2    1    2    0    0  0.78948817856E+02 -0.46140094470E+02 -0.11833504332E+03  0.19496264150E+03  0.12508167310E+03 0.  0.
          5    1    4    4  502    0  0.61658677385E+02 -0.64951565850E+01 -0.13484876456E+03  0.14847774668E+03  0.41800000000E+01 0. -1.
         -5    1    4    4    0  502  0.17290140472E+02 -0.39644937885E+02  0.16513721241E+02  0.46484894823E+02  0.41800000000E+01 0. -1.
        -11    1    3    3    0    0 -0.70951870480E+02  0.66504916377E+02  0.55858567029E+02  0.11214834523E+03  0.00000000000E+00 0.  1.
         11    1    3    3    0    0 -0.79969473767E+01 -0.20364821907E+02 -0.10639790214E+02  0.24328630755E+02  0.00000000000E+00 0. -1.
</event>
<event>
 8    1  0.5900800E-006  0.1130099E+03  0.7561462E-02  0.1255095E+00
         -2   -1    0    0    0  501 -0.00000000000E+00  0.00000000000E+00  0.20233737438E+02  0.20233737438E+02  0.00000000000E+00 0.  1.
          2   -1    0    0  501    0  0.00000000000E+00 -0.00000000000E+00 -0.89419477617E+03  0.89419477617E+03  0.00000000000E+00 0. -1.
         23    2    1    2    0    0  0.81813234876E+00  0.51085695029E+02 -0.19192466395E+03  0.21913601395E+03  0.92601827212E+02 0.  0.
         23    2    1    2    0    0 -0.81813234876E+00 -0.51085695029E+02 -0.68203637479E+03  0.69529249966E+03  0.12509047113E+03 0.  0.
          5    1    4    4  502    0  0.43933287672E+02 -0.60394488117E+02 -0.55883043254E+03  0.56381428919E+03  0.41800000000E+01 0.  1.
         -5    1    4    4    0  502 -0.44751420021E+02  0.93087930885E+01 -0.12320594225E+03  0.13147821047E+03  0.41800000000E+01 0.  1.
        -11    1    3    3    0    0  0.24971067086E+02 -0.18878048604E+02 -0.48213559774E+02  0.57484626263E+02  0.00000000000E+00 0.  1.
         11    1    3    3    0    0 -0.24152934738E+02  0.69963743633E+02 -0.14371110417E+03  0.16165138769E+03  0.00000000000E+00 0. -1.
</event>
<event>
 8    1  0.5900800E-006  0.1121093E+03  0.7561462E-02  0.1256713E+00
         -1   -1    0    0    0  501 -0.00000000000E+00  0.00000000000E+00  0.18950116584E+03  0.18950116584E+03  0.00000000000E+00 0.  1.
          1   -1    0    0  501    0  0.00000000000E+00 -0.00000000000E+00 -0.11337395089E+03  0.11337395089E+03  0.00000000000E+00 0. -1.
         23    2    1    2    0    0  0.93784598227E+01  0.40467842268E+02  0.12696289060E+03  0.16161233955E+03  0.90958072432E+02 0.  0.
         23    2    1    2    0    0 -0.93784598227E+01 -0.40467842268E+02 -0.50835675648E+02  0.14126277718E+03  0.12508119176E+03 0.  0.
          5    1    4    4  502    0  0.26617479557E+02 -0.73424050971E+02 -0.48903523237E+02  0.92242118709E+02  0.41800000000E+01 0.  1.
         -5    1    4    4    0  502 -0.35995939379E+02  0.32956208702E+02 -0.19321524104E+01  0.49020658469E+02  0.41800000000E+01 0.  1.
        -11    1    3    3    0    0  0.23025072445E+02 -0.22739279480E+02  0.62084565953E+02  0.70012299791E+02  0.00000000000E+00 0.  1.
         11    1    3    3    0    0 -0.13646612622E+02  0.63207121749E+02  0.64878324644E+02  0.91600039762E+02  0.00000000000E+00 0. -1.
</event>
<event>
 8    1  0.5900800E-006  0.7624305E+02  0.7561462E-02  0.1340064E+00
         -1   -1    0    0    0  501 -0.00000000000E+00  0.00000000000E+00  0.65011761473E+02  0.65011761473E+02  0.00000000000E+00 0.  1.
          1   -1    0    0  501    0  0.00000000000E+00 -0.00000000000E+00 -0.21245254733E+03  0.21245254733E+03  0.00000000000E+00 0. -1.
         23    2    1    2    0    0  0.89018493339E+01  0.36540492399E+02 -0.39629710132E+02  0.10809287277E+03  0.93268991160E+02 0.  0.
         23    2    1    2    0    0 -0.89018493339E+01 -0.36540492399E+02 -0.10781107572E+03  0.16937143603E+03  0.12509598230E+03 0.  0.
          5    1    4    4  502    0 -0.16476312613E+02 -0.41822300804E+02  0.13902200743E+02  0.47236821521E+02  0.41800000000E+01 0.  1.
         -5    1    4    4    0  502  0.75744632790E+01  0.52818084055E+01 -0.12171327646E+03  0.12213461451E+03  0.41800000000E+01 0.  1.
        -11    1    3    3    0    0  0.11703041460E+02  0.66294529292E+02 -0.14084001628E+02  0.68777066638E+02  0.00000000000E+00 0.  1.
         11    1    3    3    0    0 -0.28011921260E+01 -0.29754036893E+02 -0.25545708504E+02  0.39315806131E+02  0.00000000000E+00 0. -1.
</event>
<event>
 7    1  0.5900800E-006  0.1512667E+03  0.7561462E-02  0.1198925E+00
         -2   -1    0    0    0  501 -0.00000000000E+00  0.00000000000E+00  0.34781304905E+02  0.34781304905E+02  0.00000000000E+00 0.  1.
          2   -1    0    0  501    0  0.00000000000E+00 -0.00000000000E+00 -0.12912913172E+04  0.12912913172E+04  0.00000000000E+00 0. -1.
         23    2    1    2    0    0 -0.63332374432E+02  0.11259978626E+03 -0.20439860072E+03  0.25646636411E+03  0.85478104966E+02 0.  0.
          5    1    1    2  502    0  0.93890876103E+01 -0.10731276560E+03 -0.92630185827E+03  0.93255390711E+03  0.41800000000E+01 0. -1.
         -5    1    1    2    0  502  0.53943286821E+02 -0.52870206534E+01 -0.12580955333E+03  0.13705235091E+03  0.41800000000E+01 0.  1.
        -11    1    3    3    0    0 -0.62657778666E+02  0.56824216459E+02 -0.66126118323E+02  0.10736690518E+03  0.00000000000E+00 0. -1.
         11    1    3    3    0    0 -0.67459576541E+00  0.55775569798E+02 -0.13827248239E+03  0.14909945893E+03  0.00000000000E+00 0.  1.
</event>
<event>
 8    1  0.5900800E-006  0.9383933E+02  0.7561462E-02  0.1293812E+00
          1   -1    0    0  501    0  0.00000000000E+00  0.00000000000E+00  0.71074986009E+02  0.71074986009E+02  0.00000000000E+00 0. -1.
         -1   -1    0    0    0  501 -0.00000000000E+00 -0.00000000000E+00 -0.17281447654E+03  0.17281447654E+03  0.00000000000E+00 0.  1.
         23    2    1    2    0    0 -0.42818571576E+01  0.87035652098E+01 -0.68120442620E+02  0.11399591751E+03  0.90887777831E+02 0.  0.
         23    2    1    2    0    0  0.42818571576E+01 -0.87035652098E+01 -0.33619047912E+02  0.12989354504E+03  0.12509199140E+03 0.  0.
          5    1    4    4  502    0 -0.16368999345E+02  0.40246739377E+02  0.25297955415E+02  0.50450006127E+02  0.41800000000E+01 0.  1.
         -5    1    4    4    0  502  0.20650856503E+02 -0.48950304586E+02 -0.58917003327E+02  0.79443538909E+02  0.41800000000E+01 0.  1.
        -11    1    3    3    0    0 -0.29206440644E+02 -0.31801573947E+02 -0.39301092991E+02  0.58386061615E+02  0.00000000000E+00 0.  1.
         11    1    3    3    0    0  0.24924583486E+02  0.40505139157E+02 -0.28819349629E+02  0.55609855899E+02  0.00000000000E+00 0. -1.
</event>
<event>
 8    1  0.5900800E-006  0.1018196E+03  0.7561462E-02  0.1276516E+00
         -2   -1    0    0    0  501 -0.00000000000E+00  0.00000000000E+00  0.17275841272E+02  0.17275841272E+02  0.00000000000E+00 0. -1.
          2   -1    0    0  501    0  0.00000000000E+00 -0.00000000000E+00 -0.84563576695E+03  0.84563576695E+03  0.00000000000E+00 0.  1.
         23    2    1    2    0    0  0.29013617887E+01 -0.33341452334E+01 -0.17255941712E+03  0.19527287698E+03  0.91297369215E+02 0.  0.
         23    2    1    2    0    0 -0.29013617887E+01  0.33341452334E+01 -0.65580050856E+03  0.66763873123E+03  0.12509050321E+03 0.  0.
          5    1    4    4  502    0  0.34796708028E+02  0.48764228582E+02 -0.22850339719E+03  0.23626264158E+03  0.41800000000E+01 0. -1.
         -5    1    4    4    0  502 -0.37698069817E+02 -0.45430083349E+02 -0.42729711137E+03  0.43137608965E+03  0.41800000000E+01 0. -1.
        -11    1    3    3    0    0 -0.36893274297E+02 -0.19168793713E+02 -0.47720431012E+02  0.63291357046E+02  0.00000000000E+00 0.  1.
         11    1    3    3    0    0  0.39794636086E+02  0.15834648480E+02 -0.12483898610E+03  0.13198151994E+03  0.00000000000E+00 0. -1.
</event>
<event>
 8    1  0.5900800E-006  0.1867360E+03  0.7561462E-02  0.1161439E+00
         -1   -1    0    0    0  501 -0.00000000000E+00  0.00000000000E+00  0.74743913276E+02  0.74743913276E+02  0.00000000000E+00 0.  1.
          1   -1    0    0  501    0  0.00000000000E+00 -0.00000000000E+00 -0.58847691526E+03  0.58847691526E+03  0.00000000000E+00 0. -1.
         23    2    1    2    0    0 -0.95125224095E+02 -0.12578668778E+03 -0.11176549316E+03  0.21366909045E+03  0.91059626999E+02 0.  0.
         23    2    1    2    0    0  0.95125224095E+02  0.12578668778E+03 -0.40196750882E+03  0.44955173808E+03  0.12509111874E+03 0.  0.
          5    1    4    4  502    0  0.10904379549E+03  0.46378712323E+02 -0.20738620018E+03  0.23888918501E+03  0.41800000000E+01 0.  1.
         -5    1    4    4    0  502 -0.13918571390E+02  0.79407975457E+02 -0.19458130864E+03  0.21066255307E+03  0.41800000000E+01 0.  1.
        -11    1    3    3    0    0 -0.87909377761E+01 -0.71830286000E+02 -0.78019352265E+02  0.10641376744E+03  0.00000000000E+00 0.  1.
         11    1    3    3    0    0 -0.86334286319E+02 -0.53956401780E+02 -0.33746140899E+02  0.10725532301E+03  0.00000000000E+00 0. -1.
</event>
<event>
 8    1  0.5900800E-006  0.1232330E+03  0.7561462E-02  0.1237857E+00
          1   -1    0    0  501    0  0.00000000000E+00  0.00000000000E+00  0.50358989387E+03  0.50358989387E+03  0.00000000000E+00 0. -1.
         -1   -1    0    0    0  501 -0.00000000000E+00 -0.00000000000E+00 -0.37965332458E+02  0.37965332458E+02  0.00000000000E+00 0.  1.
         23    2    1    2    0    0 -0.55926697193E+02  0.62734818841E+02  0.17157778271E+03  0.21114225233E+03  0.89881378735E+02 0.  0.
         23    2    1    2    0    0  0.55926697193E+02 -0.62734818841E+02  0.29404677870E+03  0.33041297400E+03  0.12508306189E+03 0.  0.
          5    1    4    4  502    0  0.72696169395E+02 -0.39901796217E+00  0.86764291876E+02  0.11327138652E+03  0.41800000000E+01 0. -1.
         -5    1    4    4    0  502 -0.16769472202E+02 -0.62335800878E+02  0.20728248682E+03  0.21714158748E+03  0.41800000000E+01 0. -1.
        -11    1    3    3    0    0 -0.64708166170E+02  0.71583171180E+02  0.17350021030E+03  0.19852863808E+03  0.00000000000E+00 0. -1.
         11    1    3    3    0    0  0.87814689772E+01 -0.88483523398E+01 -0.19224275839E+01  0.12613614246E+02  0.00000000000E+00 0.  1.
</event>
<event>
 8    1  0.5900800E-006  0.7008480E+02  0.7561462E-02  0.1359805E+00
          1   -1    0    0  501    0  0.00000000000E+00  0.00000000000E+00  0.10528951067E+03  0.10528951067E+03  0.00000000000E+00 0. -1.
         -1   -1    0    0    0  501 -0.00000000000E+00 -0.00000000000E+00 -0.14015687952E+03  0.14015687952E+03  0.00000000000E+00 0.  1.
         23    2    1    2    0    0 -0.11173013552E+02 -0.41113458634E+02 -0.43331308074E+02  0.11302848654E+03  0.95303115358E+02 0.  0.
         23    2    1    2    0    0  0.11173013552E+02  0.41113458634E+02  0.84639392215E+01  0.13241790365E+03  0.12509080792E+03 0.  0.
          5    1    4    4  502    0  0.10184630424E+02  0.65309756428E+02  0.50797692216E+02  0.83468370752E+02  0.41800000000E+01 0.  1.
         -5    1    4    4    0  502  0.98838312844E+00 -0.24196297793E+02 -0.42333752995E+02  0.48949532896E+02  0.41800000000E+01 0.  1.
        -11    1    3    3    0    0  0.33206610803E+01 -0.32153009285E+02 -0.72425622334E+02  0.79311497065E+02  0.00000000000E+00 0.  1.
         11    1    3    3    0    0 -0.14493674633E+02 -0.89604493490E+01  0.29094314260E+02  0.33716989473E+02  0.00000000000E+00 0. -1.
</event>
<event>
 8    1  0.5900800E-006  0.8468849E+02  0.7561462E-02  0.1316249E+00
         -1   -1    0    0    0  501 -0.00000000000E+00  0.00000000000E+00  0.14014205265E+03  0.14014205265E+03  0.00000000000E+00 0.  1.
          1   -1    0    0  501    0  0.00000000000E+00 -0.00000000000E+00 -0.10939265474E+03  0.10939265474E+03  0.00000000000E+00 0. -1.
         23    2    1    2    0    0  0.30186483596E+02 -0.22469792250E+02  0.61770089700E+02  0.11527294855E+03  0.89756299672E+02 0.  0.
         23    2    1    2    0    0 -0.30186483596E+02  0.22469792250E+02 -0.31020691785E+02  0.13426175883E+03  0.12509125153E+03 0.  0.
          5    1    4    4  502    0  0.21901677349E+02  0.54612037146E+02 -0.41364617468E+02  0.72046249383E+02  0.41800000000E+01 0. -1.
         -5    1    4    4    0  502 -0.52088160945E+02 -0.32142244896E+02  0.10343925683E+02  0.62215509450E+02  0.41800000000E+01 0. -1.
        -11    1    3    3    0    0  0.15955543561E+02 -0.29216803315E+02  0.82659847147E+02  0.89111454352E+02  0.00000000000E+00 0.  1.
         11    1    3    3    0    0  0.14230940035E+02  0.67470110648E+01 -0.20889757448E+02  0.26161494200E+02  0.00000000000E+00 0. -1.
</event>
<event>
 8    1  0.5900800E-006  0.9627386E+02  0.7561462E-02  0.1288333E+00
         -1   -1    0    0    0  501 -0.00000000000E+00  0.00000000000E+00  0.15408094918E+03  0.15408094918E+03  0.00000000000E+00 0. -1.
          1   -1    0    0  501    0  0.00000000000E+00 -0.00000000000E+00 -0.11876520640E+03  0.11876520640E+03  0.00000000000E+00 0.  1.
         23    2    1    2    0    0 -0.38022551549E+02 -0.45202699369E+02  0.70871183218E+02  0.13001453015E+03  0.91608160022E+02 0.  0.
         23    2    1    2    0    0  0.38022551549E+02  0.45202699369E+02 -0.35555440437E+02  0.14283162544E+03  0.12509070879E+03 0.  0.
          5    1    4    4  502    0 -0.11736927877E+02  0.28247675380E+02 -0.72261138433E+02  0.78580093967E+02  0.41800000000E+01 0.  1.
         -5    1    4    4    0  502  0.49759479426E+02  0.16955023990E+02  0.36705697995E+02  0.64251531472E+02  0.41800000000E+01 0.  1.
        -11    1    3    3    0    0  0.30530292717E+02 -0.12581221364E+02  0.23488694858E+02  0.40522890945E+02  0.00000000000E+00 0. -1.
         11    1    3    3    0    0 -0.68552844266E+02 -0.32621478006E+02  0.47382488360E+02  0.89491639204E+02  0.00000000000E+00 0.  1.
</event>
<event>
 8    1  0.5900800E-006  0.6402718E+02  0.7561462E-02  0.1381669E+00
         -2   -1    0    0    0  501 -0.00000000000E+00  0.00000000000E+00  0.58911082000E+02  0.58911082000E+02  0.00000000000E+00 0.  1.
          2   -1    0    0  501    0  0.00000000000E+00 -0.00000000000E+00 -0.23825377136E+03  0.23825377136E+03  0.00000000000E+00 0. -1.
         23    2    1    2    0    0  0.39094148602E+02 -0.27487286973E+02 -0.89611918740E+02  0.13597128185E+03  0.90410121716E+02 0.  0.
         23    2    1    2    0    0 -0.39094148602E+02  0.27487286973E+02 -0.89730770616E+02  0.16119357150E+03  0.12509137819E+03 0.  0.
          5    1    4    4  502    0 -0.43375742062E+01 -0.17369279450E+02 -0.10144748643E+03  0.10309981242E+03  0.41800000000E+01 0. -1.
         -5    1    4    4    0  502 -0.34756574396E+02  0.44856566423E+02  0.11716715811E+02  0.58093759083E+02  0.41800000000E+01 0. -1.
        -11    1    3    3    0    0  0.29665339050E+02 -0.73913813874E+01  0.11339990806E+02  0.32607671662E+02  0.00000000000E+00 0.  1.
         11    1    3    3    0    0  0.94288095520E+01 -0.20095905586E+02 -0.10095190955E+03  0.10336361019E+03  0.00000000000E+00 0. -1.
</event>
<event>
 8    1  0.5900800E-006  0.1785391E+03  0.7561462E-02  0.1169224E+00
          1   -1    0    0  501    0  0.00000000000E+00  0.00000000000E+00  0.34646312658E+03  0.34646312658E+03  0.00000000000E+00 0. -1.
         -1   -1    0    0    0  501 -0.00000000000E+00 -0.00000000000E+00 -0.11256537128E+03  0.11256537128E+03  0.00000000000E+00 0.  1.
         23    2    1    2    0    0 -0.14336732619E+03  0.75005203824E+02  0.75746616999E+02  0.20049612525E+03  0.91000963908E+02 0.  0.
         23    2    1    2    0    0  0.14336732619E+03 -0.75005203824E+02  0.15815113830E+03  0.25853237261E+03  0.12508890567E+03 0.  0.
          5    1    4    4  502    0  0.14887863529E+03 -0.67627373391E+02  0.17458254902E+03  0.23923805821E+03  0.41800000000E+01 0. -1.
         -5    1    4    4    0  502 -0.55113090934E+01 -0.73778304329E+01 -0.16431410718E+02  0.19294314396E+02  0.41800000000E+01 0. -1.
        -11    1    3    3    0    0 -0.22918338689E+02  0.57218586948E+02  0.11053342949E+02  0.62621029462E+02  0.00000000000E+00 0.  1.
         11    1    3    3    0    0 -0.12044898750E+03  0.17786616876E+02  0.64693274049E+02  0.13787509578E+03  0.00000000000E+00 0. -1.
</event>
<event>
 8    1  0.5900800E-006  0.1032390E+03  0.7561462E-02  0.1273629E+00
          2   -1    0    0  501    0  0.00000000000E+00  0.00000000000E+00  0.73284207123E+03  0.73284207123E+03  0.00000000000E+00 0.  1.
         -2   -1    0    0    0  501 -0.00000000000E+00 -0.00000000000E+00 -0.39827931323E+02  0.39827931323E+02  0.00000000000E+00 0. -1.
         23    2    1    2    0    0 -0.59018992030E+02  0.22190633019E+02  0.67332453447E+02  0.13149443650E+03  0.93709454848E+02 0.  0.
         23    2    1    2    0    0  0.59018992030E+02 -0.22190633019E+02  0.62568168646E+03  0.64117556606E+03  0.12511142283E+03 0.  0.
          5    1    4    4  502    0  0.32087949331E+02  0.24990406115E+02  0.58435660545E+02  0.71318691192E+02  0.41800000000E+01 0.  1.
         -5    1    4    4    0  502  0.26931042700E+02 -0.47181039134E+02  0.56724602592E+03  0.56985687487E+03  0.41800000000E+01 0.  1.
        -11    1    3    3    0    0 -0.63713841209E+02  0.51188926051E+02  0.38539099121E+02  0.90360510584E+02  0.00000000000E+00 0.  1.
         11    1    3    3    0    0  0.46948491788E+01 -0.28998293032E+02  0.28793354325E+02  0.41133925911E+02  0.00000000000E+00 0. -1.
</event>
<event>
 8    1  0.5900800E-006  0.1687711E+03  0.7561462E-02  0.1179135E+00
          2   -1    0    0  501    0  0.00000000000E+00  0.00000000000E+00  0.28058211048E+03  0.28058211048E+03  0.00000000000E+00 0.  1.
         -2   -1    0    0    0  501 -0.00000000000E+00 -0.00000000000E+00 -0.15534771320E+03  0.15534771320E+03  0.00000000000E+00 0. -1.
         23    2    1    2    0    0 -0.18721436228E+00  0.13268559707E+03 -0.60268153854E+02  0.17580615422E+03  0.98336416314E+02 0.  0.
         23    2    1    2    0    0  0.18721436228E+00 -0.13268559707E+03  0.18550255114E+03  0.26012366946E+03  0.12509046413E+03 0.  0.
          5    1    4    4  502    0  0.44504553887E+02 -0.12170815484E+03  0.10241693219E+03  0.16522781446E+03  0.41800000000E+01 0.  1.
         -5    1    4    4    0  502 -0.44317339525E+02 -0.10977442230E+02  0.83085618948E+02  0.94895855001E+02  0.41800000000E+01 0.  1.
        -11    1    3    3    0    0 -0.24339879340E+02  0.13554769957E+03 -0.62789192083E+02  0.15135419131E+03  0.00000000000E+00 0. -1.
         11    1    3    3    0    0  0.24152664977E+02 -0.28621025015E+01  0.25210382290E+01  0.24451962907E+02  0.00000000000E+00 0.  1.
</event>
<event>
 8    1  0.5900800E-006  0.1287075E+03  0.7561462E-02  0.1229386E+00
         -1   -1    0    0    0  501 -0.00000000000E+00  0.00000000000E+00  0.30370730768E+03  0.30370730768E+03  0.00000000000E+00 0.  1.
          1   -1    0    0  501    0  0.00000000000E+00 -0.00000000000E+00 -0.64775402703E+02  0.64775402703E+02  0.00000000000E+00 0. -1.
         23    2    1    2    0    0  0.49597022731E+02 -0.69710979390E+02  0.13469908489E+03  0.18454707593E+03  0.92705417601E+02 0.  0.
         23    2    1    2    0    0 -0.49597022731E+02  0.69710979390E+02  0.10423282008E+03  0.18393563445E+03  0.12509337123E+03 0.  0.
          5    1    4    4  502    0  0.36873533757E+02 -0.45871403029E+01  0.28280272797E+02  0.46882252264E+02  0.41800000000E+01 0.  1.
         -5    1    4    4    0  502 -0.86470556488E+02  0.74298119692E+02  0.75952547281E+02  0.13705338218E+03  0.41800000000E+01 0.  1.
        -11    1    3    3    0    0 -0.13777503876E+02 -0.24443735040E+02  0.91034639049E+02  0.95260806749E+02  0.00000000000E+00 0.  1.
         11    1    3    3    0    0  0.63374526607E+02 -0.45267244350E+02  0.43664445846E+02  0.89286269184E+02  0.00000000000E+00 0. -1.
</event>
<event>
 8    1  0.5900800E-006  0.1273973E+03  0.7561462E-02  0.1231370E+00
          2   -1    0    0  501    0  0.00000000000E+00  0.00000000000E+00  0.24231146137E+03  0.24231146137E+03  0.00000000000E+00 0. -1.
         -2   -1    0    0    0  501 -0.00000000000E+00 -0.00000000000E+00 -0.94813954278E+02  0.94813954278E+02  0.00000000000E+00 0.  1.
         23    2    1    2    0    0 -0.50050173746E+02  0.87693351113E+02  0.36096273886E+02  0.14154141638E+03  0.92389868715E+02 0.  0.
         23    2    1    2    0    0  0.50050173746E+02 -0.87693351113E+02  0.11140123321E+03  0.19558399927E+03  0.12509085613E+03 0.  0.
          5    1    4    4  502    0 -0.28333635777E+02 -0.46112102762E+01  0.66916705888E+02  0.72934053113E+02  0.41800000000E+01 0. -1.
         -5    1    4    4    0  502  0.78383809523E+02 -0.83082140837E+02  0.44484527321E+02  0.12264994616E+03  0.41800000000E+01 0. -1.
        -11    1    3    3    0    0  0.93770567581E+01  0.10721158404E+02 -0.23506658710E+02  0.27485185731E+02  0.00000000000E+00 0.  1.
         11    1    3    3    0    0 -0.59427230504E+02  0.76972192710E+02  0.59602932597E+02  0.11405623065E+03  0.00000000000E+00 0. -1.
</event>
<event>
 8    1  0.5900800E-006  0.1536310E+03  0.7561462E-02  0.1196081E+00
          1   -1    0    0  501    0  0.00000000000E+00  0.00000000000E+00  0.61659503837E+03  0.61659503837E+03  0.00000000000E+00 0. -1.
         -1   -1    0    0    0  501 -0.00000000000E+00 -0.00000000000E+00 -0.59274428393E+02  0.59274428393E+02  0.00000000000E+00 0.  1.
         23    2    1    2    0    0 -0.13503664903E+03 -0.26093637634E+02  0.12992394604E+03  0.20978748922E+03  0.90635447659E+02 0.  0.
         23    2    1    2    0    0  0.13503664903E+03  0.26093637634E+02  0.42739666393E+03  0.46608197754E+03  0.12509487174E+03 0.  0.
          5    1    4    4  502    0  0.60992948003E+02 -0.14466885425E+02  0.33505394571E+03  0.34089301755E+03  0.41800000000E+01 0.  1.
         -5    1    4    4    0  502  0.74043701031E+02  0.40560523059E+02  0.92342718220E+02  0.12518895998E+03  0.41800000000E+01 0.  1.
        -11    1    3    3    0    0 -0.16858291316E+02 -0.37565691775E+02  0.57453067014E+02  0.70684072421E+02  0.00000000000E+00 0.  1.
         11    1    3    3    0    0 -0.11817835772E+03  0.11472054142E+02  0.72470879028E+02  0.13910341680E+03  0.00000000000E+00 0. -1.
</event>
<event>
 8    1  0.5900800E-006  0.1783867E+03  0.7561462E-02  0.1169374E+00
          1   -1    0    0  501    0  0.00000000000E+00  0.00000000000E+00  0.11216056370E+04  0.11216056370E+04  0.00000000000E+00 0. -1.
         -1   -1    0    0    0  501 -0.00000000000E+00 -0.00000000000E+00 -0.38187783801E+02  0.38187783801E+02  0.00000000000E+00 0.  1.
         23    2    1    2    0    0  0.10511414114E+03  0.12616133110E+03  0.33980691730E+03  0.38806263454E+03  0.90322772050E+02 0.  0.
         23    2    1    2    0    0 -0.10511414114E+03 -0.12616133110E+03  0.74361093594E+03  0.77173078631E+03  0.12508204646E+03 0.  0.
          5    1    4    4  502    0 -0.36814924608E+01 -0.26658200047E+02  0.38516806126E+03  0.38612966842E+03  0.41800000000E+01 0. -1.
         -5    1    4    4    0  502 -0.10143264868E+03 -0.99503131048E+02  0.35844287468E+03  0.38560111789E+03  0.41800000000E+01 0. -1.
        -11    1    3    3    0    0  0.10174879208E+03  0.54078639963E+02  0.20584502036E+03  0.23590143788E+03  0.00000000000E+00 0.  1.
         11    1    3    3    0    0  0.33653490553E+01  0.72082691132E+02  0.13396189695E+03  0.15216119666E+03  0.00000000000E+00 0. -1.
</event>
<event>
 8    1  0.5900800E-006  0.1507300E+03  0.7561462E-02  0.1199579E+00
          2   -1    0    0  501    0  0.00000000000E+00  0.00000000000E+00  0.18658433579E+03  0.18658433579E+03  0.00000000000E+00 0. -1.
         -2   -1    0    0    0  501 -0.00000000000E+00 -0.00000000000E+00 -0.13239181665E+03  0.13239181665E+03  0.00000000000E+00 0.  1.
         23    2    1    2    0    0 -0.23718188806E+02 -0.10643181020E+03 -0.15372916820E+02  0.13903946910E+03  0.84884419614E+02 0.  0.
         23    2    1    2    0    0  0.23718188806E+02  0.10643181020E+03  0.69565435962E+02  0.17993668333E+03  0.12509027711E+03 0.  0.
          5    1    4    4  502    0 -0.23286077927E+02  0.11399874728E+03  0.60799268831E+02  0.13134679021E+03  0.41800000000E+01 0.  1.
         -5    1    4    4    0  502  0.47004266733E+02 -0.75669370834E+01  0.87661671306E+01  0.48589893127E+02  0.41800000000E+01 0.  1.
        -11    1    3    3    0    0 -0.14638044646E+02 -0.12001314779E+03 -0.81501898845E+01  0.12117695155E+03  0.00000000000E+00 0. -1.
         11    1    3    3    0    0 -0.90801441599E+01  0.13581337588E+02 -0.72227269354E+01  0.17862517544E+02  0.00000000000E+00 0.  1.
</event>
<event>
 8    1  0.5900800E-006  0.8896665E+02  0.7561462E-02  0.1305374E+00
         -1   -1    0    0    0  501 -0.00000000000E+00  0.00000000000E+00  0.30176628461E+02  0.30176628461E+02  0.00000000000E+00 0. -1.
          1   -1    0    0  501    0  0.00000000000E+00 -0.00000000000E+00 -0.54437533537E+03  0.54437533537E+03  0.00000000000E+00 0.  1.
         23    2    1    2    0    0 -0.33326053006E+01 -0.68163664370E+00 -0.73864380382E+02  0.11678257350E+03  0.90391658336E+02 0.  0.
         23    2    1    2    0    0  0.33326053006E+01  0.68163664370E+00 -0.44033432653E+03  0.45776939034E+03  0.12508766815E+03 0.  0.
          5    1    4    4  502    0 -0.42049189029E+02 -0.20527034397E+02 -0.35966640291E+03  0.36272150091E+03  0.41800000000E+01 0. -1.
         -5    1    4    4    0  502  0.45381794329E+02  0.21208671041E+02 -0.80667923622E+02  0.95047889431E+02  0.41800000000E+01 0. -1.
        -11    1    3    3    0    0 -0.40687348913E+01 -0.40579581850E+02 -0.63644033072E+02  0.75589814211E+02  0.00000000000E+00 0.  1.
         11    1    3    3    0    0  0.73612959066E+00  0.39897945207E+02 -0.10220347310E+02  0.41192759286E+02  0.00000000000E+00 0. -1.
</event>
<event>
 8    1  0.5900800E-006  0.1029556E+03  0.7561462E-02  0.1274201E+00
          1   -1    0    0  501    0  0.00000000000E+00  0.00000000000E+00  0.45700784515E+03  0.45700784515E+03  0.00000000000E+00 0. -1.
         -1   -1    0    0    0  501 -0.00000000000E+00 -0.00000000000E+00 -0.38779191841E+02  0.38779191841E+02  0.00000000000E+00 0.  1.
         23    2    1    2    0    0  0.23271323657E+02 -0.73175521401E+02  0.13620474504E+03  0.17785395661E+03  0.84758986991E+02 0.  0.
         23    2    1    2    0    0 -0.23271323657E+02  0.73175521401E+02  0.28202390828E+03  0.31793308038E+03  0.12509095621E+03 0.  0.
          5    1    4    4  502    0  0.92154917833E+01 -0.11833025876E+02  0.18190525430E+03  0.18257036927E+03  0.41800000000E+01 0.  1.
         -5    1    4    4    0  502 -0.32486815440E+02  0.85008547277E+02  0.10011865397E+03  0.13536271112E+03  0.41800000000E+01 0.  1.
        -11    1    3    3    0    0 -0.21814993844E+02 -0.26880373672E+02  0.95252586905E+02  0.10134842750E+03  0.00000000000E+00 0. -1.
         11    1    3    3    0    0  0.45086317501E+02 -0.46295147729E+02  0.40952158132E+02  0.76505529112E+02  0.00000000000E+00 0.  1.
</event>
<event>
 7    1  0.5900800E-006  0.1341288E+03  0.7561462E-02  0.1221455E+00
         -1   -1    0    0    0  501 -0.00000000000E+00  0.00000000000E+00  0.14693929002E+03  0.14693929002E+03  0.00000000000E+00 0.  1.
          1   -1    0    0  501    0  0.00000000000E+00 -0.00000000000E+00 -0.30660575869E+03  0.30660575869E+03  0.00000000000E+00 0. -1.
         23    2    1    2    0    0 -0.66143896818E+02  0.21322864940E+02  0.67216618361E+02  0.13794862618E+03  0.98397510258E+02 0.  0.
          5    1    1    2  502    0  0.24953937367E+02  0.60850121986E+02 -0.21247688229E+03  0.22246198382E+03  0.41800000000E+01 0. -1.
         -5    1    1    2    0  502  0.41189959451E+02 -0.82172986925E+02 -0.14406204738E+02  0.93134438715E+02  0.41800000000E+01 0.  1.
        -11    1    3    3    0    0 -0.18574250671E+02 -0.33164982227E+02 -0.16892440126E+01  0.38049604196E+02  0.00000000000E+00 0.  1.
         11    1    3    3    0    0 -0.47569646147E+02  0.54487847167E+02  0.68905862374E+02  0.99899021982E+02  0.00000000000E+00 0. -1.
</event>
<event>
 8    1  0.5900800E-006  0.1042500E+03  0.7561462E-02  0.1271604E+00
         -4   -1    0    0    0  501 -0.00000000000E+00  0.00000000000E+00  0.22860305982E+02  0.22860305982E+02  0.00000000000E+00 0.  1.
          4   -1    0    0  501    0  0.00000000000E+00 -0.00000000000E+00 -0.60912534475E+03  0.60912534475E+03  0.00000000000E+00 0. -1.
         23    2    1    2    0    0 -0.47226601113E+02  0.67935037402E+00 -0.26376839637E+03  0.28286840403E+03  0.90608794851E+02 0.  0.
         23    2    1    2    0    0  0.47226601113E+02 -0.67935037402E+00 -0.32249664240E+03  0.34911724670E+03  0.12509178318E+03 0.  0.
          5    1    4    4  502    0  0.75636467432E+02  0.37762830511E+02 -0.22644622331E+03  0.24174836303E+03  0.41800000000E+01 0.  1.
         -5    1    4    4    0  502 -0.28409866319E+02 -0.38442180885E+02 -0.96050419084E+02  0.10736888368E+03  0.41800000000E+01 0.  1.
        -11    1    3    3    0    0  0.89200721374E+01 -0.15112752800E+02 -0.59425964002E+01  0.18527747735E+02  0.00000000000E+00 0.  1.
         11    1    3    3    0    0 -0.56146673251E+02  0.15792103174E+02 -0.25782579997E+03  0.26434065630E+03  0.00000000000E+00 0. -1.
</event>
<event>
 8    1  0.5900800E-006  0.1090492E+03  0.7561462E-02  0.1262341E+00
          2   -1    0    0  501    0  0.00000000000E+00  0.00000000000E+00  0.58717381577E+03  0.58717381577E+03  0.00000000000E+00 0. -1.
         -2   -1    0    0    0  501 -0.00000000000E+00 -0.00000000000E+00 -0.22495841918E+02  0.22495841918E+02  0.00000000000E+00 0.  1.
         23    2    1    2    0    0  0.10906051467E+02  0.32990404188E+02  0.23756553276E+03  0.25773828662E+03  0.93724774248E+02 0.  0.
         23    2    1    2    0    0 -0.10906051467E+02 -0.32990404188E+02  0.32711244109E+03  0.35193137106E+03  0.12508330063E+03 0.  0.
          5    1    4    4  502    0 -0.63147557825E+02  0.24899301887E+00  0.21083776506E+03  0.22013112373E+03  0.41800000000E+01 0. -1.
         -5    1    4    4    0  502  0.52241506358E+02 -0.33239397207E+02  0.11627467602E+03  0.13180024734E+03  0.41800000000E+01 0. -1.
        -11    1    3    3    0    0  0.15627386434E+01 -0.29512708589E+02  0.12692732032E+03  0.13032262568E+03  0.00000000000E+00 0. -1.
         11    1    3    3    0    0  0.93433128236E+01  0.62503112777E+02  0.11063821244E+03  0.12741566094E+03  0.00000000000E+00 0.  1.
</event>
<event>
 8    1  0.5900800E-006  0.1059036E+03  0.7561462E-02  0.1268349E+00
          1   -1    0    0  501    0  0.00000000000E+00  0.00000000000E+00  0.66809720087E+03  0.66809720087E+03  0.00000000000E+00 0. -1.
         -1   -1    0    0    0  501 -0.00000000000E+00 -0.00000000000E+00 -0.41999530920E+02  0.41999530920E+02  0.00000000000E+00 0.  1.
         23    2    1    2    0    0  0.18407366752E+01 -0.45011692751E+02  0.36910414427E+02  0.10609445980E+03  0.88680408834E+02 0.  0.
         23    2    1    2    0    0 -0.18407366752E+01  0.45011692751E+02  0.58918725552E+03  0.60400227199E+03  0.12509069391E+03 0.  0.
          5    1    4    4  502    0  0.19678038824E+02  0.79317069817E+02  0.26712909521E+03  0.27938118885E+03  0.41800000000E+01 0. -1.
         -5    1    4    4    0  502 -0.21518775499E+02 -0.34305377066E+02  0.32205816032E+03  0.32462108314E+03  0.41800000000E+01 0. -1.
        -11    1    3    3    0    0 -0.35100137817E+02 -0.37884861830E+02 -0.23745065618E+01  0.51700297021E+02  0.00000000000E+00 0.  1.
         11    1    3    3    0    0  0.36940874492E+02 -0.71268309212E+01  0.39284920989E+02  0.54394162778E+02  0.00000000000E+00 0. -1.
</event>
<event>
 8    1  0.5900800E-006  0.1065328E+03  0.7561462E-02  0.1267129E+00
         -2   -1    0    0    0  501 -0.00000000000E+00  0.00000000000E+00  0.69086941887E+02  0.69086941887E+02  0.00000000000E+00 0.  1.
          2   -1    0    0  501    0  0.00000000000E+00 -0.00000000000E+00 -0.19734264300E+03  0.19734264300E+03  0.00000000000E+00 0. -1.
         23    2    1    2    0    0  0.39466003376E+02 -0.17616093941E+02 -0.45295109687E+02  0.11022828241E+03  0.90723398816E+02 0.  0.
         23    2    1    2    0    0 -0.39466003376E+02  0.17616093941E+02 -0.82960591429E+02  0.15620130248E+03  0.12509394461E+03 0.  0.
          5    1    4    4  502    0 -0.82626730009E+02 -0.51311073214E+01 -0.45575005479E+02  0.94594176875E+02  0.41800000000E+01 0.  1.
         -5    1    4    4    0  502  0.43160726633E+02  0.22747201262E+02 -0.37385585950E+02  0.61607125607E+02  0.41800000000E+01 0.  1.
        -11    1    3    3    0    0  0.54777653154E+02  0.37674813261E+01 -0.58979068974E+02  0.80581113033E+02  0.00000000000E+00 0. -1.
         11    1    3    3    0    0 -0.15311649778E+02 -0.21383575267E+02  0.13683959287E+02  0.29647169374E+02  0.00000000000E+00 0.  1.
</event>
<event>
 8    1  0.5900800E-006  0.1425867E+03  0.7561462E-02  0.1209890E+00
         -1   -1    0    0    0  501 -0.00000000000E+00  0.00000000000E+00  0.28202744831E+02  0.28202744831E+02  0.00000000000E+00 0.  1.
          1   -1    0    0  501    0  0.00000000000E+00 -0.00000000000E+00 -0.79011366606E+03  0.79011366606E+03  0.00000000000E+00 0. -1.
         23    2    1    2    0    0  0.76170429483E+02 -0.61780581387E+02 -0.26602630927E+03  0.29757774695E+03  0.90353437629E+02 0.  0.
         23    2    1    2    0    0 -0.76170429483E+02  0.61780581387E+02 -0.49588461196E+03  0.52073866394E+03  0.12509369761E+03 0.  0.
          5    1    4    4  502    0  0.21967867575E+02 -0.15234275078E+02 -0.16283024457E+03  0.16506311305E+03  0.41800000000E+01 0. -1.
         -5    1    4    4    0  502 -0.98138297058E+02  0.77014856465E+02 -0.33305436738E+03  0.35567555089E+03  0.41800000000E+01 0. -1.
        -11    1    3    3    0    0  0.81921582168E+02 -0.11543701637E+02 -0.16923843744E+03  0.18837741738E+03  0.00000000000E+00 0.  1.
         11    1    3    3    0    0 -0.57511526851E+01 -0.50236879749E+02 -0.96787871834E+02  0.10920032957E+03  0.00000000000E+00 0. -1.
</event>
<event>
 8    1  0.5900800E-006  0.1406577E+03  0.7561462E-02  0.1212447E+00
          1   -1    0    0  501    0  0.00000000000E+00  0.00000000000E+00  0.11135545761E+03  0.11135545761E+03  0.00000000000E+00 0. -1.
         -1   -1    0    0    0  501 -0.00000000000E+00 -0.00000000000E+00 -0.33574948192E+03  0.33574948192E+03  0.00000000000E+00 0.  1.
         23    2    1    2    0    0  0.30048646090E+02  0.11926527088E+03 -0.22510185928E+03  0.27167764024E+03  0.89502889242E+02 0.  0.
         23    2    1    2    0    0 -0.30048646090E+02 -0.11926527088E+03  0.70783497634E+00  0.17542729929E+03  0.12508841008E+03 0.  0.
          5    1    4    4  502    0  0.17354504607E+02 -0.10223397645E+01  0.38528307306E+02  0.42475014686E+02  0.41800000000E+01 0. -1.
         -5    1    4    4    0  502 -0.47403150697E+02 -0.11824293112E+03 -0.37820472330E+02  0.13295228461E+03  0.41800000000E+01 0. -1.
        -11    1    3    3    0    0 -0.17009320083E+02  0.44430344101E+02 -0.26895230582E+02  0.54650945781E+02  0.00000000000E+00 0.  1.
         11    1    3    3    0    0  0.47057966173E+02  0.74834926780E+02 -0.19820662870E+03  0.21702669446E+03  0.00000000000E+00 0. -1.
</event>
<event>
 8    1  0.5900800E-006  0.1506411E+03  0.7561462E-02  0.1199687E+00
          1   -1    0    0  501    0  0.00000000000E+00  0.00000000000E+00  0.14360957631E+03  0.14360957631E+03  0.00000000000E+00 0. -1.
         -1   -1    0    0    0  501 -0.00000000000E+00 -0.00000000000E+00 -0.23576250345E+03  0.23576250345E+03  0.00000000000E+00 0.  1.
         23    2    1    2    0    0  0.10836223423E+03 -0.56083679402E+02 -0.13030658808E+03  0.20051391964E+03  0.91314140019E+02 0.  0.
         23    2    1    2    0    0 -0.10836223423E+03  0.56083679402E+02  0.38153660946E+02  0.17885816013E+03  0.12508711643E+03 0.  0.
          5    1    4    4  502    0 -0.18706585017E+02 -0.24026731972E+02 -0.27988566517E+02  0.41569849987E+02  0.41800000000E+01 0. -1.
         -5    1    4    4    0  502 -0.89655649217E+02  0.80110411373E+02  0.66142227463E+02  0.13728831014E+03  0.41800000000E+01 0. -1.
        -11    1    3    3    0    0  0.67921126941E+02 -0.78659176514E+02 -0.73863153357E+02  0.12750023905E+03  0.00000000000E+00 0.  1.
         11    1    3    3    0    0  0.40441107294E+02  0.22575497113E+02 -0.56443434722E+02  0.73013680583E+02  0.00000000000E+00 0. -1.
</event>
<event>
 8    1  0.5900800E-006  0.1002216E+03  0.7561462E-02  0.1279831E+00
         -1   -1    0    0    0  501 -0.00000000000E+00  0.00000000000E+00  0.11285190322E+03  0.11285190322E+03  0.00000000000E+00 0.  1.
          1   -1    0    0  501    0  0.00000000000E+00 -0.00000000000E+00 -0.11998934977E+03  0.11998934977E+03  0.00000000000E+00 0. -1.
         23    2    1    2    0    0  0.22174290008E+02  0.35067485705E+02 -0.55695785499E+01  0.10103846061E+03  0.91958265676E+02 0.  0.
         23    2    1    2    0    0 -0.22174290008E+02 -0.35067485705E+02 -0.15678679967E+01  0.13180279239E+03  0.12509232662E+03 0.  0.
          5    1    4    4  502    0 -0.40669494214E+02  0.30093688563E+02 -0.29159854776E+02  0.58544063589E+02  0.41800000000E+01 0.  1.
         -5    1    4    4    0  502  0.18495204206E+02 -0.65161174268E+02  0.27591986779E+02  0.73258728797E+02  0.41800000000E+01 0.  1.
        -11    1    3    3    0    0 -0.11359766219E+02  0.45340207385E+02  0.26314262109E+02  0.53639715553E+02  0.00000000000E+00 0.  1.
         11    1    3    3    0    0  0.33534056228E+02 -0.10272721680E+02 -0.31883840659E+02  0.47398745057E+02  0.00000000000E+00 0. -1.
</event>
<event>
 8    1  0.5900800E-006  0.1052546E+03  0.7561462E-02  0.1269619E+00
          2   -1    0    0  501    0  0.00000000000E+00  0.00000000000E+00  0.27217973726E+03  0.27217973726E+03  0.00000000000E+00 0. -1.
         -2   -1    0    0    0  501 -0.00000000000E+00 -0.00000000000E+00 -0.50035177422E+02  0.50035177422E+02  0.00000000000E+00 0.  1.
         23    2    1    2    0    0 -0.25429806368E+02  0.31669183196E+02  0.59961168717E+02  0.11625733263E+03  0.90944012559E+02 0.  0.
         23    2    1    2    0    0  0.25429806368E+02 -0.31669183196E+02  0.16218339112E+03  0.20595758205E+03  0.12027244503E+03 0.  0.
          5    1    4    4  502    0 -0.34770048802E+02 -0.36286813018E+02  0.25577169744E+02  0.56545142186E+02  0.41800000000E+01 0. -1.
         -5    1    4    4    0  502  0.60199855170E+02  0.46176298219E+01  0.13660622138E+03  0.14941243987E+03  0.41800000000E+01 0.  1.
        -11    1    3    3    0    0  0.24211736141E+02 -0.17355191717E+02  0.16384136867E+02  0.33997805625E+02  0.00000000000E+00 0. -1.
         11    1    3    3    0    0 -0.49641542509E+02  0.49024374913E+02  0.43577031851E+02  0.82259527006E+02  0.00000000000E+00 0.  1.
</event>
<event>
 7    1  0.5900800E-006  0.6672349E+02  0.7561462E-02  0.1371603E+00
          2   -1    0    0  501    0  0.00000000000E+00  0.00000000000E+00  0.36184585156E+02  0.36184585156E+02  0.00000000000E+00 0. -1.
         -2   -1    0    0    0  501 -0.00000000000E+00 -0.00000000000E+00 -0.19521899232E+03  0.19521899232E+03  0.00000000000E+00 0.  1.
         23    2    1    2    0    0  0.20327672380E+02 -0.56031828906E+01 -0.86389414799E+02  0.15455113202E+03  0.12640534600E+03 0.  0.
          5    1    3    3  502    0  0.49476372213E+02  0.33540762451E+02 -0.57429438622E+01  0.60194251863E+02  0.41800000000E+01 0. -1.
         -5    1    3    3    0  502 -0.29148699833E+02 -0.39143945342E+02 -0.80646470936E+02  0.94356880159E+02  0.41800000000E+01 0.  1.
        -11    1    1    2    0    0 -0.75229160666E+01  0.85664542682E+01 -0.41735564803E+02  0.43264717430E+02  0.00000000000E+00 0.  1.
         11    1    1    2    0    0 -0.12804756314E+02 -0.29632713776E+01 -0.30909427561E+02  0.33587728022E+02  0.00000000000E+00 0. -1.
</event>
<event>
 8    1  0.5900800E-006  0.2286022E+03  0.7561462E-02  0.1127627E+00
         -1   -1    0    0    0  501 -0.00000000000E+00  0.00000000000E+00  0.43268734684E+02  0.43268734684E+02  0.00000000000E+00 0.  1.
          1   -1    0    0  501    0  0.00000000000E+00 -0.00000000000E+00 -0.14219132911E+04  0.14219132911E+04  0.00000000000E+00 0. -1.
         23    2    1    2    0    0 -0.19345110153E+03 -0.10805622455E+03 -0.73824873469E+03  0.77608584868E+03  0.90545976709E+02 0.  0.
         23    2    1    2    0    0  0.19345110153E+03  0.10805622455E+03 -0.64039582170E+03  0.68909617708E+03  0.12508899419E+03 0.  0.
          5    1    4    4  502    0  0.60990453697E+02  0.69046545206E+02 -0.12395937469E+03  0.15450132627E+03  0.41800000000E+01 0.  1.
         -5    1    4    4    0  502  0.13246064784E+03  0.39009679345E+02 -0.51643644701E+03  0.53459485081E+03  0.41800000000E+01 0.  1.
        -11    1    3    3    0    0 -0.15484328781E+03 -0.62146454679E+02 -0.63617732072E+03  0.65769309636E+03  0.00000000000E+00 0.  1.
         11    1    3    3    0    0 -0.38607813728E+02 -0.45909769872E+02 -0.10207141397E+03  0.11839275232E+03  0.00000000000E+00 0. -1.
</event>
<event>
 8    1  0.5900800E-006  0.7825285E+02  0.7561462E-02  0.1334084E+00
          2   -1    0    0  501    0  0.00000000000E+00  0.00000000000E+00  0.10084131545E+03  0.10084131545E+03  0.00000000000E+00 0. -1.
         -2   -1    0    0    0  501 -0.00000000000E+00 -0.00000000000E+00 -0.11639902530E+03  0.11639902530E+03  0.00000000000E+00 0.  1.
         23    2    1    2    0    0  0.76112689104E+01  0.18226628193E+01 -0.10222687224E+02  0.91788619159E+02  0.90881206852E+02 0.  0.
         23    2    1    2    0    0 -0.76112689104E+01 -0.18226628193E+01 -0.53350226272E+01  0.12545172158E+03  0.12509363880E+03 0.  0.
          5    1    4    4  502    0  0.48044114265E+02 -0.27921196513E+02 -0.24576898865E+02  0.60904240312E+02  0.41800000000E+01 0.  1.
         -5    1    4    4    0  502 -0.55655383175E+02  0.26098533694E+02  0.19241876238E+02  0.64547481271E+02  0.41800000000E+01 0.  1.
        -11    1    3    3    0    0  0.11165756705E+02  0.18776323760E+02  0.36176910468E+02  0.42261014041E+02  0.00000000000E+00 0. -1.
         11    1    3    3    0    0 -0.35544877945E+01 -0.16953660941E+02 -0.46399597692E+02  0.49527605118E+02  0.00000000000E+00 0.  1.
</event>
<event>
 8    1  0.5900800E-006  0.1422522E+03  0.7561462E-02  0.1210330E+00
          1   -1    0    0  501    0  0.00000000000E+00  0.00000000000E+00  0.12721854613E+04  0.12721854613E+04  0.00000000000E+00 0. -1.
         -1   -1    0    0    0  501 -0.00000000000E+00 -0.00000000000E+00 -0.21966095955E+02  0.21966095955E+02  0.00000000000E+00 0.  1.
         23    2    1    2    0    0 -0.13282409323E+02  0.12748073450E+03  0.58824062301E+03  0.60837365907E+03  0.87542666283E+02 0.  0.
         23    2    1    2    0    0  0.13282409323E+02 -0.12748073450E+03  0.66197874230E+03  0.68577789816E+03  0.12509080812E+03 0.  0.
          5    1    4    4  502    0 -0.14738237846E+02 -0.61616884479E+02  0.94879085644E+02  0.11416378323E+03  0.41800000000E+01 0. -1.
         -5    1    4    4    0  502  0.28020647170E+02 -0.65863850021E+02  0.56709965666E+03  0.57161411493E+03  0.41800000000E+01 0. -1.
        -11    1    3    3    0    0  0.20682983472E+02  0.10839936185E+03  0.49803587954E+03  0.51011561902E+03  0.00000000000E+00 0.  1.
         11    1    3    3    0    0 -0.33965392796E+02  0.19081372646E+02  0.90204743472E+02  0.98258040051E+02  0.00000000000E+00 0. -1.
</event>
<event>
 8    1  0.5900800E-006  0.1950125E+03  0.7561462E-02  0.1154017E+00
          2   -1    0    0  501    0  0.00000000000E+00  0.00000000000E+00  0.53554082060E+03  0.53554082060E+03  0.00000000000E+00 0. -1.
         -2   -1    0    0    0  501 -0.00000000000E+00 -0.00000000000E+00 -0.86374448918E+02  0.86374448918E+02  0.00000000000E+00 0.  1.
         23    2    1    2    0    0  0.31021963542E+02 -0.17030081523E+03  0.11315675987E+03  0.22377629709E+03  0.85478938599E+02 0.  0.
         23    2    1    2    0    0 -0.31021963542E+02  0.17030081523E+03  0.33600961181E+03  0.39813897242E+03  0.12508977673E+03 0.  0.
          5    1    4    4  502    0 -0.75759818191E+02  0.11899164328E+03  0.18711615062E+03  0.23436827312E+03  0.41800000000E+01 0.  1.
         -5    1    4    4    0  502  0.44737854650E+02  0.51309171954E+02  0.14889346119E+03  0.16377069930E+03  0.41800000000E+01 0.  1.
        -11    1    3    3    0    0 -0.12204115768E+02 -0.75855968141E+02  0.10159901396E+02  0.77500270585E+02  0.00000000000E+00 0.  1.
         11    1    3    3    0    0  0.43226079310E+02 -0.94444847093E+02  0.10299685847E+03  0.14627602651E+03  0.00000000000E+00 0. -1.
</event>
<event>
 8    1  0.1325057E-005  0.9642468E+02  0.7561462E-02  0.1287999E+00
          2   -1    0    0  501    0  0.00000000000E+00  0.00000000000E+00  0.24876064585E+03  0.24876064585E+03  0.00000000000E+00 0. -1.
         -2   -1    0    0    0  501 -0.00000000000E+00 -0.00000000000E+00 -0.64984269126E+02  0.64984269126E+02  0.00000000000E+00 0.  1.
         23    2    1    2    0    0  0.62050071935E+02  0.21481169538E+01  0.57707555949E+02  0.12560718029E+03  0.92693990596E+02 0.  0.
         23    2    1    2    0    0 -0.62050071935E+02 -0.21481169538E+01  0.12606882077E+03  0.18813773469E+03  0.12509050247E+03 0.  0.
          5    1    4    4  502    0 -0.43474282745E+02 -0.54845747716E+02  0.28617929101E+02  0.75726663525E+02  0.41800000000E+01 0. -1.
         -5    1    4    4    0  502 -0.18575789190E+02  0.52697630762E+02  0.97450891671E+02  0.11241107116E+03  0.41800000000E+01 0. -1.
        -11    1    3    3    0    0  0.92071156032E+01  0.96454627680E+01  0.69650237361E+02  0.70915171114E+02  0.00000000000E+00 0. -1.
         11    1    3    3    0    0  0.52842956331E+02 -0.74973458143E+01 -0.11942681412E+02  0.54692009173E+02  0.00000000000E+00 0.  1.
</event>
<event>
 8    1  0.5900800E-006  0.1475804E+03  0.7561462E-02  0.1203478E+00
          1   -1    0    0  501    0  0.00000000000E+00  0.00000000000E+00  0.13247083341E+03  0.13247083341E+03  0.00000000000E+00 0. -1.
         -1   -1    0    0    0  501 -0.00000000000E+00 -0.00000000000E+00 -0.20907929779E+03  0.20907929779E+03  0.00000000000E+00 0.  1.
         23    2    1    2    0    0 -0.35876817245E+02  0.97416082855E+02 -0.10753608321E+03  0.17607675547E+03  0.93069734120E+02 0.  0.
         23    2    1    2    0    0  0.35876817245E+02 -0.97416082855E+02  0.30927618840E+02  0.16547337573E+03  0.12509149154E+03 0.  0.
          5    1    4    4  502    0 -0.33093913130E+02  0.53643869645E+01  0.23980586273E+02  0.41430962477E+02  0.41800000000E+01 0.  1.
         -5    1    4    4    0  502  0.68970730374E+02 -0.10278046982E+03  0.69470325677E+01  0.12404241326E+03  0.41800000000E+01 0.  1.
        -11    1    3    3    0    0  0.30449534147E+02  0.25733595142E+02 -0.44952257058E+02  0.60084086606E+02  0.00000000000E+00 0. -1.
         11    1    3    3    0    0 -0.66326351392E+02  0.71682487714E+02 -0.62583826157E+02  0.11599266886E+03  0.00000000000E+00 0.  1.
</event>
<event>
 8    1  0.5900800E-006  0.1132345E+03  0.7561462E-02  0.1254695E+00
          2   -1    0    0  501    0  0.00000000000E+00  0.00000000000E+00  0.10700542687E+04  0.10700542687E+04  0.00000000000E+00 0. -1.
         -2   -1    0    0    0  501 -0.00000000000E+00 -0.00000000000E+00 -0.16465202995E+02  0.16465202995E+02  0.00000000000E+00 0.  1.
         23    2    1    2    0    0  0.60374390995E+02  0.41420673379E+02  0.38363002524E+03  0.40106049035E+03  0.91196389062E+02 0.  0.
         23    2    1    2    0    0 -0.60374390995E+02 -0.41420673379E+02  0.66995904046E+03  0.68545898135E+03  0.12509260547E+03 0.  0.
          5    1    4    4  502    0 -0.76086851026E+02  0.12054343901E+02  0.51461813642E+03  0.52036892186E+03  0.41800000000E+01 0.  1.
         -5    1    4    4    0  502  0.15712460030E+02 -0.53475017280E+02  0.15534090404E+03  0.16509005949E+03  0.41800000000E+01 0.  1.
        -11    1    3    3    0    0  0.41999954942E+02  0.55980225723E+02  0.36345357964E+03  0.37013009394E+03  0.00000000000E+00 0. -1.
         11    1    3    3    0    0  0.18374436053E+02 -0.14559552344E+02  0.20176445605E+02  0.30930396408E+02  0.00000000000E+00 0.  1.
</event>
<event>
 8    1  0.5900800E-006  0.1436057E+03  0.7561462E-02  0.1208558E+00
          2   -1    0    0  501    0  0.00000000000E+00  0.00000000000E+00  0.19213227486E+03  0.19213227486E+03  0.00000000000E+00 0. -1.
         -2   -1    0    0    0  501 -0.00000000000E+00 -0.00000000000E+00 -0.13172663220E+03  0.13172663220E+03  0.00000000000E+00 0.  1.
         23    2    1    2    0    0  0.63919116223E+02  0.96335747996E+02  0.11913135538E+02  0.14673820841E+03  0.89576499422E+02 0.  0.
         23    2    1    2    0    0 -0.63919116223E+02 -0.96335747996E+02  0.48492507117E+02  0.17712069865E+03  0.12511590180E+03 0.  0.
          5    1    4    4  502    0 -0.70400237147E+02  0.37504661848E+00  0.47132013458E+01  0.70682534740E+02  0.41800000000E+01 0.  1.
         -5    1    4    4    0  502  0.64811209240E+01 -0.96710794614E+02  0.43779305771E+02  0.10643816391E+03  0.41800000000E+01 0.  1.
        -11    1    3    3    0    0  0.46440461362E+02  0.42089606177E+02 -0.36002119966E+02  0.72280039027E+02  0.00000000000E+00 0.  1.
         11    1    3    3    0    0  0.17478654861E+02  0.54246141819E+02  0.47915255505E+02  0.74458169384E+02  0.00000000000E+00 0. -1.
</event>
<event>
 8    1  0.5900800E-006  0.1150871E+03  0.7561462E-02  0.1251429E+00
          2   -1    0    0  501    0  0.00000000000E+00  0.00000000000E+00  0.79378716978E+03  0.79378716978E+03  0.00000000000E+00 0. -1.
         -2   -1    0    0    0  501 -0.00000000000E+00 -0.00000000000E+00 -0.21964033917E+02  0.21964033917E+02  0.00000000000E+00 0.  1.
         23    2    1    2    0    0  0.34560052978E+02 -0.50970580478E+02  0.18835532425E+03  0.21815210217E+03  0.91215208003E+02 0.  0.
         23    2    1    2    0    0 -0.34560052978E+02  0.50970580478E+02  0.58346781161E+03  0.59759910153E+03  0.11356760816E+03 0.  0.
          5    1    4    4  502    0  0.31747410786E+02  0.52073657387E+02  0.23288758374E+03  0.24077720603E+03  0.41800000000E+01 0. -1.
         -5    1    4    4    0  502 -0.66307463763E+02 -0.11030769086E+01  0.35058022787E+03  0.35682189550E+03  0.41800000000E+01 0.  1.
        -11    1    3    3    0    0  0.58306259118E+02 -0.16246404543E+02  0.14782528133E+03  0.15973690655E+03  0.00000000000E+00 0. -1.
         11    1    3    3    0    0 -0.23746206140E+02 -0.34724175935E+02  0.40530042923E+02  0.58415195624E+02  0.00000000000E+00 0.  1.
</event>
<event>
 8    1  0.5900800E-006  0.1064379E+03  0.7561462E-02  0.1267312E+00
         -2   -1    0    0    0  501 -0.00000000000E+00  0.00000000000E+00  0.18350117670E+02  0.18350117670E+02  0.00000000000E+00 0.  1.
          2   -1    0    0  501    0  0.00000000000E+00 -0.00000000000E+00 -0.11744760238E+04  0.11744760238E+04  0.00000000000E+00 0. -1.
         23    2    1    2    0    0 -0.79141680358E+02  0.37056960998E+02 -0.35290422014E+03  0.37523811538E+03  0.92874273685E+02 0.  0.
         23    2    1    2    0    0  0.79141680358E+02 -0.37056960998E+02 -0.80322168604E+03  0.81758802614E+03  0.12509388328E+03 0.  0.
          5    1    4    4  502    0  0.61078642372E+02 -0.31668648086E+02 -0.79252251159E+03  0.79551424098E+03  0.41800000000E+01 0.  1.
         -5    1    4    4    0  502  0.18063037986E+02 -0.53883129129E+01 -0.10699174448E+02  0.22073785158E+02  0.41800000000E+01 0.  1.
        -11    1    3    3    0    0 -0.64479870674E+02 -0.18580825187E+02 -0.14983490661E+03  0.16417490681E+03  0.00000000000E+00 0.  1.
         11    1    3    3    0    0 -0.14661809684E+02  0.55637786185E+02 -0.20306931352E+03  0.21106320856E+03  0.00000000000E+00 0. -1.
</event>
<event>
 8    1  0.5900800E-006  0.1493844E+03  0.7561462E-02  0.1201231E+00
         -2   -1    0    0    0  501 -0.00000000000E+00  0.00000000000E+00  0.14006311253E+03  0.14006311253E+03  0.00000000000E+00 0.  1.
          2   -1    0    0  501    0  0.00000000000E+00 -0.00000000000E+00 -0.28186242269E+03  0.28186242269E+03  0.00000000000E+00 0. -1.
         23    2    1    2    0    0 -0.46671877573E+02  0.11038313843E+03  0.53734739662E+02  0.16010362473E+03  0.91558980991E+02 0.  0.
         23    2    1    2    0    0  0.46671877573E+02 -0.11038313843E+03 -0.19553404983E+03  0.26182191049E+03  0.12631091307E+03 0.  0.
          5    1    4    4  502    0 -0.26643533309E+02 -0.70926246323E+02 -0.41030822192E+02  0.86263613734E+02  0.41800000000E+01 0. -1.
         -5    1    4    4    0  502  0.73315410882E+02 -0.39456892110E+02 -0.15450322764E+03  0.17555829675E+03  0.41800000000E+01 0. -1.
        -11    1    3    3    0    0 -0.20105383357E+02  0.11114344090E+03  0.66016864782E+02  0.13082552247E+03  0.00000000000E+00 0.  1.
         11    1    3    3    0    0 -0.26566494215E+02 -0.76030246232E+00 -0.12282125120E+02  0.29278102264E+02  0.00000000000E+00 0. -1.
</event>
<event>
 8    1  0.5900800E-006  0.1527548E+03  0.7561462E-02  0.1197128E+00
          2   -1    0    0  501    0  0.00000000000E+00  0.00000000000E+00  0.83431011565E+02  0.83431011565E+02  0.00000000000E+00 0.  1.
         -2   -1    0    0    0  501 -0.00000000000E+00 -0.00000000000E+00 -0.49718368046E+03  0.49718368046E+03  0.00000000000E+00 0. -1.
         23    2    1    2    0    0  0.30414269896E+02 -0.13034037227E+03 -0.35173474568E+03  0.38720574840E+03  0.91089625201E+02 0.  0.
         23    2    1    2    0    0 -0.30414269896E+02  0.13034037227E+03 -0.62017923221E+02  0.19340894363E+03  0.12508859349E+03 0.  0.
          5    1    4    4  502    0  0.16099233769E+02  0.42450776773E+01  0.27109345290E+02  0.32087303010E+02  0.41800000000E+01 0. -1.
         -5    1    4    4    0  502 -0.46513503665E+02  0.12609529459E+03 -0.89127268510E+02  0.16132164062E+03  0.41800000000E+01 0. -1.
        -11    1    3    3    0    0 -0.23445012483E+02 -0.65595823610E+02 -0.10090012144E+03  0.12261042041E+03  0.00000000000E+00 0.  1.
         11    1    3    3    0    0  0.53859282379E+02 -0.64744548656E+02 -0.25083462423E+03  0.26459532799E+03  0.00000000000E+00 0. -1.
</event>
<event>
 8    1  0.5900800E-006  0.7833638E+02  0.7561462E-02  0.1333840E+00
         -1   -1    0    0    0  501 -0.00000000000E+00  0.00000000000E+00  0.80270556080E+02  0.80270556080E+02  0.00000000000E+00 0.  1.
          1   -1    0    0  501    0  0.00000000000E+00 -0.00000000000E+00 -0.17769468562E+03  0.17769468562E+03  0.00000000000E+00 0. -1.
         23    2    1    2    0    0 -0.33350082387E+02  0.20136110144E+00 -0.28869382706E+01  0.97663322196E+02  0.91747051987E+02 0.  0.
         23    2    1    2    0    0  0.33350082387E+02 -0.20136110144E+00 -0.94537191269E+02  0.16030191950E+03  0.12508859389E+03 0.  0.
          5    1    4    4  502    0 -0.13739582870E+02  0.42016876897E+02  0.24161220146E+01  0.44469136794E+02  0.41800000000E+01 0. -1.
         -5    1    4    4    0  502  0.47089665257E+02 -0.42218237998E+02 -0.96953313284E+02  0.11583278271E+03  0.41800000000E+01 0. -1.
        -11    1    3    3    0    0 -0.25011100483E+02  0.16925211799E+02 -0.43501016090E+02  0.52956173792E+02  0.00000000000E+00 0. -1.
         11    1    3    3    0    0 -0.83389819036E+01 -0.16723850697E+02  0.40614077819E+02  0.44707148404E+02  0.00000000000E+00 0.  1.
</event>
<event>
 8    1  0.5900800E-006  0.1396886E+03  0.7561462E-02  0.1213749E+00
         -2   -1    0    0    0  501 -0.00000000000E+00  0.00000000000E+00  0.88085790355E+02  0.88085790355E+02  0.00000000000E+00 0.  1.
          2   -1    0    0  501    0  0.00000000000E+00 -0.00000000000E+00 -0.24468959528E+03  0.24468959528E+03  0.00000000000E+00 0. -1.
         23    2    1    2    0    0 -0.93374453844E+02  0.88045671656E+01 -0.40572396964E+02  0.13807640341E+03  0.92858304685E+02 0.  0.
         23    2    1    2    0    0  0.93374453844E+02 -0.88045671656E+01 -0.11603140796E+03  0.19469898223E+03  0.12509235394E+03 0.  0.
          5    1    4    4  502    0  0.90056145552E+02 -0.53636260271E+02 -0.10456865587E+03  0.14811831068E+03  0.41800000000E+01 0. -1.
         -5    1    4    4    0  502  0.33183082911E+01  0.44831693106E+02 -0.11462752091E+02  0.46580671551E+02  0.41800000000E+01 0. -1.
        -11    1    3    3    0    0 -0.38647255960E+02  0.48283784013E+02 -0.56746782541E+01  0.62105846465E+02  0.00000000000E+00 0.  1.
         11    1    3    3    0    0 -0.54727197883E+02 -0.39479216847E+02 -0.34897718710E+02  0.75970556943E+02  0.00000000000E+00 0. -1.
</event>
<event>
 8    1  0.5900800E-006  0.1277593E+03  0.7561462E-02  0.1230819E+00
         -1   -1    0    0    0  501 -0.00000000000E+00  0.00000000000E+00  0.24768103642E+03  0.24768103642E+03  0.00000000000E+00 0.  1.
          1   -1    0    0  501    0  0.00000000000E+00 -0.00000000000E+00 -0.87432365563E+02  0.87432365563E+02  0.00000000000E+00 0. -1.
         23    2    1    2    0    0 -0.88563798476E+02  0.50703097449E+02  0.77773551466E+02  0.15383076191E+03  0.84857689757E+02 0.  0.
         23    2    1    2    0    0  0.88563798476E+02 -0.50703097449E+02  0.82475119389E+02  0.18128264007E+03  0.12508756845E+03 0.  0.
          5    1    4    4  502    0  0.86907164001E+02  0.56367552141E+01  0.88753785873E+02  0.12441597595E+03  0.41800000000E+01 0. -1.
         -5    1    4    4    0  502  0.16566344744E+01 -0.56339852663E+02 -0.62786664831E+01  0.56866664124E+02  0.41800000000E+01 0. -1.
        -11    1    3    3    0    0 -0.12267909245E+02  0.30513823839E+02  0.66393687594E+02  0.74092623080E+02  0.00000000000E+00 0.  1.
         11    1    3    3    0    0 -0.76295889230E+02  0.20189273609E+02  0.11379863871E+02  0.79738138830E+02  0.00000000000E+00 0. -1.
</event>
<event>
 8    1  0.5900800E-006  0.5544065E+02  0.7561462E-02  0.1418026E+00
         -3   -1    0    0    0  501 -0.00000000000E+00  0.00000000000E+00  0.37126686764E+02  0.37126686764E+02  0.00000000000E+00 0.  1.
          3   -1    0    0  501    0  0.00000000000E+00 -0.00000000000E+00 -0.37381351683E+03  0.37381351683E+03  0.00000000000E+00 0. -1.
         23    2    1    2    0    0 -0.27953450315E+02 -0.30906207130E+02 -0.10920474635E+03  0.14801121914E+03  0.90802287093E+02 0.  0.
         23    2    1    2    0    0  0.27953450315E+02  0.30906207130E+02 -0.22748208371E+03  0.26292898445E+03  0.12508782288E+03 0.  0.
          5    1    4    4  502    0  0.39327541249E+02  0.40717067919E+01 -0.68536192238E+01  0.40344501401E+02  0.41800000000E+01 0. -1.
         -5    1    4    4    0  502 -0.11374090934E+02  0.26834500338E+02 -0.22062846449E+03  0.22258448305E+03  0.41800000000E+01 0. -1.
        -11    1    3    3    0    0 -0.70117695695E+01 -0.72623243445E+01  0.15981092237E+02  0.18902422503E+02  0.00000000000E+00 0.  1.
         11    1    3    3    0    0 -0.20941680746E+02 -0.23643882786E+02 -0.12518583859E+03  0.12910879664E+03  0.00000000000E+00 0. -1.
</event>
<event>
 8    1  0.5900800E-006  0.1733794E+03  0.7561462E-02  0.1174369E+00
          2   -1    0    0  501    0  0.00000000000E+00  0.00000000000E+00  0.37704205025E+03  0.37704205025E+03  0.00000000000E+00 0. -1.
         -2   -1    0    0    0  501 -0.00000000000E+00 -0.00000000000E+00 -0.11844500147E+03  0.11844500147E+03  0.00000000000E+00 0.  1.
         23    2    1    2    0    0 -0.15789779313E+03 -0.41099890807E+02  0.32336792316E+02  0.18977088276E+03  0.91358665186E+02 0.  0.
         23    2    1    2    0    0  0.15789779313E+03  0.41099890807E+02  0.22626025646E+03  0.30571616896E+03  0.12509099972E+03 0.  0.
          5    1    4    4  502    0  0.54317873240E+02 -0.19343556443E+02  0.10392655507E+02  0.58737417526E+02  0.41800000000E+01 0. -1.
         -5    1    4    4    0  502  0.10357991989E+03  0.60443447250E+02  0.21586760095E+03  0.24697875144E+03  0.41800000000E+01 0. -1.
        -11    1    3    3    0    0 -0.13150021440E+03 -0.50592713936E+02 -0.74444942673E+01  0.14109340731E+03  0.00000000000E+00 0.  1.
         11    1    3    3    0    0 -0.26397578731E+02  0.94928231284E+01  0.39781286584E+02  0.48677475448E+02  0.00000000000E+00 0. -1.
</event>
<event>
 7    1  0.5900800E-006  0.1381150E+03  0.7561462E-02  0.1215888E+00
         -2   -1    0    0    0  501 -0.00000000000E+00  0.00000000000E+00  0.53533091487E+02  0.53533091487E+02  0.00000000000E+00 0.  1.
          2   -1    0    0  501    0  0.00000000000E+00 -0.00000000000E+00 -0.58461411941E+03  0.58461411941E+03  0.00000000000E+00 0. -1.
         23    2    1    2    0    0 -0.29355498814E+02 -0.17519566249E+02 -0.86438602677E+02  0.14232658926E+03  0.10778007917E+03 0.  0.
          5    1    1    2  502    0 -0.24862569853E+02  0.88356029483E+02 -0.36426032683E+03  0.37567005926E+03  0.41800000000E+01 0. -1.
         -5    1    1    2    0  502  0.54218068667E+02 -0.70836463234E+02 -0.80382098422E+02  0.12015056238E+03  0.41800000000E+01 0.  1.
        -11    1    3    3    0    0 -0.48921386906E+02  0.19904070890E+02 -0.84999985900E+02  0.10007233253E+03  0.00000000000E+00 0.  1.
         11    1    3    3    0    0  0.19565888092E+02 -0.37423637139E+02 -0.14386167769E+01  0.42254256729E+02  0.00000000000E+00 0. -1.
</event>
<event>
 8    1  0.5900800E-006  0.1001892E+03  0.7561462E-02  0.1279899E+00
          3   -1    0    0  501    0  0.00000000000E+00  0.00000000000E+00  0.14399414982E+03  0.14399414982E+03  0.00000000000E+00 0. -1.
         -3   -1    0    0    0  501 -0.00000000000E+00 -0.00000000000E+00 -0.15125305791E+03  0.15125305791E+03  0.00000000000E+00 0.  1.
         23    2    1    2    0    0 -0.52966650217E+02  0.63061779895E+02 -0.59474887625E+02  0.13663978129E+03  0.91383332480E+02 0.  0.
         23    2    1    2    0    0  0.52966650217E+02 -0.63061779895E+02  0.52215979537E+02  0.15860742644E+03  0.12509017980E+03 0.  0.
          5    1    4    4  502    0  0.62656711553E+02 -0.63484167665E+02  0.85536549126E+02  0.12365304963E+03  0.41800000000E+01 0. -1.
         -5    1    4    4    0  502 -0.96900613357E+01  0.42238777026E+00 -0.33320569589E+02  0.34954376805E+02  0.41800000000E+01 0. -1.
        -11    1    3    3    0    0  0.11792496792E+02  0.29324210296E+01  0.16230737716E+02  0.20275574480E+02  0.00000000000E+00 0. -1.
         11    1    3    3    0    0 -0.64759147009E+02  0.60129358865E+02 -0.75705625341E+02  0.11636420681E+03  0.00000000000E+00 0.  1.
</event>
<event>
 8    1  0.5900800E-006  0.6343238E+02  0.7561462E-02  0.1383967E+00
         -1   -1    0    0    0  501 -0.00000000000E+00  0.00000000000E+00  0.43436720169E+02  0.43436720169E+02  0.00000000000E+00 0.  1.
          1   -1    0    0  501    0  0.00000000000E+00 -0.00000000000E+00 -0.36232328928E+03  0.36232328928E+03  0.00000000000E+00 0. -1.
         23    2    1    2    0    0 -0.41446442474E+02 -0.30820507589E+00 -0.29459116169E+02  0.87742016128E+02  0.71504680160E+02 0.  0.
         23    2    1    2    0    0  0.41446442474E+02  0.30820507589E+00 -0.28942745294E+03  0.31801799332E+03  0.12509712616E+03 0.  0.
          5    1    4    4  502    0  0.77318753508E+01 -0.14342760960E+02 -0.27909988322E+03  0.27960635526E+03  0.41800000000E+01 0.  1.
         -5    1    4    4    0  502  0.33714567123E+02  0.14650966036E+02 -0.10327569722E+02  0.38411638060E+02  0.41800000000E+01 0.  1.
        -11    1    3    3    0    0  0.85556075714E+01  0.17893690111E+02  0.93044872315E+01  0.21907899246E+02  0.00000000000E+00 0.  1.
         11    1    3    3    0    0 -0.50002050045E+02 -0.18201895187E+02 -0.38763603400E+02  0.65834116883E+02  0.00000000000E+00 0. -1.
</event>
<event>
 8    1  0.5900800E-006  0.9989963E+02  0.7561462E-02  0.1280507E+00
          2   -1    0    0  501    0  0.00000000000E+00  0.00000000000E+00  0.14600863070E+03  0.14600863070E+03  0.00000000000E+00 0. -1.
         -2   -1    0    0    0  501 -0.00000000000E+00 -0.00000000000E+00 -0.12028666970E+03  0.12028666970E+03  0.00000000000E+00 0.  1.
         23    2    1    2    0    0  0.30416813233E+02 -0.59989332586E+02 -0.29396111638E+02  0.11394021855E+03  0.87145507472E+02 0.  0.
         23    2    1    2    0    0 -0.30416813233E+02  0.59989332586E+02  0.55118072646E+02  0.15235508185E+03  0.12510062542E+03 0.  0.
          5    1    4    4  502    0  0.33642545339E+02  0.23650801524E+02 -0.20993997404E+02  0.46361639279E+02  0.41800000000E+01 0. -1.
         -5    1    4    4    0  502 -0.64059358573E+02  0.36338531062E+02  0.76112070051E+02  0.10599344257E+03  0.41800000000E+01 0. -1.
        -11    1    3    3    0    0  0.21867731018E+02  0.21487238562E+01  0.23294352995E+02  0.32022516383E+02  0.00000000000E+00 0. -1.
         11    1    3    3    0    0  0.85490822158E+01 -0.62138056442E+02 -0.52690464633E+02  0.81917702167E+02  0.00000000000E+00 0.  1.
</event>
<event>
 8    1  0.5900800E-006  0.1136116E+03  0.7561462E-02  0.1254024E+00
          3   -1    0    0  501    0  0.00000000000E+00  0.00000000000E+00  0.11071928404E+03  0.11071928404E+03  0.00000000000E+00 0. -1.
         -3   -1    0    0    0  501 -0.00000000000E+00 -0.00000000000E+00 -0.13045176140E+03  0.13045176140E+03  0.00000000000E+00 0.  1.
         23    2    1    2    0    0  0.50066332283E+02  0.66975797237E+01 -0.17690344679E+02  0.10625284673E+03  0.91789018624E+02 0.  0.
         23    2    1    2    0    0 -0.50066332283E+02 -0.66975797237E+01 -0.20421326733E+01  0.13491819871E+03  0.12508898767E+03 0.  0.
          5    1    4    4  502    0  0.12455708258E+02  0.49160324909E+02 -0.29239164545E+01  0.50969637048E+02  0.41800000000E+01 0.  1.
         -5    1    4    4    0  502 -0.62522040540E+02 -0.55857904633E+02  0.88178378114E+00  0.83948561667E+02  0.41800000000E+01 0.  1.
        -11    1    3    3    0    0  0.47369963127E+02  0.38152179866E+02 -0.35075525851E+02  0.70212497099E+02  0.00000000000E+00 0.  1.
         11    1    3    3    0    0  0.26963691559E+01 -0.31454600142E+02  0.17385181173E+02  0.36040349626E+02  0.00000000000E+00 0. -1.
</event>
<event>
 8    1  0.5900800E-006  0.3774382E+03  0.7561462E-02  0.1051885E+00
         -2   -1    0    0    0  501 -0.00000000000E+00  0.00000000000E+00  0.13587514922E+03  0.13587514922E+03  0.00000000000E+00 0. -1.
          2   -1    0    0  501    0  0.00000000000E+00 -0.00000000000E+00 -0.10816031644E+04  0.10816031644E+04  0.00000000000E+00 0.  1.
         23    2    1    2    0    0  0.16290014221E+03  0.32600275182E+03 -0.53985011910E+03  0.65783575377E+03  0.92170913646E+02 0.  0.
         23    2    1    2    0    0 -0.16290014221E+03 -0.32600275182E+03 -0.40587789609E+03  0.55964255984E+03  0.12509467507E+03 0.  0.
          5    1    4    4  502    0 -0.16431473174E+03 -0.20751769565E+03 -0.25307608319E+03  0.36623476263E+03  0.41800000000E+01 0. -1.
         -5    1    4    4    0  502  0.14145895341E+01 -0.11848505617E+03 -0.15280181290E+03  0.19340779722E+03  0.41800000000E+01 0. -1.
        -11    1    3    3    0    0  0.16651108190E+01  0.63464504274E+02 -0.58507949454E+02  0.86334790474E+02  0.00000000000E+00 0. -1.
         11    1    3    3    0    0  0.16123503139E+03  0.26253824755E+03 -0.48134216964E+03  0.57150096330E+03  0.00000000000E+00 0.  1.
</event>
<event>
 8    1  0.5900800E-006  0.9923598E+02  0.7561462E-02  0.1281911E+00
          2   -1    0    0  501    0  0.00000000000E+00  0.00000000000E+00  0.87855947250E+03  0.87855947250E+03  0.00000000000E+00 0. -1.
         -2   -1    0    0    0  501 -0.00000000000E+00 -0.00000000000E+00 -0.20548370111E+02  0.20548370111E+02  0.00000000000E+00 0.  1.
         23    2    1    2    0    0 -0.45951887316E+02  0.56420951037E+02  0.28432563585E+03  0.30745127481E+03  0.91598687310E+02 0.  0.
         23    2    1    2    0    0  0.45951887316E+02 -0.56420951037E+02  0.57368546654E+03  0.59165656780E+03  0.12509028755E+03 0.  0.
          5    1    4    4  502    0 -0.74865193747E+01  0.18318311488E+01 -0.32235989810E+01  0.93417111974E+01  0.41800000000E+01 0. -1.
         -5    1    4    4    0  502  0.53438406691E+02 -0.58252782186E+02  0.57690906552E+03  0.58231485660E+03  0.41800000000E+01 0. -1.
        -11    1    3    3    0    0 -0.67215592750E+02  0.58592398389E+02  0.26100961677E+03  0.27582063938E+03  0.00000000000E+00 0. -1.
         11    1    3    3    0    0  0.21263705434E+02 -0.21714473523E+01  0.23316019080E+02  0.31630635437E+02  0.00000000000E+00 0.  1.
</event>
<event>
 8    1  0.5900800E-006  0.7856064E+02  0.7561462E-02  0.1333186E+00
          3   -1    0    0  501    0  0.00000000000E+00  0.00000000000E+00  0.35552124225E+03  0.35552124225E+03  0.00000000000E+00 0. -1.
         -3   -1    0    0    0  501 -0.00000000000E+00 -0.00000000000E+00 -0.36374077929E+02  0.36374077929E+02  0.00000000000E+00 0.  1.
         23    2    1    2    0    0  0.27445997933E+02 -0.14917864135E+02  0.13743903616E+03  0.16909098197E+03  0.93415448666E+02 0.  0.
         23    2    1    2    0    0 -0.27445997933E+02  0.14917864135E+02  0.18170812816E+03  0.22280433821E+03  0.12509238111E+03 0.  0.
          5    1    4    4  502    0  0.41095157697E+02  0.70468397955E+01  0.18972691573E+02  0.45998971323E+02  0.41800000000E+01 0. -1.
         -5    1    4    4    0  502 -0.68541155629E+02  0.78710243394E+01  0.16273543658E+03  0.17680536688E+03  0.41800000000E+01 0. -1.
        -11    1    3    3    0    0  0.44177419525E+01  0.10745772815E+02 -0.11419659888E+02  0.16291000868E+02  0.00000000000E+00 0.  1.
         11    1    3    3    0    0  0.23028255980E+02 -0.25663636950E+02  0.14885869605E+03  0.15279998110E+03  0.00000000000E+00 0. -1.
</event>
<event>
 8    1  0.5900800E-006  0.1348590E+03  0.7561462E-02  0.1220419E+00
         -2   -1    0    0    0  501 -0.00000000000E+00  0.00000000000E+00  0.58257751800E+03  0.58257751800E+03  0.00000000000E+00 0.  1.
          2   -1    0    0  501    0  0.00000000000E+00 -0.00000000000E+00 -0.53895291522E+02  0.53895291522E+02  0.00000000000E+00 0. -1.
         23    2    1    2    0    0  0.22756802718E+02  0.80939770680E+02  0.44985016018E+03  0.46639247243E+03  0.89931380405E+02 0.  0.
         23    2    1    2    0    0 -0.22756802718E+02 -0.80939770680E+02  0.78832066295E+02  0.17008033708E+03  0.12507480897E+03 0.  0.
          5    1    4    4  502    0  0.16735024516E+01 -0.11001584229E+03  0.71189205143E+02  0.13111697638E+03  0.41800000000E+01 0. -1.
         -5    1    4    4    0  502 -0.24430305169E+02  0.29076071611E+02  0.76428611512E+01  0.38963360707E+02  0.41800000000E+01 0. -1.
        -11    1    3    3    0    0 -0.27705662686E+02  0.20843719931E+01  0.13903600675E+03  0.14178490585E+03  0.00000000000E+00 0. -1.
         11    1    3    3    0    0  0.50462465404E+02  0.78855398687E+02  0.31081415343E+03  0.32460756659E+03  0.00000000000E+00 0.  1.
</event>
<event>
 8    1  0.5900800E-006  0.9762562E+02  0.7561462E-02  0.1285370E+00
          1   -1    0    0  501    0  0.00000000000E+00  0.00000000000E+00  0.16568372660E+03  0.16568372660E+03  0.00000000000E+00 0. -1.
         -1   -1    0    0    0  501 -0.00000000000E+00 -0.00000000000E+00 -0.97429339322E+02  0.97429339322E+02  0.00000000000E+00 0.  1.
         23    2    1    2    0    0 -0.44459372269E+02  0.42682853013E+02  0.12395486476E+02  0.11289585477E+03  0.93772939677E+02 0.  0.
         23    2    1    2    0    0  0.44459372269E+02 -0.42682853013E+02  0.55858900806E+02  0.15021721115E+03  0.12508609836E+03 0.  0.
          5    1    4    4  502    0  0.53149506062E+02 -0.48269405062E+02  0.89478599054E+02  0.11479850848E+03  0.41800000000E+01 0. -1.
         -5    1    4    4    0  502 -0.86901337926E+01  0.55865520487E+01 -0.33619698248E+02  0.35418702678E+02  0.41800000000E+01 0. -1.
        -11    1    3    3    0    0  0.28314820329E+02  0.23839020347E+02  0.29671272908E+01  0.37132624278E+02  0.00000000000E+00 0.  1.
         11    1    3    3    0    0 -0.72774192599E+02  0.18843832666E+02  0.94283591849E+01  0.75763230494E+02  0.00000000000E+00 0. -1.
</event>
<event>
 8    1  0.5900800E-006  0.8598399E+02  0.7561462E-02  0.1312879E+00
          2   -1    0    0  501    0  0.00000000000E+00  0.00000000000E+00  0.74329371261E+03  0.74329371261E+03  0.00000000000E+00 0. -1.
         -2   -1    0    0    0  501 -0.00000000000E+00 -0.00000000000E+00 -0.20864465739E+02  0.20864465739E+02  0.00000000000E+00 0.  1.
         23    2    1    2    0    0  0.20895760245E+02  0.35214889635E+02  0.18480491463E+03  0.21065671062E+03  0.92448212592E+02 0.  0.
         23    2    1    2    0    0 -0.20895760245E+02 -0.35214889635E+02  0.53762433224E+03  0.55350146773E+03  0.12508889202E+03 0.  0.
          5    1    4    4  502    0 -0.43945565743E+02 -0.34625897886E+01  0.61701546318E+02  0.75945740463E+02  0.41800000000E+01 0. -1.
         -5    1    4    4    0  502  0.23049805498E+02 -0.31752299846E+02  0.47592278593E+03  0.47755572726E+03  0.41800000000E+01 0. -1.
        -11    1    3    3    0    0  0.72997223466E+01  0.59742142508E+02  0.16681104182E+03  0.17733677907E+03  0.00000000000E+00 0. -1.
         11    1    3    3    0    0  0.13596037899E+02 -0.24527252873E+02  0.17993872809E+02  0.33319931553E+02  0.00000000000E+00 0.  1.
</event>
<event>
 8    1  0.5900800E-006  0.1288632E+03  0.7561462E-02  0.1229152E+00
          1   -1    0    0  501    0  0.00000000000E+00  0.00000000000E+00  0.33471754652E+03  0.33471754652E+03  0.00000000000E+00 0. -1.
         -1   -1    0    0    0  501 -0.00000000000E+00 -0.00000000000E+00 -0.15158790761E+03  0.15158790761E+03  0.00000000000E+00 0.  1.
         23    2    1    2    0    0 -0.76037891295E+02 -0.11222375930E+02 -0.10808898887E+03  0.16017248956E+03  0.89801415711E+02 0.  0.
         23    2    1    2    0    0  0.76037891295E+02  0.11222375930E+02  0.29121862778E+03  0.32613296457E+03  0.12508684494E+03 0.  0.
          5    1    4    4  502    0  0.66200918613E+02  0.64471597277E+02  0.18404676948E+03  0.20598503401E+03  0.41800000000E+01 0. -1.
         -5    1    4    4    0  502  0.98369726821E+01 -0.53249221347E+02  0.10717185830E+03  0.12014793056E+03  0.41800000000E+01 0. -1.
        -11    1    3    3    0    0 -0.91364554358E+02  0.90450631579E+00 -0.10685059709E+03  0.14058929555E+03  0.00000000000E+00 0. -1.
         11    1    3    3    0    0  0.15326663063E+02 -0.12126882245E+02 -0.12383917830E+01  0.19583194015E+02  0.00000000000E+00 0.  1.
</event>
<event>
 8    1  0.5900800E-006  0.1380240E+03  0.7561462E-02  0.1216013E+00
         -2   -1    0    0    0  501 -0.00000000000E+00  0.00000000000E+00  0.26063524969E+02  0.26063524969E+02  0.00000000000E+00 0.  1.
          2   -1    0    0  501    0  0.00000000000E+00 -0.00000000000E+00 -0.91151256385E+03  0.91151256385E+03  0.00000000000E+00 0. -1.
         23    2    1    2    0    0  0.58004677293E+02 -0.78996069079E+02 -0.25662006310E+03  0.28897886307E+03  0.89721820088E+02 0.  0.
         23    2    1    2    0    0 -0.58004677293E+02  0.78996069079E+02 -0.62882897578E+03  0.64859722574E+03  0.12509020324E+03 0.  0.
          5    1    4    4  502    0 -0.31305971616E+02 -0.24483018565E+02 -0.30398403616E+03  0.30659949233E+03  0.41800000000E+01 0. -1.
         -5    1    4    4    0  502 -0.26698705677E+02  0.10347908764E+03 -0.32484493961E+03  0.34199773341E+03  0.41800000000E+01 0. -1.
        -11    1    3    3    0    0 -0.21992715754E+02 -0.20134548800E+02 -0.34086873580E+02  0.45287907349E+02  0.00000000000E+00 0.  1.
         11    1    3    3    0    0  0.79997393046E+02 -0.58861520279E+02 -0.22253318952E+03  0.24369095573E+03  0.00000000000E+00 0. -1.
</event>
<event>
 8    1  0.5900800E-006  0.1697786E+03  0.7561462E-02  0.1178079E+00
         -1   -1    0    0    0  501 -0.00000000000E+00  0.00000000000E+00  0.99189416144E+02  0.99189416144E+02  0.00000000000E+00 0.  1.
          1   -1    0    0  501    0  0.00000000000E+00 -0.00000000000E+00 -0.29554612317E+03  0.29554612317E+03  0.00000000000E+00 0. -1.
         23    2    1    2    0    0  0.28009399703E+02 -0.12862827460E+03 -0.99779040354E+02  0.18905545797E+03  0.91958413410E+02 0.  0.
         23    2    1    2    0    0 -0.28009399703E+02  0.12862827460E+03 -0.96577666668E+02  0.20568008134E+03  0.12508913086E+03 0.  0.
          5    1    4    4  502    0 -0.21905624781E+02 -0.20581717170E+02 -0.28029887518E+02  0.41311142238E+02  0.41800000000E+01 0. -1.
         -5    1    4    4    0  502 -0.61037749219E+01  0.14920999177E+03 -0.68547779150E+02  0.16436893910E+03  0.41800000000E+01 0. -1.
        -11    1    3    3    0    0  0.38972611917E+02 -0.94058076690E+01 -0.17271258647E+02  0.43653523028E+02  0.00000000000E+00 0.  1.
         11    1    3    3    0    0 -0.10963212214E+02 -0.11922246693E+03 -0.82507781707E+02  0.14540193495E+03  0.00000000000E+00 0. -1.
</event>
<event>
 7    1  0.5900800E-006  0.8731362E+02  0.7561462E-02  0.1309491E+00
         -1   -1    0    0    0  501 -0.00000000000E+00  0.00000000000E+00  0.31933046669E+02  0.31933046669E+02  0.00000000000E+00 0.  1.
          1   -1    0    0  501    0  0.00000000000E+00 -0.00000000000E+00 -0.98745410968E+03  0.98745410968E+03  0.00000000000E+00 0. -1.
         23    2    1    2    0    0 -0.58924405185E+02  0.73003593126E+01 -0.95261559414E+02  0.14637522662E+03  0.93944459620E+02 0.  0.
          5    1    1    2  502    0  0.27498138707E+02 -0.42704831146E+02 -0.76362289960E+03  0.76532166795E+03  0.41800000000E+01 0. -1.
         -5    1    1    2    0  502  0.31426266478E+02  0.35404471833E+02 -0.96636603995E+02  0.10769026178E+03  0.41800000000E+01 0.  1.
        -11    1    3    3    0    0 -0.36399026055E+02 -0.19367572994E+02  0.37393937693E+01  0.41400181729E+02  0.00000000000E+00 0.  1.
         11    1    3    3    0    0 -0.22525379130E+02  0.26667932307E+02 -0.99000953183E+02  0.10497504489E+03  0.00000000000E+00 0. -1.
</event>
<event>
 8    1  0.5900800E-006  0.8356749E+02  0.7561462E-02  0.1319222E+00
          1   -1    0    0  501    0  0.00000000000E+00  0.00000000000E+00  0.20603814627E+03  0.20603814627E+03  0.00000000000E+00 0. -1.
         -1   -1    0    0    0  501 -0.00000000000E+00 -0.00000000000E+00 -0.59510579595E+02  0.59510579595E+02  0.00000000000E+00 0.  1.
         23    2    1    2    0    0 -0.12820022493E+02  0.20056943659E+02  0.45919730386E+02  0.10326741379E+03  0.89380664273E+02 0.  0.
         23    2    1    2    0    0  0.12820022493E+02 -0.20056943659E+02  0.10060783629E+03  0.16228131208E+03  0.12508658426E+03 0.  0.
          5    1    4    4  502    0 -0.29300899626E+02 -0.22185741976E+02  0.11236720981E+03  0.11829882547E+03  0.41800000000E+01 0. -1.
         -5    1    4    4    0  502  0.42120922119E+02  0.21287983170E+01 -0.11759373527E+02  0.43982486608E+02  0.41800000000E+01 0. -1.
        -11    1    3    3    0    0  0.34497428925E+02 -0.39184961276E+01  0.34624004792E+02  0.49033141059E+02  0.00000000000E+00 0. -1.
         11    1    3    3    0    0 -0.47317451418E+02  0.23975439787E+02  0.11295725594E+02  0.54234272728E+02  0.00000000000E+00 0.  1.
</event>
<event>
 8    1  0.5900800E-006  0.1547288E+03  0.7561462E-02  0.1194780E+00
          2   -1    0    0  501    0  0.00000000000E+00  0.00000000000E+00  0.40712464699E+03  0.40712464699E+03  0.00000000000E+00 0.  1.
         -2   -1    0    0    0  501 -0.00000000000E+00 -0.00000000000E+00 -0.76010584076E+02  0.76010584076E+02  0.00000000000E+00 0. -1.
         23    2    1    2    0    0  0.77165364820E+02 -0.10980994753E+03  0.11742774227E+03  0.20149285386E+03  0.93794335636E+02 0.  0.
         23    2    1    2    0    0 -0.77165364820E+02  0.10980994753E+03  0.21368632064E+03  0.28164237720E+03  0.12509143417E+03 0.  0.
          5    1    4    4  502    0 -0.10046607084E+02 -0.13340352527E+02 -0.82344019876E+01  0.19083424628E+02  0.41800000000E+01 0. -1.
         -5    1    4    4    0  502 -0.67118757735E+02  0.12315030006E+03  0.22192072263E+03  0.26255895257E+03  0.41800000000E+01 0. -1.
        -11    1    3    3    0    0  0.90427875892E+02 -0.10284591825E+03  0.12436059918E+03  0.18498660023E+03  0.00000000000E+00 0.  1.
         11    1    3    3    0    0 -0.13262511073E+02 -0.69640292853E+01 -0.69328569084E+01  0.16506253626E+02  0.00000000000E+00 0. -1.
</event>
<event>
 8    1  0.5900800E-006  0.1212005E+03  0.7561462E-02  0.1241130E+00
          1   -1    0    0  501    0  0.00000000000E+00  0.00000000000E+00  0.25214665733E+03  0.25214665733E+03  0.00000000000E+00 0. -1.
         -1   -1    0    0    0  501 -0.00000000000E+00 -0.00000000000E+00 -0.88189620015E+02  0.88189620015E+02  0.00000000000E+00 0.  1.
         23    2    1    2    0    0 -0.87873038862E+02  0.18406427904E+02  0.36931376126E+02  0.14072845748E+03  0.10188279863E+03 0.  0.
         23    2    1    2    0    0  0.87873038862E+02 -0.18406427904E+02  0.12702566119E+03  0.19960781986E+03  0.12508915062E+03 0.  0.
          5    1    4    4  502    0 -0.29847673973E+02 -0.17425963115E+02  0.40734258272E+02  0.53584512959E+02  0.41800000000E+01 0.  1.
         -5    1    4    4    0  502  0.11772071283E+03 -0.98046478874E+00  0.86291402917E+02  0.14602330690E+03  0.41800000000E+01 0.  1.
        -11    1    3    3    0    0 -0.44967008577E+02  0.88144172409E+01 -0.34150484050E+02  0.57148765276E+02  0.00000000000E+00 0.  1.
         11    1    3    3    0    0 -0.42906030284E+02  0.95920106633E+01  0.71081860177E+02  0.83579692207E+02  0.00000000000E+00 0. -1.
</event>
<event>
 8    1  0.5900800E-006  0.1092803E+03  0.7561462E-02  0.1261908E+00
         -2   -1    0    0    0  501 -0.00000000000E+00  0.00000000000E+00  0.29239689417E+02  0.29239689417E+02  0.00000000000E+00 0.  1.
          2   -1    0    0  501    0  0.00000000000E+00 -0.00000000000E+00 -0.50672356334E+03  0.50672356334E+03  0.00000000000E+00 0. -1.
         23    2    1    2    0    0 -0.75352783958E+01 -0.48808139563E+02 -0.14251813539E+03  0.17500782805E+03  0.88754188949E+02 0.  0.
         23    2    1    2    0    0  0.75352783958E+01  0.48808139563E+02 -0.33496573853E+03  0.36095542471E+03  0.12509099778E+03 0.  0.
          5    1    4    4  502    0  0.55534419443E+02 -0.11778389504E+02 -0.13344250025E+03  0.14507644701E+03  0.41800000000E+01 0. -1.
         -5    1    4    4    0  502 -0.47999141048E+02  0.60586529067E+02 -0.20152323828E+03  0.21587897770E+03  0.41800000000E+01 0. -1.
        -11    1    3    3    0    0  0.81186028795E+01 -0.62745860497E+02 -0.51418060798E+02  0.81527735762E+02  0.00000000000E+00 0. -1.
         11    1    3    3    0    0 -0.15653881275E+02  0.13937720934E+02 -0.91100074588E+02  0.93480092286E+02  0.00000000000E+00 0.  1.
</event>
<event>
 8    1  0.5900800E-006  0.1698651E+03  0.7561462E-02  0.1177989E+00
          2   -1    0    0  501    0  0.00000000000E+00  0.00000000000E+00  0.45884122803E+03  0.45884122803E+03  0.00000000000E+00 0. -1.
         -2   -1    0    0    0  501 -0.00000000000E+00 -0.00000000000E+00 -0.78975165180E+02  0.78975165180E+02  0.00000000000E+00 0.  1.
         23    2    1    2    0    0 -0.98445846809E+02 -0.11677834546E+03  0.12666198470E+03  0.21674280610E+03  0.87209052895E+02 0.  0.
         23    2    1    2    0    0  0.98445846809E+02  0.11677834546E+03  0.25320407815E+03  0.32107358711E+03  0.12508867425E+03 0.  0.
          5    1    4    4  502    0  0.96894326714E+02  0.36016582673E+02  0.19720725449E+03  0.22269683070E+03  0.41800000000E+01 0. -1.
         -5    1    4    4    0  502  0.15515200950E+01  0.80761762784E+02  0.55996823654E+02  0.98376756411E+02  0.41800000000E+01 0. -1.
        -11    1    3    3    0    0 -0.52507284654E+02 -0.83602243365E+02  0.27417012167E+02  0.10245995605E+03  0.00000000000E+00 0.  1.
         11    1    3    3    0    0 -0.45938562156E+02 -0.33176102092E+02  0.99244972535E+02  0.11428285005E+03  0.00000000000E+00 0. -1.
</event>
<event>
 8    1  0.5900800E-006  0.7169940E+02  0.7561462E-02  0.1354408E+00
         -2   -1    0    0    0  501 -0.00000000000E+00  0.00000000000E+00  0.11105600756E+03  0.11105600756E+03  0.00000000000E+00 0.  1.
          2   -1    0    0  501    0  0.00000000000E+00 -0.00000000000E+00 -0.12515049128E+03  0.12515049128E+03  0.00000000000E+00 0. -1.
         23    2    1    2    0    0  0.37320211250E+02 -0.19541459101E+02  0.21167181692E+02  0.99600714619E+02  0.87735887642E+02 0.  0.
         23    2    1    2    0    0 -0.37320211250E+02  0.19541459101E+02 -0.35261665410E+02  0.13660578422E+03  0.12507233284E+03 0.  0.
          5    1    4    4  502    0 -0.24460047624E+02  0.26059328029E+02 -0.80910843952E+02  0.88551790361E+02  0.41800000000E+01 0.  1.
         -5    1    4    4    0  502 -0.12860163626E+02 -0.65178689277E+01  0.45649178542E+02  0.48053993855E+02  0.41800000000E+01 0.  1.
        -11    1    3    3    0    0  0.17066914833E+01 -0.47249749508E+02  0.26439284808E+02  0.54170909219E+02  0.00000000000E+00 0.  1.
         11    1    3    3    0    0  0.35613519767E+02  0.27708290407E+02 -0.52721031159E+01  0.45429805401E+02  0.00000000000E+00 0. -1.
</event>
<event>
 8    1  0.5900800E-006  0.8276299E+02  0.7561462E-02  0.1321388E+00
         -1   -1    0    0    0  501 -0.00000000000E+00  0.00000000000E+00  0.80501015753E+02  0.80501015753E+02  0.00000000000E+00 0.  1.
          1   -1    0    0  501    0  0.00000000000E+00 -0.00000000000E+00 -0.83770060441E+03  0.83770060441E+03  0.00000000000E+00 0. -1.
         23    2    1    2    0    0 -0.45412251231E+02 -0.10469523131E+02  0.39089123773E+02  0.11080216915E+03  0.92613593028E+02 0.  0.
         23    2    1    2    0    0  0.45412251231E+02  0.10469523131E+02 -0.79628871243E+03  0.80739945101E+03  0.12508507698E+03 0.  0.
          5    1    4    4  502    0 -0.38442401403E+01  0.43919523906E+02 -0.11087747686E+03  0.11939426300E+03  0.41800000000E+01 0. -1.
         -5    1    4    4    0  502  0.49256491371E+02 -0.33450000775E+02 -0.68541123556E+03  0.68800518801E+03  0.41800000000E+01 0. -1.
        -11    1    3    3    0    0 -0.41448904762E+02  0.83836272291E+01  0.65588801523E+02  0.78039655283E+02  0.00000000000E+00 0.  1.
         11    1    3    3    0    0 -0.39633464695E+01 -0.18853150360E+02 -0.26499677750E+02  0.32762513863E+02  0.00000000000E+00 0. -1.
</event>
<event>
 8    1  0.5900800E-006  0.1373011E+03  0.7561462E-02  0.1217007E+00
         -4   -1    0    0    0  501 -0.00000000000E+00  0.00000000000E+00  0.19190687995E+03  0.19190687995E+03  0.00000000000E+00 0. -1.
          4   -1    0    0  501    0  0.00000000000E+00 -0.00000000000E+00 -0.10382354855E+03  0.10382354855E+03  0.00000000000E+00 0.  1.
         23    2    1    2    0    0  0.54696762418E+02 -0.40676445525E+02  0.65099726350E+02  0.15145974052E+03  0.11855703095E+03 0.  0.
         23    2    1    2    0    0 -0.54696762418E+02  0.40676445525E+02  0.22983605054E+02  0.14427068799E+03  0.12505789168E+03 0.  0.
          5    1    4    4  502    0 -0.71339258570E+01 -0.42249681930E+02  0.22508613266E+02  0.48580228412E+02  0.41800000000E+01 0. -1.
         -5    1    4    4    0  502 -0.47562836561E+02  0.82926127455E+02  0.47499178812E+00  0.95690459575E+02  0.41800000000E+01 0. -1.
        -11    1    3    3    0    0  0.39815800758E+02 -0.82426345287E+02  0.51827292553E+02  0.10519253130E+03  0.00000000000E+00 0.  1.
         11    1    3    3    0    0  0.14880961660E+02  0.41749899762E+02  0.13272433797E+02  0.46267209219E+02  0.00000000000E+00 0. -1.
</event>
<event>
 8    1  0.5900800E-006  0.7097825E+02  0.7561462E-02  0.1356798E+00
         -2   -1    0    0    0  501 -0.00000000000E+00  0.00000000000E+00  0.18971984396E+02  0.18971984396E+02  0.00000000000E+00 0.  1.
          2   -1    0    0  501    0  0.00000000000E+00 -0.00000000000E+00 -0.73042132149E+03  0.73042132149E+03  0.00000000000E+00 0. -1.
         23    2    1    2    0    0  0.52105407065E+01 -0.14591724136E+01 -0.15717360887E+03  0.18115129603E+03  0.89905338052E+02 0.  0.
         23    2    1    2    0    0 -0.52105407065E+01  0.14591724136E+01 -0.55427572822E+03  0.56824200985E+03  0.12509244560E+03 0.  0.
          5    1    4    4  502    0 -0.21407500650E+02 -0.19795863379E+02 -0.26043820275E+02  0.39318065384E+02  0.41800000000E+01 0. -1.
         -5    1    4    4    0  502  0.16196959944E+02  0.21255035792E+02 -0.52823190795E+03  0.52892394447E+03  0.41800000000E+01 0. -1.
        -11    1    3    3    0    0  0.38499459864E+02  0.22358538661E+02 -0.52958975238E+02  0.69186456182E+02  0.00000000000E+00 0.  1.
         11    1    3    3    0    0 -0.33288919157E+02 -0.23817711074E+02 -0.10421463363E+03  0.11196483985E+03  0.00000000000E+00 0. -1.
</event>
<event>
 8    1  0.5900800E-006  0.1632433E+03  0.7561462E-02  0.1185083E+00
         -1   -1    0    0    0  501 -0.00000000000E+00  0.00000000000E+00  0.14193264548E+03  0.14193264548E+03  0.00000000000E+00 0.  1.
          1   -1    0    0  501    0  0.00000000000E+00 -0.00000000000E+00 -0.22332636914E+03  0.22332636914E+03  0.00000000000E+00 0. -1.
         23    2    1    2    0    0  0.13140048088E+03 -0.34597661757E+02 -0.37044978919E+01  0.16489479323E+03  0.93346049483E+02 0.  0.
         23    2    1    2    0    0 -0.13140048088E+03  0.34597661757E+02 -0.77689225761E+02  0.20036422139E+03  0.12508845206E+03 0.  0.
          5    1    4    4  502    0 -0.11881430961E+03  0.63754915950E+02 -0.22806595541E+02  0.13681791797E+03  0.41800000000E+01 0.  1.
         -5    1    4    4    0  502 -0.12586171270E+02 -0.29157254193E+02 -0.54882630220E+02  0.63546303426E+02  0.41800000000E+01 0.  1.
        -11    1    3    3    0    0  0.11310646710E+02  0.23549263184E+02  0.15060988850E+02  0.30155130752E+02  0.00000000000E+00 0.  1.
         11    1    3    3    0    0  0.12008983417E+03 -0.58146924941E+02 -0.18765486742E+02  0.13473966248E+03  0.00000000000E+00 0. -1.
</event>
<event>
 8    1  0.5900800E-006  0.2254476E+03  0.7561462E-02  0.1129886E+00
          2   -1    0    0  501    0  0.00000000000E+00  0.00000000000E+00  0.28630628049E+04  0.28630628049E+04  0.00000000000E+00 0. -1.
         -2   -1    0    0    0  501 -0.00000000000E+00 -0.00000000000E+00 -0.36589870902E+02  0.36589870902E+02  0.00000000000E+00 0.  1.
         23    2    1    2    0    0 -0.19799161700E+03 -0.82845895164E+02  0.41929380238E+03  0.47968910340E+03  0.90720562530E+02 0.  0.
         23    2    1    2    0    0  0.19799161700E+03  0.82845895164E+02  0.24071791317E+04  0.24199635724E+04  0.12509275466E+03 0.  0.
          5    1    4    4  502    0  0.14782000121E+03  0.82128889732E+02  0.22097574857E+04  0.22162223546E+04  0.41800000000E+01 0. -1.
         -5    1    4    4    0  502  0.50171615792E+02  0.71700543141E+00  0.19742164601E+03  0.20374121783E+03  0.41800000000E+01 0. -1.
        -11    1    3    3    0    0 -0.10065297434E+03  0.42941091473E+01  0.21094536049E+03  0.23376784579E+03  0.00000000000E+00 0.  1.
         11    1    3    3    0    0 -0.97338642663E+02 -0.87140004311E+02  0.20834844189E+03  0.24592125761E+03  0.00000000000E+00 0. -1.
</event>
<event>
 8    1  0.5900800E-006  0.1310028E+03  0.7561462E-02  0.1225975E+00
          2   -1    0    0  501    0  0.00000000000E+00  0.00000000000E+00  0.34900272711E+03  0.34900272711E+03  0.00000000000E+00 0.  1.
         -2   -1    0    0    0  501 -0.00000000000E+00 -0.00000000000E+00 -0.60272147606E+02  0.60272147606E+02  0.00000000000E+00 0. -1.
         23    2    1    2    0    0 -0.53281859481E+02 -0.68539628296E+02  0.69300215821E+02  0.14219244581E+03  0.88766742287E+02 0.  0.
         23    2    1    2    0    0  0.53281859481E+02  0.68539628296E+02  0.21943036368E+03  0.26708242891E+03  0.12508677839E+03 0.  0.
          5    1    4    4  502    0  0.85170963964E+02  0.61166040001E+02  0.20651389074E+03  0.23164808875E+03  0.41800000000E+01 0. -1.
         -5    1    4    4    0  502 -0.31889104483E+02  0.73735882945E+01  0.12916472944E+02  0.35434340158E+02  0.41800000000E+01 0. -1.
        -11    1    3    3    0    0 -0.58951987446E+02 -0.37943184600E+01  0.35773922663E+02  0.69061619002E+02  0.00000000000E+00 0.  1.
         11    1    3    3    0    0  0.56701279654E+01 -0.64745309836E+02  0.33526293158E+02  0.73130826809E+02  0.00000000000E+00 0. -1.
</event>
<event>
 8    1  0.5900800E-006  0.1091096E+03  0.7561462E-02  0.1262228E+00
         -2   -1    0    0    0  501 -0.00000000000E+00  0.00000000000E+00  0.10962569069E+02  0.10962569069E+02  0.00000000000E+00 0.  1.
          2   -1    0    0  501    0  0.00000000000E+00 -0.00000000000E+00 -0.19079375442E+04  0.19079375442E+04  0.00000000000E+00 0. -1.
         23    2    1    2    0    0 -0.13692855359E+02  0.63763303118E+02 -0.39844351486E+03  0.41374856170E+03  0.90428892833E+02 0.  0.
         23    2    1    2    0    0  0.13692855359E+02 -0.63763303118E+02 -0.14985314602E+04  0.15051515515E+04  0.12502560804E+03 0.  0.
          5    1    4    4  502    0  0.50835310098E+02 -0.23954708884E+01 -0.10177640570E+04  0.10190442165E+04  0.41800000000E+01 0.  1.
         -5    1    4    4    0  502 -0.37142454739E+02 -0.61367832230E+02 -0.48076740327E+03  0.48610733508E+03  0.41800000000E+01 0.  1.
        -11    1    3    3    0    0  0.26591734131E+02  0.10663391500E+02 -0.40242527247E+02  0.49399283817E+02  0.00000000000E+00 0.  1.
         11    1    3    3    0    0 -0.40284589490E+02  0.53099911618E+02 -0.35820098762E+03  0.36434927788E+03  0.00000000000E+00 0. -1.
</event>
<event>
 8    1  0.5900800E-006  0.1007525E+03  0.7561462E-02  0.1278721E+00
         -2   -1    0    0    0  501 -0.00000000000E+00  0.00000000000E+00  0.28462902062E+02  0.28462902062E+02  0.00000000000E+00 0.  1.
          2   -1    0    0  501    0  0.00000000000E+00 -0.00000000000E+00 -0.53268292627E+03  0.53268292627E+03  0.00000000000E+00 0. -1.
         23    2    1    2    0    0 -0.53206446682E+02 -0.19150563772E+02 -0.23571879963E+03  0.25958745051E+03  0.92868842462E+02 0.  0.
         23    2    1    2    0    0  0.53206446682E+02  0.19150563772E+02 -0.26850122458E+03  0.30155837783E+03  0.12508747969E+03 0.  0.
          5    1    4    4  502    0 -0.95558218264E+01 -0.17860433560E+02 -0.20126780468E+03  0.20232773023E+03  0.41800000000E+01 0. -1.
         -5    1    4    4    0  502  0.62762268509E+02  0.37010997332E+02 -0.67233419896E+02  0.99230647599E+02  0.41800000000E+01 0. -1.
        -11    1    3    3    0    0 -0.36576001345E+02  0.35345113992E+02 -0.94737980312E+02  0.10752844215E+03  0.00000000000E+00 0. -1.
         11    1    3    3    0    0 -0.16630445337E+02 -0.54495677764E+02 -0.14098081932E+03  0.15205900836E+03  0.00000000000E+00 0.  1.
</event>
<event>
 7    1  0.5900800E-006  0.1378433E+03  0.7561462E-02  0.1216261E+00
          2   -1    0    0  501    0  0.00000000000E+00  0.00000000000E+00  0.11478622725E+04  0.11478622725E+04  0.00000000000E+00 0. -1.
         -2   -1    0    0    0  501 -0.00000000000E+00 -0.00000000000E+00 -0.22155512314E+02  0.22155512314E+02  0.00000000000E+00 0.  1.
         23    2    1    2    0    0  0.12509854132E+02 -0.44811320067E+02  0.21624258092E+03  0.23980589840E+03  0.92636192963E+02 0.  0.
          5    1    1    2  502    0  0.75614765366E+02  0.66489499062E+01  0.63227477198E+03  0.63682859621E+03  0.41800000000E+01 0. -1.
         -5    1    1    2    0  502 -0.88124619498E+02  0.38162370161E+02  0.27718940732E+03  0.29338329023E+03  0.41800000000E+01 0.  1.
        -11    1    3    3    0    0  0.12487510915E+02  0.28037345911E+02  0.58895230995E+02  0.66412942478E+02  0.00000000000E+00 0. -1.
         11    1    3    3    0    0  0.22343216782E-01 -0.72848665979E+02  0.15734734993E+03  0.17339295592E+03  0.00000000000E+00 0.  1.
</event>
<event>
 8    1  0.5900800E-006  0.1151946E+03  0.7561462E-02  0.1251242E+00
         -1   -1    0    0    0  501 -0.00000000000E+00  0.00000000000E+00  0.63970762021E+03  0.63970762021E+03  0.00000000000E+00 0.  1.
          1   -1    0    0  501    0  0.00000000000E+00 -0.00000000000E+00 -0.28161369531E+02  0.28161369531E+02  0.00000000000E+00 0. -1.
         23    2    1    2    0    0  0.43505504153E+02 -0.60289697847E+02  0.34380370801E+03  0.36315335943E+03  0.90287298444E+02 0.  0.
         23    2    1    2    0    0 -0.43505504153E+02  0.60289697847E+02  0.26774254267E+03  0.30471563032E+03  0.12505186783E+03 0.  0.
          5    1    4    4  502    0  0.33828898446E+02  0.38303566496E+02  0.46271830482E+02  0.69065999396E+02  0.41800000000E+01 0. -1.
         -5    1    4    4    0  502 -0.77334402600E+02  0.21986131351E+02  0.22147071219E+03  0.23564963092E+03  0.41800000000E+01 0. -1.
        -11    1    3    3    0    0  0.54441677108E+02 -0.21884522280E+02  0.29151134652E+03  0.29735785457E+03  0.00000000000E+00 0.  1.
         11    1    3    3    0    0 -0.10936172955E+02 -0.38405175567E+02  0.52292361491E+02  0.65795504858E+02  0.00000000000E+00 0. -1.
</event>
<event>
 8    1  0.5900800E-006  0.1186397E+03  0.7561462E-02  0.1245358E+00
          1   -1    0    0  501    0  0.00000000000E+00  0.00000000000E+00  0.69928324524E+03  0.69928324524E+03  0.00000000000E+00 0. -1.
         -1   -1    0    0    0  501 -0.00000000000E+00 -0.00000000000E+00 -0.34874996365E+02  0.34874996365E+02  0.00000000000E+00 0.  1.
         23    2    1    2    0    0 -0.55563133255E+02 -0.48038227566E+02  0.95778859758E+02  0.14731777321E+03  0.84463028850E+02 0.  0.
         23    2    1    2    0    0  0.55563133255E+02  0.48038227566E+02  0.56862938912E+03  0.58684046839E+03  0.12508964822E+03 0.  0.
          5    1    4    4  502    0 -0.30280122931E+02  0.13404381320E+02  0.31592716193E+03  0.31768539048E+03  0.41800000000E+01 0. -1.
         -5    1    4    4    0  502  0.85843256186E+02  0.34633846246E+02  0.25270222719E+03  0.26915507791E+03  0.41800000000E+01 0. -1.
        -11    1    3    3    0    0 -0.28418383108E+01 -0.57591383520E+02  0.41455700767E+02  0.71017030541E+02  0.00000000000E+00 0.  1.
         11    1    3    3    0    0 -0.52721294944E+02  0.95531559544E+01  0.54323158992E+02  0.76300742671E+02  0.00000000000E+00 0. -1.
</event>
<event>
 8    1  0.5900800E-006  0.1125011E+03  0.7561462E-02  0.1256007E+00
         -1   -1    0    0    0  501 -0.00000000000E+00  0.00000000000E+00  0.19807661587E+03  0.19807661587E+03  0.00000000000E+00 0.  1.
          1   -1    0    0  501    0  0.00000000000E+00 -0.00000000000E+00 -0.72435804652E+02  0.72435804652E+02  0.00000000000E+00 0. -1.
         23    2    1    2    0    0 -0.76816854398E-01 -0.50727555778E+02  0.71325752603E+02  0.12501146484E+03  0.89259243446E+02 0.  0.
         23    2    1    2    0    0  0.76816854398E-01  0.50727555778E+02  0.54315058613E+02  0.14550095568E+03  0.12508841552E+03 0.  0.
          5    1    4    4  502    0 -0.86808274998E+01 -0.38113506695E+02  0.37958126819E+02  0.54646939075E+02  0.41800000000E+01 0.  1.
         -5    1    4    4    0  502  0.87576443542E+01  0.88841062473E+02  0.16356931793E+02  0.90854016607E+02  0.41800000000E+01 0.  1.
        -11    1    3    3    0    0 -0.23700447453E+02  0.13923874666E+02  0.23850052929E+01  0.27591189634E+02  0.00000000000E+00 0. -1.
         11    1    3    3    0    0  0.23623630598E+02 -0.64651430444E+02  0.68940747310E+02  0.97420275204E+02  0.00000000000E+00 0.  1.
</event>
<event>
 8    1  0.5900800E-006  0.1136180E+03  0.7561462E-02  0.1254013E+00
         -2   -1    0    0    0  501 -0.00000000000E+00  0.00000000000E+00  0.43670169416E+03  0.43670169416E+03  0.00000000000E+00 0.  1.
          2   -1    0    0  501    0  0.00000000000E+00 -0.00000000000E+00 -0.52776270540E+02  0.52776270540E+02  0.00000000000E+00 0. -1.
         23    2    1    2    0    0  0.89185648845E+02  0.57538242036E+02  0.16253497714E+03  0.21393052374E+03  0.89910627505E+02 0.  0.
         23    2    1    2    0    0 -0.89185648845E+02 -0.57538242036E+02  0.22139044648E+03  0.27554744096E+03  0.12509169904E+03 0.  0.
          5    1    4    4  502    0 -0.14441907544E+02  0.29695189913E+01  0.16140279368E+03  0.16212871721E+03  0.41800000000E+01 0.  1.
         -5    1    4    4    0  502 -0.74743741301E+02 -0.60507761027E+02  0.59987652802E+02  0.11341872375E+03  0.41800000000E+01 0.  1.
        -11    1    3    3    0    0  0.20339713900E+02 -0.67788982502E+01  0.96562307531E+02  0.98913783967E+02  0.00000000000E+00 0.  1.
         11    1    3    3    0    0  0.68845934945E+02  0.64317140286E+02  0.65972669605E+02  0.11501673977E+03  0.00000000000E+00 0. -1.
</event>
<event>
 8    1  0.5900800E-006  0.1370076E+03  0.7561462E-02  0.1217413E+00
         -2   -1    0    0    0  501 -0.00000000000E+00  0.00000000000E+00  0.36535922902E+02  0.36535922902E+02  0.00000000000E+00 0.  1.
          2   -1    0    0  501    0  0.00000000000E+00 -0.00000000000E+00 -0.59595386391E+03  0.59595386391E+03  0.00000000000E+00 0. -1.
         23    2    1    2    0    0 -0.67916156968E+02 -0.57761693599E+02 -0.15939761492E+03  0.20399178332E+03  0.90862700782E+02 0.  0.
         23    2    1    2    0    0  0.67916156968E+02  0.57761693599E+02 -0.40002032609E+03  0.42849800350E+03  0.12508101412E+03 0.  0.
          5    1    4    4  502    0 -0.20228588219E+01  0.74549302282E+02 -0.26662189396E+03  0.27688697543E+03  0.41800000000E+01 0.  1.
         -5    1    4    4    0  502  0.69939015790E+02 -0.16787608682E+02 -0.13339843213E+03  0.15161102806E+03  0.41800000000E+01 0.  1.
        -11    1    3    3    0    0 -0.74131437305E+02 -0.77102748142E+02 -0.13246743741E+03  0.17025840873E+03  0.00000000000E+00 0. -1.
         11    1    3    3    0    0  0.62152803367E+01  0.19341054543E+02 -0.26930177510E+02  0.33733374590E+02  0.00000000000E+00 0.  1.
</event>
<event>
 8    1  0.5900800E-006  0.8244526E+02  0.7561462E-02  0.1322252E+00
          2   -1    0    0  501    0  0.00000000000E+00  0.00000000000E+00  0.51908613179E+03  0.51908613179E+03  0.00000000000E+00 0.  1.
         -2   -1    0    0    0  501 -0.00000000000E+00 -0.00000000000E+00 -0.23445633556E+02  0.23445633556E+02  0.00000000000E+00 0. -1.
         23    2    1    2    0    0 -0.13209893058E+02  0.79611357113E+01  0.16800151886E+03  0.19165141979E+03  0.90927858281E+02 0.  0.
         23    2    1    2    0    0  0.13209893058E+02 -0.79611357113E+01  0.32763897937E+03  0.35088034555E+03  0.12462678338E+03 0.  0.
          5    1    4    4  502    0 -0.99208678264E+01  0.44951843995E+02  0.24884247183E+03  0.25309907167E+03  0.41800000000E+01 0. -1.
         -5    1    4    4    0  502  0.23130760885E+02 -0.52912979707E+02  0.78796507543E+02  0.97781273879E+02  0.41800000000E+01 0. -1.
        -11    1    3    3    0    0 -0.27812551452E+02 -0.16457330924E+02  0.14301117642E+02  0.35339831992E+02  0.00000000000E+00 0. -1.
         11    1    3    3    0    0  0.14602658394E+02  0.24418466635E+02  0.15370040122E+03  0.15631158780E+03  0.00000000000E+00 0.  1.
</event>
<event>
 8    1  0.5900800E-006  0.1122199E+03  0.7561462E-02  0.1256513E+00
          2   -1    0    0  501    0  0.00000000000E+00  0.00000000000E+00  0.72315726517E+03  0.72315726517E+03  0.00000000000E+00 0.  1.
         -2   -1    0    0    0  501 -0.00000000000E+00 -0.00000000000E+00 -0.18490602530E+02  0.18490602530E+02  0.00000000000E+00 0. -1.
         23    2    1    2    0    0  0.35330167960E+02 -0.20085418202E+02  0.30232937396E+03  0.31835850103E+03  0.91090285028E+02 0.  0.
         23    2    1    2    0    0 -0.35330167960E+02  0.20085418202E+02  0.40233728868E+03  0.42328936667E+03  0.12508776631E+03 0.  0.
          5    1    4    4  502    0  0.38506478624E+02  0.32416197741E+02  0.22775992780E+03  0.23329298293E+03  0.41800000000E+01 0.  1.
         -5    1    4    4    0  502 -0.73836646584E+02 -0.12330779539E+02  0.17457736087E+03  0.18999638374E+03  0.41800000000E+01 0.  1.
        -11    1    3    3    0    0 -0.17592405989E+02  0.24220827633E+02  0.11078201087E+03  0.11475537100E+03  0.00000000000E+00 0. -1.
         11    1    3    3    0    0  0.52922573949E+02 -0.44306245835E+02  0.19154736309E+03  0.20360313003E+03  0.00000000000E+00 0.  1.
</event>
<event>
 8    1  0.5900800E-006  0.1003865E+03  0.7561462E-02  0.1279485E+00
          4   -1    0    0  501    0  0.00000000000E+00  0.00000000000E+00  0.36969928000E+03  0.36969928000E+03  0.00000000000E+00 0. -1.
         -4   -1    0    0    0  501 -0.00000000000E+00 -0.00000000000E+00 -0.37892107094E+02  0.37892107094E+02  0.00000000000E+00 0.  1.
         23    2    1    2    0    0 -0.40925563676E+02  0.66281188595E+01  0.10450022734E+03  0.14484613700E+03  0.91330565355E+02 0.  0.
         23    2    1    2    0    0  0.40925563676E+02 -0.66281188595E+01  0.22730694557E+03  0.26274525010E+03  0.12509110769E+03 0.  0.
          5    1    4    4  502    0  0.97418365403E+01 -0.54781924178E+02  0.17943142089E+03  0.18790707756E+03  0.41800000000E+01 0. -1.
         -5    1    4    4    0  502  0.31183727136E+02  0.48153805319E+02  0.47875524679E+02  0.74838172533E+02  0.41800000000E+01 0. -1.
        -11    1    3    3    0    0 -0.54118137436E+02 -0.20033096923E+02  0.99006207892E+02  0.11459636544E+03  0.00000000000E+00 0. -1.
         11    1    3    3    0    0  0.13192573761E+02  0.26661215783E+02  0.54940194465E+01  0.30249771555E+02  0.00000000000E+00 0.  1.
</event>
<event>
 8    1  0.5900800E-006  0.1187151E+03  0.7561462E-02  0.1245232E+00
         -2   -1    0    0    0  501 -0.00000000000E+00  0.00000000000E+00  0.53307785451E+02  0.53307785451E+02  0.00000000000E+00 0.  1.
          2   -1    0    0  501    0  0.00000000000E+00 -0.00000000000E+00 -0.36481499172E+03  0.36481499172E+03  0.00000000000E+00 0. -1.
         23    2    1    2    0    0 -0.72473911194E+02  0.34428268099E+02 -0.89169953815E+02  0.15069689387E+03  0.91216773191E+02 0.  0.
         23    2    1    2    0    0  0.72473911194E+02 -0.34428268099E+02 -0.22233725245E+03  0.26742588330E+03  0.12507987760E+03 0.  0.
          5    1    4    4  502    0  0.98559775626E+02 -0.42752395505E+02 -0.11870887267E+03  0.16015950032E+03  0.41800000000E+01 0. -1.
         -5    1    4    4    0  502 -0.26085864432E+02  0.83241274057E+01 -0.10362837979E+03  0.10726638298E+03  0.41800000000E+01 0. -1.
        -11    1    3    3    0    0 -0.74352130852E+02  0.69516464257E+01 -0.96669020332E+02  0.12215344548E+03  0.00000000000E+00 0. -1.
         11    1    3    3    0    0  0.18782196578E+01  0.27476621673E+02  0.74990665166E+01  0.28543448395E+02  0.00000000000E+00 0.  1.
</event>
<event>
 8    1  0.5900800E-006  0.1754296E+03  0.7561462E-02  0.1172301E+00
         -1   -1    0    0    0  501 -0.00000000000E+00  0.00000000000E+00  0.42580845619E+02  0.42580845619E+02  0.00000000000E+00 0.  1.
          1   -1    0    0  501    0  0.00000000000E+00 -0.00000000000E+00 -0.90732381675E+03  0.90732381675E+03  0.00000000000E+00 0. -1.
         23    2    1    2    0    0 -0.12952209573E+03  0.97436868937E+02 -0.35268897305E+03  0.39843703084E+03  0.89959096947E+02 0.  0.
         23    2    1    2    0    0  0.12952209573E+03 -0.97436868937E+02 -0.51205399808E+03  0.55146763153E+03  0.12508930794E+03 0.  0.
          5    1    4    4  502    0  0.10942948007E+03 -0.24430841570E+02 -0.40513314521E+03  0.42038317626E+03  0.41800000000E+01 0. -1.
         -5    1    4    4    0  502  0.20092615662E+02 -0.73006027367E+02 -0.10692085287E+03  0.13108445527E+03  0.41800000000E+01 0. -1.
        -11    1    3    3    0    0 -0.80044134583E+02  0.69472794850E+02 -0.30923646148E+03  0.32689558243E+03  0.00000000000E+00 0. -1.
         11    1    3    3    0    0 -0.49477961148E+02  0.27964074087E+02 -0.43452511577E+02  0.71541448415E+02  0.00000000000E+00 0.  1.
</event>
<event>
 8    1  0.5900800E-006  0.1302689E+03  0.7561462E-02  0.1227057E+00
         -2   -1    0    0    0  501 -0.00000000000E+00  0.00000000000E+00  0.46972338141E+03  0.46972338141E+03  0.00000000000E+00 0.  1.
          2   -1    0    0  501    0  0.00000000000E+00 -0.00000000000E+00 -0.55410019359E+02  0.55410019359E+02  0.00000000000E+00 0. -1.
         23    2    1    2    0    0 -0.10261084687E+02 -0.10914614707E+03  0.26877124861E+03  0.30411680320E+03  0.90724167831E+02 0.  0.
         23    2    1    2    0    0  0.10261084687E+02  0.10914614707E+03  0.14554211344E+03  0.22101659757E+03  0.12509060052E+03 0.  0.
          5    1    4    4  502    0  0.50622556929E+02  0.49784834297E+02  0.12888569801E+03  0.14720790926E+03  0.41800000000E+01 0.  1.
         -5    1    4    4    0  502 -0.40361472241E+02  0.59361312771E+02  0.16656415425E+02  0.73808688311E+02  0.41800000000E+01 0.  1.
        -11    1    3    3    0    0  0.15527071783E+02 -0.60374342392E+02  0.54327424314E+02  0.82689903918E+02  0.00000000000E+00 0. -1.
         11    1    3    3    0    0 -0.25788156470E+02 -0.48771804677E+02  0.21444382430E+03  0.22142689928E+03  0.00000000000E+00 0.  1.
</event>
<event>
 8    1  0.5900800E-006  0.1826469E+03  0.7561462E-02  0.1165266E+00
          1   -1    0    0  501    0  0.00000000000E+00  0.00000000000E+00  0.72422680772E+02  0.72422680772E+02  0.00000000000E+00 0. -1.
         -1   -1    0    0    0  501 -0.00000000000E+00 -0.00000000000E+00 -0.57436672040E+03  0.57436672040E+03  0.00000000000E+00 0.  1.
         23    2    1    2    0    0  0.17147439503E+03 -0.78035690344E+01 -0.26897115304E+03  0.33153436883E+03  0.90028843762E+02 0.  0.
         23    2    1    2    0    0 -0.17147439503E+03  0.78035690344E+01 -0.23297288660E+03  0.31525503235E+03  0.12507999717E+03 0.  0.
          5    1    4    4  502    0 -0.92127515042E+02 -0.21626399559E+02 -0.20533277275E+03  0.22612872474E+03  0.41800000000E+01 0.  1.
         -5    1    4    4    0  502 -0.79346879986E+02  0.29429968593E+02 -0.27640113844E+02  0.89126307610E+02  0.41800000000E+01 0.  1.
        -11    1    3    3    0    0  0.67433305768E+02 -0.38129685108E+02 -0.16043138145E+03  0.17815541465E+03  0.00000000000E+00 0.  1.
         11    1    3    3    0    0  0.10404108926E+03  0.30326116073E+02 -0.10853977158E+03  0.15337895418E+03  0.00000000000E+00 0. -1.
</event>
<event>
 8    1  0.5900800E-006  0.1076058E+03  0.7561462E-02  0.1265069E+00
         -2   -1    0    0    0  501 -0.00000000000E+00  0.00000000000E+00  0.61339767993E+03  0.61339767993E+03  0.00000000000E+00 0. -1.
          2   -1    0    0  501    0  0.00000000000E+00 -0.00000000000E+00 -0.27728949735E+02  0.27728949735E+02  0.00000000000E+00 0.  1.
         23    2    1    2    0    0  0.62620861520E+02  0.69003140076E+01  0.17739108692E+03  0.20949330493E+03  0.91928561706E+02 0.  0.
         23    2    1    2    0    0 -0.62620861520E+02 -0.69003140076E+01  0.40827764327E+03  0.43163332474E+03  0.12509079263E+03 0.  0.
          5    1    4    4  502    0 -0.81390688388E+02 -0.16981875998E+02  0.14298706830E+03  0.16545574142E+03  0.41800000000E+01 0.  1.
         -5    1    4    4    0  502  0.18769826868E+02  0.10081561991E+02  0.26529057497E+03  0.26617758332E+03  0.41800000000E+01 0.  1.
        -11    1    3    3    0    0  0.47626523436E+02 -0.39256353016E+02  0.11426013358E+03  0.12986425649E+03  0.00000000000E+00 0. -1.
         11    1    3    3    0    0  0.14994338084E+02  0.46156667024E+02  0.63130953342E+02  0.79629048438E+02  0.00000000000E+00 0.  1.
</event>
<event>
 8    1  0.5900800E-006  0.8570291E+02  0.7561462E-02  0.1313605E+00
         -2   -1    0    0    0  501 -0.00000000000E+00  0.00000000000E+00  0.64863545559E+02  0.64863545559E+02  0.00000000000E+00 0. -1.
          2   -1    0    0  501    0  0.00000000000E+00 -0.00000000000E+00 -0.21803576809E+03  0.21803576809E+03  0.00000000000E+00 0.  1.
         23    2    1    2    0    0  0.12538143187E+02 -0.16410093849E+02 -0.15246021665E+02  0.95560472157E+02  0.92048174602E+02 0.  0.
         23    2    1    2    0    0 -0.12538143187E+02  0.16410093849E+02 -0.13792620087E+03  0.18733884149E+03  0.12508280630E+03 0.  0.
          5    1    4    4  502    0 -0.65839006191E+02  0.17194534310E+02 -0.10283800725E+03  0.12338377074E+03  0.41800000000E+01 0. -1.
         -5    1    4    4    0  502  0.53300863004E+02 -0.78444046153E+00 -0.35088193614E+02  0.63955070752E+02  0.41800000000E+01 0. -1.
        -11    1    3    3    0    0 -0.21100538249E+01 -0.29823646434E+02 -0.48413115937E+02  0.56901072121E+02  0.00000000000E+00 0.  1.
         11    1    3    3    0    0  0.14648197012E+02  0.13413552585E+02  0.33167094272E+02  0.38659400036E+02  0.00000000000E+00 0. -1.
</event>
<event>
 8    1  0.5900800E-006  0.1256145E+03  0.7561462E-02  0.1234112E+00
          1   -1    0    0  501    0  0.00000000000E+00  0.00000000000E+00  0.11712670299E+04  0.11712670299E+04  0.00000000000E+00 0. -1.
         -1   -1    0    0    0  501 -0.00000000000E+00 -0.00000000000E+00 -0.15625455732E+02  0.15625455732E+02  0.00000000000E+00 0.  1.
         23    2    1    2    0    0  0.58122424775E+02  0.42975315359E+02  0.35274335678E+03  0.37110053650E+03  0.89792195941E+02 0.  0.
         23    2    1    2    0    0 -0.58122424775E+02 -0.42975315359E+02  0.80289821737E+03  0.81579194910E+03  0.12508342328E+03 0.  0.
          5    1    4    4  502    0  0.91938239672E+01 -0.66989378103E+02  0.49881177885E+03  0.50339126561E+03  0.41800000000E+01 0.  1.
         -5    1    4    4    0  502 -0.67316248743E+02  0.24014062745E+02  0.30408643852E+03  0.31240068349E+03  0.41800000000E+01 0.  1.
        -11    1    3    3    0    0  0.72007356171E+02  0.57237177375E+02  0.31824449426E+03  0.33127135697E+03  0.00000000000E+00 0. -1.
         11    1    3    3    0    0 -0.13884931396E+02 -0.14261862017E+02  0.34498862512E+02  0.39829179538E+02  0.00000000000E+00 0.  1.
</event>
<event>
 8    1  0.5900800E-006  0.1380838E+03  0.7561462E-02  0.1215931E+00
         -1   -1    0    0    0  501 -0.00000000000E+00  0.00000000000E+00  0.20450166812E+02  0.20450166812E+02  0.00000000000E+00 0.  1.
          1   -1    0    0  501    0  0.00000000000E+00 -0.00000000000E+00 -0.11983126629E+04  0.11983126629E+04  0.00000000000E+00 0. -1.
         23    2    1    2    0    0 -0.19547695565E+02  0.10994955213E+03 -0.48931311310E+03  0.51008858979E+03  0.91060586273E+02 0.  0.
         23    2    1    2    0    0  0.19547695565E+02 -0.10994955213E+03 -0.68854938300E+03  0.70867423993E+03  0.12509160280E+03 0.  0.
          5    1    4    4  502    0  0.49157642951E+02 -0.12060047951E+03 -0.61355022945E+03  0.62723385270E+03  0.41800000000E+01 0.  1.
         -5    1    4    4    0  502 -0.29609947387E+02  0.10650927376E+02 -0.74999153549E+02  0.81440387225E+02  0.41800000000E+01 0.  1.
        -11    1    3    3    0    0 -0.97892340989E+01  0.11130685383E+02 -0.49140700438E+01  0.15616316651E+02  0.00000000000E+00 0.  1.
         11    1    3    3    0    0 -0.97584614656E+01  0.98818866747E+02 -0.48439904305E+03  0.49447227314E+03  0.00000000000E+00 0. -1.
</event>
<event>
 8    1  0.5900800E-006  0.1580808E+03  0.7561462E-02  0.1190881E+00
          2   -1    0    0  501    0  0.00000000000E+00  0.00000000000E+00  0.14298320748E+04  0.14298320748E+04  0.00000000000E+00 0. -1.
         -2   -1    0    0    0  501 -0.00000000000E+00 -0.00000000000E+00 -0.22157543763E+02  0.22157543763E+02  0.00000000000E+00 0.  1.
         23    2    1    2    0    0 -0.19094169833E+02  0.13474245482E+03  0.50994802609E+03  0.53543072887E+03  0.90105269825E+02 0.  0.
         23    2    1    2    0    0  0.19094169833E+02 -0.13474245482E+03  0.89772650499E+03  0.91655888974E+03  0.12508878504E+03 0.  0.
          5    1    4    4  502    0  0.26013565426E+02  0.14661919430E+02  0.24803619495E+03  0.24986216976E+03  0.41800000000E+01 0. -1.
         -5    1    4    4    0  502 -0.69193955924E+01 -0.14940437425E+03  0.64969031003E+03  0.66669671998E+03  0.41800000000E+01 0. -1.
        -11    1    3    3    0    0 -0.39925819765E+01  0.60055652704E+02  0.87727616989E+02  0.10638964665E+03  0.00000000000E+00 0.  1.
         11    1    3    3    0    0 -0.15101587857E+02  0.74686802119E+02  0.42222040910E+03  0.42904108221E+03  0.00000000000E+00 0. -1.
</event>
<event>
 8    1  0.5900800E-006  0.1818458E+03  0.7561462E-02  0.1166029E+00
          2   -1    0    0  501    0  0.00000000000E+00  0.00000000000E+00  0.71411533335E+03  0.71411533335E+03  0.00000000000E+00 0.  1.
         -2   -1    0    0    0  501 -0.00000000000E+00 -0.00000000000E+00 -0.66439540553E+02  0.66439540553E+02  0.00000000000E+00 0. -1.
         23    2    1    2    0    0 -0.14433927420E+03  0.25777790515E+02  0.99176575928E+02  0.19917871666E+03  0.91311814127E+02 0.  0.
         23    2    1    2    0    0  0.14433927420E+03 -0.25777790515E+02  0.54849921687E+03  0.58137615723E+03  0.12509406356E+03 0.  0.
          5    1    4    4  502    0  0.16589583085E+03 -0.32650267631E+02  0.49643231922E+03  0.52445208230E+03  0.41800000000E+01 0. -1.
         -5    1    4    4    0  502 -0.21556556646E+02  0.68724771153E+01  0.52066897648E+02  0.56924074932E+02  0.41800000000E+01 0. -1.
        -11    1    3    3    0    0 -0.77771747694E+02  0.58557908005E+02  0.67697061950E+02  0.11857641218E+03  0.00000000000E+00 0.  1.
         11    1    3    3    0    0 -0.66567526505E+02 -0.32780117489E+02  0.31479513978E+02  0.80602304483E+02  0.00000000000E+00 0. -1.
</event>
<event>
 7    1  0.5900800E-006  0.1478883E+03  0.7561462E-02  0.1203092E+00
         -1   -1    0    0    0  501 -0.00000000000E+00  0.00000000000E+00  0.36006552770E+02  0.36006552770E+02  0.00000000000E+00 0.  1.
          1   -1    0    0  501    0  0.00000000000E+00 -0.00000000000E+00 -0.83045528154E+03  0.83045528154E+03  0.00000000000E+00 0. -1.
         23    2    1    2    0    0 -0.14044982539E+02  0.15953261011E+02 -0.12853455582E+03  0.15843555545E+03  0.90160551910E+02 0.  0.
          5    1    1    2  502    0  0.95430050303E+02 -0.62853763524E+02 -0.53355323278E+03  0.54566841095E+03  0.41800000000E+01 0. -1.
         -5    1    1    2    0  502 -0.81385067764E+02  0.46900502514E+02 -0.13236094017E+03  0.16235786791E+03  0.41800000000E+01 0.  1.
        -11    1    3    3    0    0  0.29155778158E+02  0.30141177434E+02 -0.88165400643E+02  0.97630363349E+02  0.00000000000E+00 0.  1.
         11    1    3    3    0    0 -0.43200760697E+02 -0.14187916423E+02 -0.40369155178E+02  0.60805192106E+02  0.00000000000E+00 0. -1.
</event>
<event>
 8    1  0.5900800E-006  0.1369509E+03  0.7561462E-02  0.1217492E+00
         -2   -1    0    0    0  501 -0.00000000000E+00  0.00000000000E+00  0.24001669570E+02  0.24001669570E+02  0.00000000000E+00 0.  1.
          2   -1    0    0  501    0  0.00000000000E+00 -0.00000000000E+00 -0.98536883641E+03  0.98536883641E+03  0.00000000000E+00 0. -1.
         23    2    1    2    0    0 -0.97467496270E+02  0.43417189774E+02 -0.50130749765E+03  0.52081486132E+03  0.92487552486E+02 0.  0.
         23    2    1    2    0    0  0.97467496270E+02 -0.43417189774E+02 -0.46005966919E+03  0.48855564467E+03  0.12508698384E+03 0.  0.
          5    1    4    4  502    0  0.12310255630E+02 -0.58494286516E+02 -0.30619229680E+03  0.31200051117E+03  0.41800000000E+01 0.  1.
         -5    1    4    4    0  502  0.85157240640E+02  0.15077096742E+02 -0.15386737239E+03  0.17655513350E+03  0.41800000000E+01 0.  1.
        -11    1    3    3    0    0 -0.14634315457E+01  0.30492305286E+02 -0.45262015452E+02  0.54594618383E+02  0.00000000000E+00 0.  1.
         11    1    3    3    0    0 -0.96004064724E+02  0.12924884487E+02 -0.45604548220E+03  0.46622024293E+03  0.00000000000E+00 0. -1.
</event>
<event>
 8    1  0.5900800E-006  0.1061731E+03  0.7561462E-02  0.1267825E+00
         -1   -1    0    0    0  501 -0.00000000000E+00  0.00000000000E+00  0.39443732738E+02  0.39443732738E+02  0.00000000000E+00 0.  1.
          1   -1    0    0  501    0  0.00000000000E+00 -0.00000000000E+00 -0.51853496990E+03  0.51853496990E+03  0.00000000000E+00 0. -1.
         23    2    1    2    0    0  0.83893865676E+02 -0.26471274420E+02 -0.16298477152E+03  0.20682443850E+03  0.92051092034E+02 0.  0.
         23    2    1    2    0    0 -0.83893865676E+02  0.26471274420E+02 -0.31610646564E+03  0.35115426414E+03  0.12508841088E+03 0.  0.
          5    1    4    4  502    0 -0.20286200812E+02  0.33749942648E+02 -0.26813704385E+03  0.27104526422E+03  0.41800000000E+01 0.  1.
         -5    1    4    4    0  502 -0.63607664864E+02 -0.72786682276E+01 -0.47969421786E+02  0.80108999913E+02  0.41800000000E+01 0.  1.
        -11    1    3    3    0    0  0.73678044256E+02  0.66019771589E+01 -0.51618469008E+02  0.90202586717E+02  0.00000000000E+00 0.  1.
         11    1    3    3    0    0  0.10215821420E+02 -0.33073251579E+02 -0.11136630251E+03  0.11662185178E+03  0.00000000000E+00 0. -1.
</event>
<event>
 8    1  0.5900800E-006  0.1058162E+03  0.7561462E-02  0.1268520E+00
          1   -1    0    0  501    0  0.00000000000E+00  0.00000000000E+00  0.95108761318E+03  0.95108761318E+03  0.00000000000E+00 0. -1.
         -1   -1    0    0    0  501 -0.00000000000E+00 -0.00000000000E+00 -0.12269900880E+02  0.12269900880E+02  0.00000000000E+00 0.  1.
         23    2    1    2    0    0 -0.13087980908E+02 -0.29912901718E+02  0.38400688266E+03  0.39584677071E+03  0.90373132149E+02 0.  0.
         23    2    1    2    0    0  0.13087980908E+02  0.29912901718E+02  0.55481082964E+03  0.56751074335E+03  0.11483601440E+03 0.  0.
          5    1    4    4  502    0 -0.46188813349E+02 -0.97877156533E+01  0.19575116426E+03  0.20140803501E+03  0.41800000000E+01 0. -1.
         -5    1    4    4    0  502  0.59276794257E+02  0.39700617371E+02  0.35905966537E+03  0.36610270834E+03  0.41800000000E+01 0.  1.
        -11    1    3    3    0    0  0.25517307203E+02  0.18007261048E+02  0.84577512765E+02  0.90159581204E+02  0.00000000000E+00 0.  1.
         11    1    3    3    0    0 -0.38605288112E+02 -0.47920162766E+02  0.29942936990E+03  0.30568718950E+03  0.00000000000E+00 0. -1.
</event>
<event>
 8    1  0.5900800E-006  0.1139031E+03  0.7561462E-02  0.1253508E+00
          1   -1    0    0  501    0  0.00000000000E+00  0.00000000000E+00  0.22999240777E+03  0.22999240777E+03  0.00000000000E+00 0. -1.
         -1   -1    0    0    0  501 -0.00000000000E+00 -0.00000000000E+00 -0.75294445676E+02  0.75294445676E+02  0.00000000000E+00 0.  1.
         23    2    1    2    0    0 -0.17966420475E+02 -0.37594440602E+02 -0.52901770676E+01  0.97970093722E+02  0.88509994134E+02 0.  0.
         23    2    1    2    0    0  0.17966420475E+02  0.37594440602E+02  0.15998813916E+03  0.20731675973E+03  0.12509156631E+03 0.  0.
          5    1    4    4  502    0 -0.13281044317E+02 -0.42983231469E+02  0.50384423707E+02  0.67675748078E+02  0.41800000000E+01 0. -1.
         -5    1    4    4    0  502  0.31247464792E+02  0.80577672071E+02  0.10960371546E+03  0.13964101165E+03  0.41800000000E+01 0. -1.
        -11    1    3    3    0    0  0.33248903435E+02 -0.29097838485E+02 -0.11578449548E+02  0.45675313662E+02  0.00000000000E+00 0.  1.
         11    1    3    3    0    0 -0.51215323910E+02 -0.84966021163E+01  0.62882724805E+01  0.52294780060E+02  0.00000000000E+00 0. -1.
</event>
<event>
 8    1  0.5900800E-006  0.1339186E+03  0.7561462E-02  0.1221754E+00
          1   -1    0    0  501    0  0.00000000000E+00  0.00000000000E+00  0.79246421294E+03  0.79246421294E+03  0.00000000000E+00 0. -1.
         -1   -1    0    0    0  501 -0.00000000000E+00 -0.00000000000E+00 -0.43980187902E+02  0.43980187902E+02  0.00000000000E+00 0.  1.
         23    2    1    2    0    0 -0.92818235609E+02 -0.40548055572E+02  0.10121802774E+03  0.16946462531E+03  0.90630019428E+02 0.  0.
         23    2    1    2    0    0  0.92818235609E+02  0.40548055572E+02  0.64726599730E+03  0.66697977552E+03  0.12509748210E+03 0.  0.
          5    1    4    4  502    0  0.21893025746E+02 -0.43816702756E+02  0.24396151430E+03  0.24886522633E+03  0.41800000000E+01 0. -1.
         -5    1    4    4    0  502  0.70925209862E+02  0.84364758328E+02  0.40330448299E+03  0.41811454919E+03  0.41800000000E+01 0. -1.
        -11    1    3    3    0    0 -0.68829228239E+02 -0.10018959369E+02  0.99262183942E+01  0.70259319798E+02  0.00000000000E+00 0.  1.
         11    1    3    3    0    0 -0.23989007370E+02 -0.30529096202E+02  0.91291809342E+02  0.99205305516E+02  0.00000000000E+00 0. -1.
</event>
<event>
 8    1  0.5900800E-006  0.9944687E+02  0.7561462E-02  0.1281463E+00
          3   -1    0    0  501    0  0.00000000000E+00  0.00000000000E+00  0.29466175992E+02  0.29466175992E+02  0.00000000000E+00 0. -1.
         -3   -1    0    0    0  501 -0.00000000000E+00 -0.00000000000E+00 -0.51020625304E+03  0.51020625304E+03  0.00000000000E+00 0.  1.
         23    2    1    2    0    0 -0.47196305537E+01  0.26463870519E+02 -0.32471525703E+03  0.33789702572E+03  0.89508605639E+02 0.  0.
         23    2    1    2    0    0  0.47196305537E+01 -0.26463870519E+02 -0.15602482001E+03  0.20177540331E+03  0.12508779943E+03 0.  0.
          5    1    4    4  502    0  0.34072660041E+02  0.29161747803E+02 -0.12220522649E+03  0.13024186530E+03  0.41800000000E+01 0. -1.
         -5    1    4    4    0  502 -0.29353029488E+02 -0.55625618322E+02 -0.33819593527E+02  0.71533538009E+02  0.41800000000E+01 0. -1.
        -11    1    3    3    0    0 -0.33314047427E+02  0.45554175658E+02 -0.23834048498E+03  0.24493100142E+03  0.00000000000E+00 0.  1.
         11    1    3    3    0    0  0.28594416873E+02 -0.19090305139E+02 -0.86374772054E+02  0.92966024299E+02  0.00000000000E+00 0. -1.
</event>
<event>
 8    1  0.5900800E-006  0.9137766E+02  0.7561462E-02  0.1299549E+00
          1   -1    0    0  501    0  0.00000000000E+00  0.00000000000E+00  0.72164469674E+02  0.72164469674E+02  0.00000000000E+00 0. -1.
         -1   -1    0    0    0  501 -0.00000000000E+00 -0.00000000000E+00 -0.24988530931E+03  0.24988530931E+03  0.00000000000E+00 0.  1.
         23    2    1    2    0    0  0.37247504990E+02 -0.68138771640E+02 -0.85392926534E+02  0.14826062002E+03  0.93053698038E+02 0.  0.
         23    2    1    2    0    0 -0.37247504990E+02  0.68138771640E+02 -0.92327913101E+02  0.17378915896E+03  0.12509180391E+03 0.  0.
          5    1    4    4  502    0 -0.22037488084E+02  0.23650904446E+01 -0.10288790506E+03  0.10533108725E+03  0.41800000000E+01 0.  1.
         -5    1    4    4    0  502 -0.15210016907E+02  0.65773681195E+02  0.10559991958E+02  0.68458071711E+02  0.41800000000E+01 0.  1.
        -11    1    3    3    0    0  0.24275662736E+02 -0.11224008389E+01 -0.75466006122E+02  0.79282316218E+02  0.00000000000E+00 0.  1.
         11    1    3    3    0    0  0.12971842254E+02 -0.67016370801E+02 -0.99269204128E+01  0.68978303804E+02  0.00000000000E+00 0. -1.
</event>
<event>
 8    1  0.5900800E-006  0.1359794E+03  0.7561462E-02  0.1218844E+00
          1   -1    0    0  501    0  0.00000000000E+00  0.00000000000E+00  0.63301937993E+03  0.63301937993E+03  0.00000000000E+00 0. -1.
         -1   -1    0    0    0  501 -0.00000000000E+00 -0.00000000000E+00 -0.36478726067E+02  0.36478726067E+02  0.00000000000E+00 0.  1.
         23    2    1    2    0    0  0.51613412539E+02 -0.77741831081E+02  0.16817661614E+03  0.21357599378E+03  0.92863309482E+02 0.  0.
         23    2    1    2    0    0 -0.51613412539E+02  0.77741831081E+02  0.42836403772E+03  0.45592211222E+03  0.12514586267E+03 0.  0.
          5    1    4    4  502    0  0.77247191389E+01  0.81423508080E+02  0.14660227998E+03  0.16792605470E+03  0.41800000000E+01 0.  1.
         -5    1    4    4    0  502 -0.59338131678E+02 -0.36816769990E+01  0.28176175775E+03  0.28799605752E+03  0.41800000000E+01 0.  1.
        -11    1    3    3    0    0 -0.22479198711E+02  0.79459899576E+00  0.19111822625E+02  0.29516224798E+02  0.00000000000E+00 0.  1.
         11    1    3    3    0    0  0.74092611251E+02 -0.78536430076E+02  0.14906479351E+03  0.18405976898E+03  0.00000000000E+00 0. -1.
</event>
<event>
 8    1  0.5900800E-006  0.9110561E+02  0.7561462E-02  0.1300196E+00
          2   -1    0    0  501    0  0.00000000000E+00  0.00000000000E+00  0.35585049645E+02  0.35585049645E+02  0.00000000000E+00 0. -1.
         -2   -1    0    0    0  501 -0.00000000000E+00 -0.00000000000E+00 -0.34367827076E+03  0.34367827076E+03  0.00000000000E+00 0.  1.
         23    2    1    2    0    0  0.95670988166E+00  0.79731619331E+01 -0.18046583652E+03  0.20205802885E+03  0.90526472739E+02 0.  0.
         23    2    1    2    0    0 -0.95670988166E+00 -0.79731619331E+01 -0.12762738459E+03  0.17720529155E+03  0.12267224402E+03 0.  0.
          5    1    4    4  502    0 -0.28275061921E+02 -0.47877393968E+02 -0.20174604575E+02  0.59297647926E+02  0.41800000000E+01 0. -1.
         -5    1    4    4    0  502  0.27318352040E+02  0.39904232035E+02 -0.10745278002E+03  0.11790764363E+03  0.41800000000E+01 0.  1.
        -11    1    3    3    0    0  0.37282515029E+02  0.16224961240E+02 -0.14511256763E+03  0.15070133568E+03  0.00000000000E+00 0.  1.
         11    1    3    3    0    0 -0.36325805147E+02 -0.82517993068E+01 -0.35353268899E+02  0.51356693169E+02  0.00000000000E+00 0. -1.
</event>
<event>
 8    1  0.5900800E-006  0.8610918E+02  0.7561462E-02  0.1312557E+00
         -1   -1    0    0    0  501 -0.00000000000E+00  0.00000000000E+00  0.23581866135E+03  0.23581866135E+03  0.00000000000E+00 0.  1.
          1   -1    0    0  501    0  0.00000000000E+00 -0.00000000000E+00 -0.60744416787E+02  0.60744416787E+02  0.00000000000E+00 0. -1.
         23    2    1    2    0    0 -0.50296075878E+02 -0.52113466414E+01  0.67054316711E+02  0.12372460092E+03  0.90855060950E+02 0.  0.
         23    2    1    2    0    0  0.50296075878E+02  0.52113466414E+01  0.10801992785E+03  0.17283847722E+03  0.12509189027E+03 0.  0.
          5    1    4    4  502    0  0.12939744444E+02  0.26350344014E+02  0.12350671229E+03  0.12701636901E+03  0.41800000000E+01 0. -1.
         -5    1    4    4    0  502  0.37356331434E+02 -0.21138997373E+02 -0.15486784441E+02  0.45822108206E+02  0.41800000000E+01 0. -1.
        -11    1    3    3    0    0 -0.56297835137E+02 -0.36818571182E+02  0.27334758453E+02  0.72610208957E+02  0.00000000000E+00 0. -1.
         11    1    3    3    0    0  0.60017592587E+01  0.31607224541E+02  0.39719558258E+02  0.51114391961E+02  0.00000000000E+00 0.  1.
</event>
<event>
 8    1  0.5900800E-006  0.1002970E+03  0.7561462E-02  0.1279673E+00
          2   -1    0    0  501    0  0.00000000000E+00  0.00000000000E+00  0.11550550585E+03  0.11550550585E+03  0.00000000000E+00 0. -1.
         -2   -1    0    0    0  501 -0.00000000000E+00 -0.00000000000E+00 -0.13695082254E+03  0.13695082254E+03  0.00000000000E+00 0.  1.
         23    2    1    2    0    0 -0.33274036959E+02 -0.42815163385E+02 -0.41481821445E+02  0.11465545002E+03  0.92113142161E+02 0.  0.
         23    2    1    2    0    0  0.33274036959E+02  0.42815163385E+02  0.20036504758E+02  0.13780087837E+03  0.12508925135E+03 0.  0.
          5    1    4    4  502    0 -0.11251274983E+02  0.64473759420E+02 -0.25535751208E+02  0.70377580466E+02  0.41800000000E+01 0.  1.
         -5    1    4    4    0  502  0.44525311942E+02 -0.21658596035E+02  0.45572255966E+02  0.67423297899E+02  0.41800000000E+01 0.  1.
        -11    1    3    3    0    0 -0.34383010780E+02  0.73380225487E+01  0.15772292333E+02  0.38533144313E+02  0.00000000000E+00 0. -1.
         11    1    3    3    0    0  0.11089738212E+01 -0.50153185933E+02 -0.57254113779E+02  0.76122305711E+02  0.00000000000E+00 0.  1.
</event>
<event>
 8    1  0.5900800E-006  0.1089207E+03  0.7561462E-02  0.1262582E+00
         -2   -1    0    0    0  501 -0.00000000000E+00  0.00000000000E+00  0.25223164910E+02  0.25223164910E+02  0.00000000000E+00 0.  1.
          2   -1    0    0  501    0  0.00000000000E+00 -0.00000000000E+00 -0.50386659143E+03  0.50386659143E+03  0.00000000000E+00 0. -1.
         23    2    1    2    0    0 -0.10854914673E+02  0.10369528828E+02 -0.14336253679E+03  0.17091792567E+03  0.91840971576E+02 0.  0.
         23    2    1    2    0    0  0.10854914673E+02 -0.10369528828E+02 -0.33528088973E+03  0.35817183067E+03  0.12509368076E+03 0.  0.
          5    1    4    4  502    0 -0.43094687048E+02  0.33857533071E+02 -0.17185164004E+03  0.18042711321E+03  0.41800000000E+01 0.  1.
         -5    1    4    4    0  502  0.53949601720E+02 -0.44227061899E+02 -0.16342924969E+03  0.17774471746E+03  0.41800000000E+01 0.  1.
        -11    1    3    3    0    0 -0.48231236473E+02 -0.11641282400E+02 -0.79735529861E+02  0.93912333322E+02  0.00000000000E+00 0.  1.
         11    1    3    3    0    0  0.37376321801E+02  0.22010811228E+02 -0.63627006925E+02  0.77005592345E+02  0.00000000000E+00 0. -1.
</event>
<event>
 8    1  0.5900800E-006  0.9075535E+02  0.7561462E-02  0.1301033E+00
         -1   -1    0    0    0  501 -0.00000000000E+00  0.00000000000E+00  0.47273129852E+02  0.47273129852E+02  0.00000000000E+00 0.  1.
          1   -1    0    0  501    0  0.00000000000E+00 -0.00000000000E+00 -0.28126551435E+03  0.28126551435E+03  0.00000000000E+00 0. -1.
         23    2    1    2    0    0 -0.20197330441E+02 -0.12717030106E+02 -0.53301509308E+02  0.10748140167E+03  0.90230514787E+02 0.  0.
         23    2    1    2    0    0  0.20197330441E+02  0.12717030106E+02 -0.18069087519E+03  0.22105724254E+03  0.12508979610E+03 0.  0.
          5    1    4    4  502    0  0.15509695462E+02  0.62071318219E+02 -0.14862982381E+03  0.16186937982E+03  0.41800000000E+01 0.  1.
         -5    1    4    4    0  502  0.46876349794E+01 -0.49354288114E+02 -0.32061051389E+02  0.59187862718E+02  0.41800000000E+01 0.  1.
        -11    1    3    3    0    0 -0.41670236371E+02  0.18224315522E+01  0.65800305928E+01  0.42225900329E+02  0.00000000000E+00 0.  1.
         11    1    3    3    0    0  0.21472905929E+02 -0.14539461658E+02 -0.59881539901E+02  0.65255501341E+02  0.00000000000E+00 0. -1.
</event>
<event>
 8    1  0.5900800E-006  0.2743507E+03  0.7561462E-02  0.1098815E+00
          2   -1    0    0  501    0  0.00000000000E+00  0.00000000000E+00  0.96469064721E+03  0.96469064721E+03  0.00000000000E+00 0. -1.
         -2   -1    0    0    0  501 -0.00000000000E+00 -0.00000000000E+00 -0.82827311906E+02  0.82827311906E+02  0.00000000000E+00 0.  1.
         23    2    1    2    0    0 -0.16400813286E+03 -0.19125906246E+03  0.30732481956E+03  0.40781331675E+03  0.91566696927E+02 0.  0.
         23    2    1    2    0    0  0.16400813286E+03  0.19125906246E+03  0.57453851575E+03  0.63970464237E+03  0.12509527078E+03 0.  0.
          5    1    4    4  502    0  0.12015242116E+03  0.45512170184E+02  0.24438472027E+03  0.27613280473E+03  0.41800000000E+01 0.  1.
         -5    1    4    4    0  502  0.43855711704E+02  0.14574689227E+03  0.33015379548E+03  0.36357183764E+03  0.41800000000E+01 0.  1.
        -11    1    3    3    0    0 -0.10532837819E+03 -0.53461832822E+02  0.14299858761E+03  0.18547460980E+03  0.00000000000E+00 0. -1.
         11    1    3    3    0    0 -0.58679754671E+02 -0.13779722964E+03  0.16432623195E+03  0.22233870695E+03  0.00000000000E+00 0.  1.
</event>
<event>
 8    1  0.5900800E-006  0.1676641E+03  0.7561462E-02  0.1180306E+00
         -2   -1    0    0    0  501 -0.00000000000E+00  0.00000000000E+00  0.65783440520E+02  0.65783440520E+02  0.00000000000E+00 0.  1.
          2   -1    0    0  501    0  0.00000000000E+00 -0.00000000000E+00 -0.53791476509E+03  0.53791476509E+03  0.00000000000E+00 0. -1.
         23    2    1    2    0    0 -0.34783704305E+02 -0.15103100672E+03 -0.19234923415E+03  0.26327241797E+03  0.91070670962E+02 0.  0.
         23    2    1    2    0    0  0.34783704305E+02  0.15103100672E+03 -0.27978209041E+03  0.34042578764E+03  0.11658227866E+03 0.  0.
          5    1    4    4  502    0  0.10504415499E+02  0.51146587432E+01 -0.12743944165E+03  0.12804212654E+03  0.41800000000E+01 0. -1.
         -5    1    4    4    0  502  0.24279288807E+02  0.14591634797E+03 -0.15234264876E+03  0.21238366110E+03  0.41800000000E+01 0.  1.
        -11    1    3    3    0    0 -0.57200422891E+02 -0.13707737180E+03 -0.13753623722E+03  0.20243100254E+03  0.00000000000E+00 0. -1.
         11    1    3    3    0    0  0.22416718586E+02 -0.13953634918E+02 -0.54812996931E+02  0.60841415435E+02  0.00000000000E+00 0.  1.
</event>
<event>
 8    1  0.5900800E-006  0.2898651E+03  0.7561462E-02  0.1090420E+00
          1   -1    0    0  501    0  0.00000000000E+00  0.00000000000E+00  0.58492890970E+03  0.58492890970E+03  0.00000000000E+00 0. -1.
         -1   -1    0    0    0  501 -0.00000000000E+00 -0.00000000000E+00 -0.26945509325E+03  0.26945509325E+03  0.00000000000E+00 0.  1.
         23    2    1    2    0    0  0.28251789845E+03  0.10501132905E+02 -0.12240834670E+03  0.32070041972E+03  0.89097245347E+02 0.  0.
         23    2    1    2    0    0 -0.28251789845E+03 -0.10501132905E+02  0.43788216314E+03  0.53368358324E+03  0.11467668238E+03 0.  0.
          5    1    4    4  502    0 -0.54913646851E+02 -0.92216346772E+01  0.18587038023E+03  0.19407683479E+03  0.41800000000E+01 0. -1.
         -5    1    4    4    0  502 -0.22760425160E+03 -0.12794982273E+01  0.25201178291E+03  0.33960674844E+03  0.41800000000E+01 0.  1.
        -11    1    3    3    0    0  0.16136944688E+03  0.49804361529E+02 -0.75233579292E+02  0.18488013486E+03  0.00000000000E+00 0.  1.
         11    1    3    3    0    0  0.12114845157E+03 -0.39303228625E+02 -0.47174767407E+02  0.13582028485E+03  0.00000000000E+00 0. -1.
</event>
<event>
 8    1  0.5900800E-006  0.1431192E+03  0.7561462E-02  0.1209192E+00
         -1   -1    0    0    0  501 -0.00000000000E+00  0.00000000000E+00  0.27667079124E+03  0.27667079124E+03  0.00000000000E+00 0.  1.
          1   -1    0    0  501    0  0.00000000000E+00 -0.00000000000E+00 -0.77869101962E+02  0.77869101962E+02  0.00000000000E+00 0. -1.
         23    2    1    2    0    0 -0.54735736827E+02 -0.80928717052E+02  0.12929801902E+03  0.18644393278E+03  0.92184077909E+02 0.  0.
         23    2    1    2    0    0  0.54735736827E+02  0.80928717052E+02  0.69503670261E+02  0.16809596042E+03  0.11781355440E+03 0.  0.
          5    1    4    4  502    0  0.13375496792E+02  0.10433684241E+03  0.50202680629E+02  0.11663130858E+03  0.41800000000E+01 0. -1.
         -5    1    4    4    0  502  0.41360240035E+02 -0.23408125357E+02  0.19300989632E+02  0.51464651842E+02  0.41800000000E+01 0.  1.
        -11    1    3    3    0    0  0.17575261944E+02  0.74293858537E+01  0.10955380371E+02  0.22002408179E+02  0.00000000000E+00 0.  1.
         11    1    3    3    0    0 -0.72310998771E+02 -0.88358102906E+02  0.11834263865E+03  0.16444152460E+03  0.00000000000E+00 0. -1.
</event>
<event>
 8    1  0.5900800E-006  0.1063748E+03  0.7561462E-02  0.1267434E+00
          1   -1    0    0  501    0  0.00000000000E+00  0.00000000000E+00  0.16526345659E+03  0.16526345659E+03  0.00000000000E+00 0. -1.
         -1   -1    0    0    0  501 -0.00000000000E+00 -0.00000000000E+00 -0.88739829921E+02  0.88739829921E+02  0.00000000000E+00 0.  1.
         23    2    1    2    0    0  0.95821593897E+01 -0.19968729992E+02 -0.21462718740E+02  0.93569825686E+02  0.88340794807E+02 0.  0.
         23    2    1    2    0    0 -0.95821593897E+01  0.19968729992E+02  0.97986345404E+02  0.16043346082E+03  0.12508798307E+03 0.  0.
          5    1    4    4  502    0 -0.64662880353E+02  0.94260185088E+01  0.75314319122E+02  0.99799083089E+02  0.41800000000E+01 0.  1.
         -5    1    4    4    0  502  0.55080720963E+02  0.10542711483E+02  0.22672026282E+02  0.60634377732E+02  0.41800000000E+01 0.  1.
        -11    1    3    3    0    0  0.10300159131E+02 -0.55019532628E+02 -0.11820157727E+02  0.57209775192E+02  0.00000000000E+00 0.  1.
         11    1    3    3    0    0 -0.71799974148E+00  0.35050802636E+02 -0.96425610126E+01  0.36360050495E+02  0.00000000000E+00 0. -1.
</event>
<event>
 8    1  0.5900800E-006  0.1202446E+03  0.7561462E-02  0.1242694E+00
          1   -1    0    0  501    0  0.00000000000E+00  0.00000000000E+00  0.40527514178E+03  0.40527514178E+03  0.00000000000E+00 0. -1.
         -1   -1    0    0    0  501 -0.00000000000E+00 -0.00000000000E+00 -0.43420053756E+02  0.43420053756E+02  0.00000000000E+00 0.  1.
         23    2    1    2    0    0 -0.73040998791E+02 -0.54589799999E+01  0.15547316929E+03  0.19649363236E+03  0.95252575921E+02 0.  0.
         23    2    1    2    0    0  0.73040998791E+02  0.54589799999E+01  0.20638191873E+03  0.25220156318E+03  0.12508934456E+03 0.  0.
          5    1    4    4  502    0  0.68473538425E+02 -0.40090954275E+02  0.18532372263E+03  0.20163894626E+03  0.41800000000E+01 0.  1.
         -5    1    4    4    0  502  0.45674603670E+01  0.45549934275E+02  0.21058196100E+02  0.50562616919E+02  0.41800000000E+01 0.  1.
        -11    1    3    3    0    0  0.19934293516E+02 -0.93260730108E+01  0.10895338163E+02  0.24557281802E+02  0.00000000000E+00 0.  1.
         11    1    3    3    0    0 -0.92975292308E+02  0.38670930109E+01  0.14457783113E+03  0.17193635055E+03  0.00000000000E+00 0. -1.
</event>
<event>
 7    1  0.5900800E-006  0.1375104E+03  0.7561462E-02  0.1216719E+00
         -2   -1    0    0    0  501 -0.00000000000E+00  0.00000000000E+00  0.15265156540E+03  0.15265156540E+03  0.00000000000E+00 0.  1.
          2   -1    0    0  501    0  0.00000000000E+00 -0.00000000000E+00 -0.14641315968E+03  0.14641315968E+03  0.00000000000E+00 0. -1.
         23    2    1    2    0    0  0.36493941340E+02  0.46966616174E+02  0.51072073896E+02  0.11606517237E+03  0.85586778861E+02 0.  0.
          5    1    1    2  502    0 -0.25858485540E+02 -0.10689065015E+03 -0.51734178412E+02  0.12160661981E+03  0.41800000000E+01 0. -1.
         -5    1    1    2    0  502 -0.10635455800E+02  0.59924033979E+02  0.69005102331E+01  0.61392932898E+02  0.41800000000E+01 0.  1.
        -11    1    3    3    0    0  0.22825180503E+02 -0.23159981525E+02  0.12214490709E+02  0.34735678956E+02  0.00000000000E+00 0.  1.
         11    1    3    3    0    0  0.13668760837E+02  0.70126597700E+02  0.38857583187E+02  0.81329493414E+02  0.00000000000E+00 0. -1.
</event>
<event>
 8    1  0.5900800E-006  0.9772362E+02  0.7561462E-02  0.1285157E+00
         -2   -1    0    0    0  501 -0.00000000000E+00  0.00000000000E+00  0.24063898148E+02  0.24063898148E+02  0.00000000000E+00 0.  1.
          2   -1    0    0  501    0  0.00000000000E+00 -0.00000000000E+00 -0.83891526612E+03  0.83891526612E+03  0.00000000000E+00 0. -1.
         23    2    1    2    0    0  0.19282502830E+02 -0.62358657653E+02 -0.17698795786E+03  0.20969677286E+03  0.91583744307E+02 0.  0.
         23    2    1    2    0    0 -0.19282502830E+02  0.62358657653E+02 -0.63786341011E+03  0.65328239141E+03  0.12509091039E+03 0.  0.
          5    1    4    4  502    0 -0.50350521040E+02  0.60187187443E+02 -0.20925424271E+03  0.22352289143E+03  0.41800000000E+01 0. -1.
         -5    1    4    4    0  502  0.31068018210E+02  0.21714702100E+01 -0.42860916740E+03  0.42975949997E+03  0.41800000000E+01 0. -1.
        -11    1    3    3    0    0 -0.45799447268E+01 -0.61389337187E+02 -0.46781946004E+02  0.77318672298E+02  0.00000000000E+00 0. -1.
         11    1    3    3    0    0  0.23862447557E+02 -0.96932046637E+00 -0.13020601185E+03  0.13237810056E+03  0.00000000000E+00 0.  1.
</event>
<event>
 8    1  0.5900800E-006  0.2312001E+03  0.7561462E-02  0.1125798E+00
          3   -1    0    0  501    0  0.00000000000E+00  0.00000000000E+00  0.70878094568E+03  0.70878094568E+03  0.00000000000E+00 0. -1.
         -3   -1    0    0    0  501 -0.00000000000E+00 -0.00000000000E+00 -0.10385664912E+03  0.10385664912E+03  0.00000000000E+00 0.  1.
         23    2    1    2    0    0  0.15703719734E+03 -0.14277866580E+03  0.10380321046E+03  0.25423520504E+03  0.93882928282E+02 0.  0.
         23    2    1    2    0    0 -0.15703719734E+03  0.14277866580E+03  0.50112108610E+03  0.55840238975E+03  0.12507780456E+03 0.  0.
          5    1    4    4  502    0 -0.12465155897E+03  0.53586664696E+02  0.38589979499E+03  0.40907904611E+03  0.41800000000E+01 0.  1.
         -5    1    4    4    0  502 -0.32385638376E+02  0.89192001109E+02  0.11522129110E+03  0.14932334365E+03  0.41800000000E+01 0.  1.
        -11    1    3    3    0    0  0.13462161021E+03 -0.62683677203E+02  0.59272967807E+02  0.15989217002E+03  0.00000000000E+00 0.  1.
         11    1    3    3    0    0  0.22415587137E+02 -0.80094988602E+02  0.44530242652E+02  0.94343035018E+02  0.00000000000E+00 0. -1.
</event>
<event>
 8    1  0.5900800E-006  0.1010603E+03  0.7561462E-02  0.1278082E+00
         -1   -1    0    0    0  501 -0.00000000000E+00  0.00000000000E+00  0.12385189294E+03  0.12385189294E+03  0.00000000000E+00 0.  1.
          1   -1    0    0  501    0  0.00000000000E+00 -0.00000000000E+00 -0.11863980761E+03  0.11863980761E+03  0.00000000000E+00 0. -1.
         23    2    1    2    0    0 -0.28160353547E+02  0.43167290008E+02  0.21517035856E+02  0.10622118351E+03  0.90352291366E+02 0.  0.
         23    2    1    2    0    0  0.28160353547E+02 -0.43167290008E+02 -0.16304950529E+02  0.13627051704E+03  0.12508949582E+03 0.  0.
          5    1    4    4  502    0  0.27562397712E+02 -0.83724118615E+02  0.83216728404E+01  0.88634848927E+02  0.41800000000E+01 0.  1.
         -5    1    4    4    0  502  0.59795583498E+00  0.40556828607E+02 -0.24626623369E+02  0.47635668111E+02  0.41800000000E+01 0.  1.
        -11    1    3    3    0    0 -0.86656425504E+01  0.51264482469E+02  0.49083531778E+02  0.71500584721E+02  0.00000000000E+00 0.  1.
         11    1    3    3    0    0 -0.19494710997E+02 -0.80971924612E+01 -0.27566495923E+02  0.34720598786E+02  0.00000000000E+00 0. -1.
</event>
<event>
 8    1  0.5900800E-006  0.1973754E+03  0.7561462E-02  0.1151973E+00
         -1   -1    0    0    0  501 -0.00000000000E+00  0.00000000000E+00  0.97092949193E+03  0.97092949193E+03  0.00000000000E+00 0.  1.
          1   -1    0    0  501    0  0.00000000000E+00 -0.00000000000E+00 -0.46684262265E+02  0.46684262265E+02  0.00000000000E+00 0. -1.
         23    2    1    2    0    0  0.15770922263E+03  0.93157772421E+02  0.43405910299E+03  0.47957898058E+03  0.89655586902E+02 0.  0.
         23    2    1    2    0    0 -0.15770922263E+03 -0.93157772421E+02  0.49018612668E+03  0.53803477362E+03  0.12509360243E+03 0.  0.
          5    1    4    4  502    0 -0.95428367070E+02 -0.92896771951E+02  0.43419975925E+03  0.45418419921E+03  0.41800000000E+01 0. -1.
         -5    1    4    4    0  502 -0.62280855558E+02 -0.26100046975E+00  0.55986367431E+02  0.83850574407E+02  0.41800000000E+01 0. -1.
        -11    1    3    3    0    0  0.96219803770E+02  0.11557460884E+02  0.26351584744E+03  0.28077112991E+03  0.00000000000E+00 0.  1.
         11    1    3    3    0    0  0.61489418857E+02  0.81600311536E+02  0.17054325554E+03  0.19880785066E+03  0.00000000000E+00 0. -1.
</event>
<event>
 8    1  0.5900800E-006  0.1256171E+03  0.7561462E-02  0.1234108E+00
          2   -1    0    0  501    0  0.00000000000E+00  0.00000000000E+00  0.10973827117E+04  0.10973827117E+04  0.00000000000E+00 0. -1.
         -2   -1    0    0    0  501 -0.00000000000E+00 -0.00000000000E+00 -0.30745876363E+02  0.30745876363E+02  0.00000000000E+00 0.  1.
         23    2    1    2    0    0  0.62799881714E+02 -0.73656919492E+02  0.15925898396E+03  0.20706904365E+03  0.90249642287E+02 0.  0.
         23    2    1    2    0    0 -0.62799881714E+02  0.73656919492E+02  0.90737785136E+03  0.92105954440E+03  0.12508777820E+03 0.  0.
          5    1    4    4  502    0  0.30129032305E+02 -0.45540456531E+01  0.10113884150E+03  0.10571204084E+03  0.41800000000E+01 0. -1.
         -5    1    4    4    0  502 -0.92928914020E+02  0.78210965145E+02  0.80623900986E+03  0.81534750356E+03  0.41800000000E+01 0. -1.
        -11    1    3    3    0    0  0.50002258046E+02 -0.43847405163E+02  0.28513506325E+02  0.72359109946E+02  0.00000000000E+00 0.  1.
         11    1    3    3    0    0  0.12797623668E+02 -0.29809514329E+02  0.13074547763E+03  0.13470993370E+03  0.00000000000E+00 0. -1.
</event>
<event>
 8    1  0.5900800E-006  0.1217111E+03  0.7561462E-02  0.1240301E+00
         -1   -1    0    0    0  501 -0.00000000000E+00  0.00000000000E+00  0.28763033930E+03  0.28763033930E+03  0.00000000000E+00 0.  1.
          1   -1    0    0  501    0  0.00000000000E+00 -0.00000000000E+00 -0.28512691060E+03  0.28512691060E+03  0.00000000000E+00 0. -1.
         23    2    1    2    0    0 -0.60537216814E+02 -0.53303790450E+02  0.25506888889E+03  0.28350134981E+03  0.93844704539E+02 0.  0.
         23    2    1    2    0    0  0.60537216814E+02  0.53303790450E+02 -0.25256546018E+03  0.28925590009E+03  0.11564434862E+03 0.  0.
          5    1    4    4  502    0 -0.20934332809E+02  0.33945421500E+02 -0.15738351313E+03  0.16241176231E+03  0.41800000000E+01 0. -1.
         -5    1    4    4    0  502  0.81471549623E+02  0.19358368950E+02 -0.95181947051E+02  0.12684413779E+03  0.41800000000E+01 0.  1.
        -11    1    3    3    0    0  0.19708937009E+01 -0.56836184564E+02  0.15868849880E+03  0.16857127854E+03  0.00000000000E+00 0. -1.
         11    1    3    3    0    0 -0.62508110515E+02  0.35323941145E+01  0.96380390085E+02  0.11493007127E+03  0.00000000000E+00 0.  1.
</event>
<event>
 8    1  0.5900800E-006  0.1320414E+03  0.7561462E-02  0.1224458E+00
         -2   -1    0    0    0  501 -0.00000000000E+00  0.00000000000E+00  0.40277198526E+02  0.40277198526E+02  0.00000000000E+00 0.  1.
          2   -1    0    0  501    0  0.00000000000E+00 -0.00000000000E+00 -0.51660489655E+03  0.51660489655E+03  0.00000000000E+00 0. -1.
         23    2    1    2    0    0  0.67957373916E+02  0.37820544183E+02 -0.10964880661E+03  0.16172477267E+03  0.89907970027E+02 0.  0.
         23    2    1    2    0    0 -0.67957373916E+02 -0.37820544183E+02 -0.36667889142E+03  0.39515732240E+03  0.12508917541E+03 0.  0.
          5    1    4    4  502    0  0.35444623147E+02 -0.17952356446E+02 -0.74152782603E+02  0.84230137005E+02  0.41800000000E+01 0.  1.
         -5    1    4    4    0  502 -0.10340199706E+03 -0.19868187737E+02 -0.29252610881E+03  0.31092718540E+03  0.41800000000E+01 0.  1.
        -11    1    3    3    0    0 -0.17478533992E+02  0.27657063028E+02 -0.33543192614E+02  0.46856782397E+02  0.00000000000E+00 0. -1.
         11    1    3    3    0    0  0.85435907908E+02  0.10163481155E+02 -0.76105613992E+02  0.11486799028E+03  0.00000000000E+00 0.  1.
</event>
<event>
 8    1  0.5900800E-006  0.1764438E+03  0.7561462E-02  0.1171290E+00
          2   -1    0    0  501    0  0.00000000000E+00  0.00000000000E+00  0.81937151775E+03  0.81937151775E+03  0.00000000000E+00 0. -1.
         -2   -1    0    0    0  501 -0.00000000000E+00 -0.00000000000E+00 -0.47144103615E+02  0.47144103615E+02  0.00000000000E+00 0.  1.
         23    2    1    2    0    0  0.11121758901E+03 -0.83853994642E+02  0.18587747144E+03  0.25100374316E+03  0.95139897874E+02 0.  0.
         23    2    1    2    0    0 -0.11121758901E+03  0.83853994642E+02  0.58634994269E+03  0.61551187820E+03  0.12509105641E+03 0.  0.
          5    1    4    4  502    0 -0.13843207949E+03  0.68604872619E+02  0.51072518489E+03  0.53359887187E+03  0.41800000000E+01 0. -1.
         -5    1    4    4    0  502  0.27214490478E+02  0.15249122023E+02  0.75624757800E+02  0.81913006335E+02  0.41800000000E+01 0. -1.
        -11    1    3    3    0    0  0.11951087598E+03 -0.45923259639E+02  0.12594715748E+03  0.17959532770E+03  0.00000000000E+00 0. -1.
         11    1    3    3    0    0 -0.82932869758E+01 -0.37930735002E+02  0.59930313958E+02  0.71408415455E+02  0.00000000000E+00 0.  1.
</event>
<event>
 7    1  0.5900800E-006  0.1220626E+03  0.7561462E-02  0.1239733E+00
          3   -1    0    0  501    0  0.00000000000E+00  0.00000000000E+00  0.61823971483E+02  0.61823971483E+02  0.00000000000E+00 0. -1.
         -3   -1    0    0    0  501 -0.00000000000E+00 -0.00000000000E+00 -0.32894887998E+03  0.32894887998E+03  0.00000000000E+00 0.  1.
         23    2    1    2    0    0  0.25122457952E+02  0.60145355591E+01 -0.70812270026E+02  0.14604573639E+03  0.12509063514E+03 0.  0.
          5    1    3    3  502    0  0.40138693775E+02 -0.39321188620E+02 -0.79381335338E+02  0.97345464263E+02  0.41800000000E+01 0.  1.
         -5    1    3    3    0  502 -0.15016235823E+02  0.45335724179E+02  0.85690653115E+01  0.48700272129E+02  0.41800000000E+01 0.  1.
        -11    1    1    2    0    0 -0.25767449896E+02 -0.70649486328E+02 -0.69537339584E+02  0.10242437693E+03  0.00000000000E+00 0. -1.
         11    1    1    2    0    0  0.64499194465E+00  0.64634950768E+02 -0.12677529889E+03  0.14230273814E+03  0.00000000000E+00 0.  1.
</event>
<event>
 8    1  0.5900800E-006  0.1035916E+03  0.7561462E-02  0.1272920E+00
         -2   -1    0    0    0  501 -0.00000000000E+00  0.00000000000E+00  0.42021836749E+02  0.42021836749E+02  0.00000000000E+00 0.  1.
          2   -1    0    0  501    0  0.00000000000E+00 -0.00000000000E+00 -0.30458435517E+03  0.30458435517E+03  0.00000000000E+00 0. -1.
         23    2    1    2    0    0  0.54989775983E+01  0.94680228831E+01 -0.66976846031E+02  0.11418309727E+03  0.91825920006E+02 0.  0.
         23    2    1    2    0    0 -0.54989775983E+01 -0.94680228831E+01 -0.19558567239E+03  0.23242309465E+03  0.12508739933E+03 0.  0.
          5    1    4    4  502    0 -0.15506840560E+02  0.53787005082E+02 -0.58593402116E+02  0.81142856687E+02  0.41800000000E+01 0.  1.
         -5    1    4    4    0  502  0.10007862962E+02 -0.63255027965E+02 -0.13699227027E+03  0.15128023796E+03  0.41800000000E+01 0.  1.
        -11    1    3    3    0    0 -0.35794789776E+02  0.23999365413E+02 -0.13684072314E+02  0.45216040853E+02  0.00000000000E+00 0.  1.
         11    1    3    3    0    0  0.41293767375E+02 -0.14531342530E+02 -0.53292773717E+02  0.68967056412E+02  0.00000000000E+00 0. -1.
</event>
<event>
 8    1  0.5900800E-006  0.1748473E+03  0.7561462E-02  0.1172885E+00
         -1   -1    0    0    0  501 -0.00000000000E+00  0.00000000000E+00  0.71841197002E+02  0.71841197002E+02  0.00000000000E+00 0.  1.
          1   -1    0    0  501    0  0.00000000000E+00 -0.00000000000E+00 -0.66196509786E+03  0.66196509786E+03  0.00000000000E+00 0. -1.
         23    2    1    2    0    0 -0.93835333947E+02  0.12584886269E+03 -0.10680815525E+03  0.21046547454E+03  0.90800483520E+02 0.  0.
         23    2    1    2    0    0  0.93835333947E+02 -0.12584886269E+03 -0.48331574560E+03  0.52334082032E+03  0.12509395721E+03 0.  0.
          5    1    4    4  502    0 -0.12143784630E+02  0.58946313537E+01 -0.34564087257E+01  0.14547760832E+02  0.41800000000E+01 0.  1.
         -5    1    4    4    0  502  0.10597911858E+03 -0.13174349404E+03 -0.47985933687E+03  0.50879305949E+03  0.41800000000E+01 0.  1.
        -11    1    3    3    0    0 -0.60501980666E+02  0.11735612749E+03 -0.44569152454E+02  0.13935336262E+03  0.00000000000E+00 0.  1.
         11    1    3    3    0    0 -0.33333353281E+02  0.84927352016E+01 -0.62239002799E+02  0.71112111919E+02  0.00000000000E+00 0. -1.
</event>
<event>
 8    1  0.5900800E-006  0.1295616E+03  0.7561462E-02  0.1228108E+00
          2   -1    0    0  501    0  0.00000000000E+00  0.00000000000E+00  0.81680289073E+03  0.81680289073E+03  0.00000000000E+00 0. -1.
         -2   -1    0    0    0  501 -0.00000000000E+00 -0.00000000000E+00 -0.42493482175E+02  0.42493482175E+02  0.00000000000E+00 0.  1.
         23    2    1    2    0    0 -0.81534745440E+02  0.54319703452E+02  0.98862651590E+02  0.16541359722E+03  0.89382824792E+02 0.  0.
         23    2    1    2    0    0  0.81534745440E+02 -0.54319703452E+02  0.67544675696E+03  0.69388277569E+03  0.12508573062E+03 0.  0.
          5    1    4    4  502    0  0.39020370319E+02 -0.83122240988E+02  0.27094194682E+03  0.28610995648E+03  0.41800000000E+01 0.  1.
         -5    1    4    4    0  502  0.42514375121E+02  0.28802537535E+02  0.40450481014E+03  0.40777281921E+03  0.41800000000E+01 0.  1.
        -11    1    3    3    0    0 -0.23499148792E+02 -0.12953911791E+02 -0.64815403068E+01  0.27604785624E+02  0.00000000000E+00 0.  1.
         11    1    3    3    0    0 -0.58035596648E+02  0.67273615243E+02  0.10534419190E+03  0.13780881159E+03  0.00000000000E+00 0. -1.
</event>
<event>
 8    1  0.5900800E-006  0.1834338E+03  0.7561462E-02  0.1164521E+00
         -1   -1    0    0    0  501 -0.00000000000E+00  0.00000000000E+00  0.14411443437E+03  0.14411443437E+03  0.00000000000E+00 0.  1.
          1   -1    0    0  501    0  0.00000000000E+00 -0.00000000000E+00 -0.33812268938E+03  0.33812268938E+03  0.00000000000E+00 0. -1.
         23    2    1    2    0    0 -0.14461517165E+03 -0.88364037088E+02  0.88746857248E+01  0.18977759736E+03  0.84941306157E+02 0.  0.
         23    2    1    2    0    0  0.14461517165E+03  0.88364037088E+02 -0.20288294073E+03  0.29245952640E+03  0.12509730620E+03 0.  0.
          5    1    4    4  502    0  0.29203894524E+02 -0.21946709681E+02 -0.34055518766E+01  0.36926896766E+02  0.41800000000E+01 0. -1.
         -5    1    4    4    0  502  0.11541127713E+03  0.11031074677E+03 -0.19947738886E+03  0.25553262963E+03  0.41800000000E+01 0. -1.
        -11    1    3    3    0    0 -0.53695834405E+02 -0.22989592338E+02  0.43202562128E+02  0.72651396151E+02  0.00000000000E+00 0.  1.
         11    1    3    3    0    0 -0.90919337245E+02 -0.65374444750E+02 -0.34327876403E+02  0.11712620121E+03  0.00000000000E+00 0. -1.
</event>
<event>
 8    1  0.5900800E-006  0.1119131E+03  0.7561462E-02  0.1257068E+00
          2   -1    0    0  501    0  0.00000000000E+00  0.00000000000E+00  0.13969468649E+03  0.13969468649E+03  0.00000000000E+00 0. -1.
         -2   -1    0    0    0  501 -0.00000000000E+00 -0.00000000000E+00 -0.29872289631E+03  0.29872289631E+03  0.00000000000E+00 0.  1.
         23    2    1    2    0    0 -0.74782287257E+00 -0.82261230013E+02 -0.23931473553E+03  0.26853309357E+03  0.89838802832E+02 0.  0.
         23    2    1    2    0    0  0.74782287257E+00  0.82261230013E+02  0.80286525715E+02  0.16988448923E+03  0.12508934514E+03 0.  0.
          5    1    4    4  502    0  0.69444093727E+01 -0.28569455914E+02  0.43886979572E+02  0.52990357696E+02  0.41800000000E+01 0. -1.
         -5    1    4    4    0  502 -0.61965865001E+01  0.11083068593E+03  0.36399546143E+02  0.11689413153E+03  0.41800000000E+01 0. -1.
        -11    1    3    3    0    0  0.48918609054E+01 -0.22812578373E+02 -0.15483274335E+01  0.23382500999E+02  0.00000000000E+00 0. -1.
         11    1    3    3    0    0 -0.56396837780E+01 -0.59448651640E+02 -0.23776640810E+03  0.24515059257E+03  0.00000000000E+00 0.  1.
</event>
<event>
 8    1  0.5900800E-006  0.4584808E+02  0.7561462E-02  0.1469116E+00
          1   -1    0    0  501    0  0.00000000000E+00  0.00000000000E+00  0.78870874276E+03  0.78870874276E+03  0.00000000000E+00 0. -1.
         -1   -1    0    0    0  501 -0.00000000000E+00 -0.00000000000E+00 -0.45646750021E+02  0.45646750021E+02  0.00000000000E+00 0.  1.
         23    2    1    2    0    0  0.28029894167E+01  0.24076492368E+02  0.15786119563E+02  0.96001633965E+02  0.91540034513E+02 0.  0.
         23    2    1    2    0    0 -0.28029894167E+01 -0.24076492368E+02  0.72727587318E+03  0.73835385882E+03  0.12509472767E+03 0.  0.
          5    1    4    4  502    0 -0.46573019854E+01 -0.25211645846E+02  0.24968769182E+02  0.36030950341E+02  0.41800000000E+01 0.  1.
         -5    1    4    4    0  502  0.18543125688E+01  0.11351534773E+01  0.70230710399E+03  0.70232290848E+03  0.41800000000E+01 0.  1.
        -11    1    3    3    0    0 -0.63581695063E+01  0.41146493864E+02  0.44771098229E+02  0.61138461818E+02  0.00000000000E+00 0. -1.
         11    1    3    3    0    0  0.91611589229E+01 -0.17070001495E+02 -0.28984978667E+02  0.34863172147E+02  0.00000000000E+00 0.  1.
</event>
<event>
 8    1  0.5900800E-006  0.1703810E+03  0.7561462E-02  0.1177451E+00
          1   -1    0    0  501    0  0.00000000000E+00  0.00000000000E+00  0.30933956419E+03  0.30933956419E+03  0.00000000000E+00 0. -1.
         -1   -1    0    0    0  501 -0.00000000000E+00 -0.00000000000E+00 -0.97443808824E+02  0.97443808824E+02  0.00000000000E+00 0.  1.
         23    2    1    2    0    0 -0.12980769460E+03  0.54719258758E+01  0.75692181574E+02  0.18077759155E+03  0.10035562619E+03 0.  0.
         23    2    1    2    0    0  0.12980769460E+03 -0.54719258758E+01  0.13620357379E+03  0.22600578146E+03  0.12508884918E+03 0.  0.
          5    1    4    4  502    0  0.13965495707E+03  0.29427138976E+02  0.98073744943E+02  0.17322065520E+03  0.41800000000E+01 0.  1.
         -5    1    4    4    0  502 -0.98472624740E+01 -0.34899064851E+02  0.38129828844E+02  0.52785126252E+02  0.41800000000E+01 0.  1.
        -11    1    3    3    0    0 -0.54446591409E+02 -0.45117370487E+02  0.49474981089E+02  0.86300534120E+02  0.00000000000E+00 0. -1.
         11    1    3    3    0    0 -0.75361103187E+02  0.50589296363E+02  0.26217200486E+02  0.94477057433E+02  0.00000000000E+00 0.  1.
</event>
<event>
 8    1  0.5900800E-006  0.1251402E+03  0.7561462E-02  0.1234850E+00
         -1   -1    0    0    0  501 -0.00000000000E+00  0.00000000000E+00  0.25792210536E+02  0.25792210536E+02  0.00000000000E+00 0.  1.
          1   -1    0    0  501    0  0.00000000000E+00 -0.00000000000E+00 -0.82026656974E+03  0.82026656974E+03  0.00000000000E+00 0. -1.
         23    2    1    2    0    0  0.63530776986E+02 -0.46636090291E+02 -0.20366645612E+03  0.23703284923E+03  0.92159978965E+02 0.  0.
         23    2    1    2    0    0 -0.63530776986E+02  0.46636090291E+02 -0.59080790309E+03  0.60902593105E+03  0.12509005477E+03 0.  0.
          5    1    4    4  502    0  0.20050737830E+02 -0.26907786916E+02 -0.94526791288E+02  0.10039346470E+03  0.41800000000E+01 0.  1.
         -5    1    4    4    0  502 -0.83581514816E+02  0.73543877207E+02 -0.49628111180E+03  0.50863246635E+03  0.41800000000E+01 0.  1.
        -11    1    3    3    0    0  0.53471412445E+02 -0.64968849332E+02 -0.97328858552E+02  0.12865865707E+03  0.00000000000E+00 0.  1.
         11    1    3    3    0    0  0.10059364541E+02  0.18332759042E+02 -0.10633759757E+03  0.10837419216E+03  0.00000000000E+00 0. -1.
</event>
<event>
 8    1  0.5900800E-006  0.1099616E+03  0.7561462E-02  0.1260641E+00
         -2   -1    0    0    0  501 -0.00000000000E+00  0.00000000000E+00  0.28518050932E+02  0.28518050932E+02  0.00000000000E+00 0.  1.
          2   -1    0    0  501    0  0.00000000000E+00 -0.00000000000E+00 -0.48002065323E+03  0.48002065323E+03  0.00000000000E+00 0. -1.
         23    2    1    2    0    0 -0.25562581584E+02 -0.14550552913E+02 -0.12833068482E+03  0.16075570242E+03  0.92241352048E+02 0.  0.
         23    2    1    2    0    0  0.25562581584E+02  0.14550552913E+02 -0.32317191747E+03  0.34778300173E+03  0.12509102240E+03 0.  0.
          5    1    4    4  502    0 -0.42917370640E+02  0.32419372848E+02 -0.10004354713E+03  0.11366221958E+03  0.41800000000E+01 0. -1.
         -5    1    4    4    0  502  0.68479952224E+02 -0.17868819936E+02 -0.22312837034E+03  0.23412078215E+03  0.41800000000E+01 0. -1.
        -11    1    3    3    0    0  0.22095471702E+02 -0.36454784036E+02 -0.72857964582E+02  0.84412345969E+02  0.00000000000E+00 0.  1.
         11    1    3    3    0    0 -0.47658053286E+02  0.21904231123E+02 -0.55472720239E+02  0.76343356455E+02  0.00000000000E+00 0. -1.
</event>
<event>
 8    1  0.5900800E-006  0.2017359E+03  0.7561462E-02  0.1148283E+00
          1   -1    0    0  501    0  0.00000000000E+00  0.00000000000E+00  0.65206614098E+03  0.65206614098E+03  0.00000000000E+00 0. -1.
         -1   -1    0    0    0  501 -0.00000000000E+00 -0.00000000000E+00 -0.83908572927E+02  0.83908572927E+02  0.00000000000E+00 0.  1.
         23    2    1    2    0    0 -0.18775576138E+03 -0.22785198913E+02  0.14120973371E+03  0.25254596152E+03  0.89821392586E+02 0.  0.
         23    2    1    2    0    0  0.18775576138E+03  0.22785198913E+02  0.42694783434E+03  0.48342875238E+03  0.12509002422E+03 0.  0.
          5    1    4    4  502    0  0.15256373301E+03  0.56769330323E+02  0.23919431701E+03  0.28936109480E+03  0.41800000000E+01 0. -1.
         -5    1    4    4    0  502  0.35192028370E+02 -0.33984131410E+02  0.18775351733E+03  0.19406765758E+03  0.41800000000E+01 0. -1.
        -11    1    3    3    0    0 -0.13197532214E+03 -0.29847101749E+02  0.14223105610E+03  0.19631099933E+03  0.00000000000E+00 0.  1.
         11    1    3    3    0    0 -0.55780439236E+02  0.70619028361E+01 -0.10213223978E+01  0.56234962190E+02  0.00000000000E+00 0. -1.
</event>
<event>
 8    1  0.5900800E-006  0.1353301E+03  0.7561462E-02  0.1219754E+00
          2   -1    0    0  501    0  0.00000000000E+00  0.00000000000E+00  0.17556686423E+03  0.17556686423E+03  0.00000000000E+00 0.  1.
         -2   -1    0    0    0  501 -0.00000000000E+00 -0.00000000000E+00 -0.13298164848E+03  0.13298164848E+03  0.00000000000E+00 0. -1.
         23    2    1    2    0    0 -0.10403526105E+03  0.27332013220E+02  0.16603943251E+02  0.14152342945E+03  0.90458916994E+02 0.  0.
         23    2    1    2    0    0  0.10403526105E+03 -0.27332013220E+02  0.25981272498E+02  0.16702508326E+03  0.12510786318E+03 0.  0.
          5    1    4    4  502    0 -0.11001774505E+02 -0.39763876707E+02 -0.15156148490E+02  0.44151853530E+02  0.41800000000E+01 0. -1.
         -5    1    4    4    0  502  0.11503703556E+03  0.12431863488E+02  0.41137420988E+02  0.12287322973E+03  0.41800000000E+01 0. -1.
        -11    1    3    3    0    0 -0.23141946144E+02 -0.88709430892E+01 -0.31976708951E+02  0.40456806819E+02  0.00000000000E+00 0. -1.
         11    1    3    3    0    0 -0.80893314909E+02  0.36202956309E+02  0.48580652202E+02  0.10106662263E+03  0.00000000000E+00 0.  1.
</event>
<event>
 8    1  0.6294890E-006  0.1194537E+03  0.7561462E-02  0.1244001E+00
          1   -1    0    0  501    0  0.00000000000E+00  0.00000000000E+00  0.48857808294E+03  0.48857808294E+03  0.00000000000E+00 0. -1.
         -1   -1    0    0    0  501 -0.00000000000E+00 -0.00000000000E+00 -0.47433271437E+02  0.47433271437E+02  0.00000000000E+00 0.  1.
         23    2    1    2    0    0  0.89850034153E+02 -0.21544057230E+01  0.10382094603E+03  0.16518419966E+03  0.91811550922E+02 0.  0.
         23    2    1    2    0    0 -0.89850034153E+02  0.21544057230E+01  0.33732386548E+03  0.37082715472E+03  0.12509084040E+03 0.  0.
          5    1    4    4  502    0 -0.82213149549E+02 -0.42278373765E+02  0.13616418752E+03  0.16463481166E+03  0.41800000000E+01 0. -1.
         -5    1    4    4    0  502 -0.76368846035E+01  0.44432779489E+02  0.20115967796E+03  0.20619234306E+03  0.41800000000E+01 0. -1.
        -11    1    3    3    0    0  0.32130374863E+02  0.21552748295E+02 -0.57273055906E+01  0.39111174583E+02  0.00000000000E+00 0.  1.
         11    1    3    3    0    0  0.57719659290E+02 -0.23707154018E+02  0.10954825162E+03  0.12607302508E+03  0.00000000000E+00 0. -1.
</event>
<event>
 8    1  0.5900800E-006  0.1495782E+03  0.7561462E-02  0.1200992E+00
         -3   -1    0    0    0  501 -0.00000000000E+00  0.00000000000E+00  0.34199615918E+03  0.34199615918E+03  0.00000000000E+00 0.  1.
          3   -1    0    0  501    0  0.00000000000E+00 -0.00000000000E+00 -0.82734748130E+02  0.82734748130E+02  0.00000000000E+00 0. -1.
         23    2    1    2    0    0  0.10790717485E+03  0.50685857447E+02  0.17971524607E+03  0.23449708543E+03  0.92077678499E+02 0.  0.
         23    2    1    2    0    0 -0.10790717485E+03 -0.50685857447E+02  0.79546164976E+02  0.19023382187E+03  0.12509316565E+03 0.  0.
          5    1    4    4  502    0 -0.82501403816E+02  0.21676455692E+02  0.74381667633E+02  0.11325394140E+03  0.41800000000E+01 0. -1.
         -5    1    4    4    0  502 -0.25405771033E+02 -0.72362313139E+02  0.51644973431E+01  0.76979880472E+02  0.41800000000E+01 0. -1.
        -11    1    3    3    0    0 -0.78476867216E+01  0.13047395408E+02 -0.24363641316E+01  0.15419357444E+02  0.00000000000E+00 0. -1.
         11    1    3    3    0    0  0.11575486157E+03  0.37638462039E+02  0.18215161020E+03  0.21907772799E+03  0.00000000000E+00 0.  1.
</event>
<event>
 8    1  0.5900800E-006  0.8188512E+02  0.7561462E-02  0.1323785E+00
          2   -1    0    0  501    0  0.00000000000E+00  0.00000000000E+00  0.40542604765E+02  0.40542604765E+02  0.00000000000E+00 0. -1.
         -2   -1    0    0    0  501 -0.00000000000E+00 -0.00000000000E+00 -0.31933799569E+03  0.31933799569E+03  0.00000000000E+00 0.  1.
         23    2    1    2    0    0  0.29078226871E+02 -0.20292227879E+02 -0.10616762075E+03  0.14376915575E+03  0.90225764941E+02 0.  0.
         23    2    1    2    0    0 -0.29078226871E+02  0.20292227879E+02 -0.17262777017E+03  0.21611144470E+03  0.12508593728E+03 0.  0.
          5    1    4    4  502    0  0.15666278990E+02 -0.45683457021E+02 -0.82737252645E+02  0.95892314176E+02  0.41800000000E+01 0. -1.
         -5    1    4    4    0  502 -0.44744505861E+02  0.65975684900E+02 -0.89890517530E+02  0.12021913053E+03  0.41800000000E+01 0. -1.
        -11    1    3    3    0    0  0.17280970778E+02 -0.11577797886E+02 -0.12107941766E+03  0.12285317552E+03  0.00000000000E+00 0.  1.
         11    1    3    3    0    0  0.11797256094E+02 -0.87144299933E+01  0.14911796916E+02  0.20915980224E+02  0.00000000000E+00 0. -1.
</event>
<event>
 8    1  0.6486978E-006  0.8472865E+02  0.7561462E-02  0.1316144E+00
          1   -1    0    0  501    0  0.00000000000E+00  0.00000000000E+00  0.55178748933E+02  0.55178748933E+02  0.00000000000E+00 0. -1.
         -1   -1    0    0    0  501 -0.00000000000E+00 -0.00000000000E+00 -0.20789858582E+03  0.20789858582E+03  0.00000000000E+00 0.  1.
         23    2    1    2    0    0 -0.16495951446E+02 -0.12193078924E+02 -0.87984068403E+02  0.12074469047E+03  0.80108029541E+02 0.  0.
         23    2    1    2    0    0  0.16495951446E+02  0.12193078924E+02 -0.64735768486E+02  0.14233264428E+03  0.12508826611E+03 0.  0.
          5    1    4    4  502    0 -0.14592430165E+02  0.50762258586E+02 -0.74746477520E+02  0.91620162718E+02  0.41800000000E+01 0.  1.
         -5    1    4    4    0  502  0.31088381611E+02 -0.38569179661E+02  0.10010709034E+02  0.50712481563E+02  0.41800000000E+01 0.  1.
        -11    1    3    3    0    0  0.24125485904E+02  0.71633238084E+00 -0.70776707706E+02  0.74778971348E+02  0.00000000000E+00 0.  1.
         11    1    3    3    0    0 -0.40621437349E+02 -0.12909411305E+02 -0.17207360698E+02  0.45965719126E+02  0.00000000000E+00 0. -1.
</event>
<event>
 8    1  0.5900800E-006  0.9488767E+02  0.7561462E-02  0.1291429E+00
          1   -1    0    0  501    0  0.00000000000E+00  0.00000000000E+00  0.84753177080E+02  0.84753177080E+02  0.00000000000E+00 0. -1.
         -1   -1    0    0    0  501 -0.00000000000E+00 -0.00000000000E+00 -0.14824753933E+03  0.14824753933E+03  0.00000000000E+00 0.  1.
         23    2    1    2    0    0  0.27828814687E+02  0.28518393975E+02 -0.60566841156E+02  0.11307411068E+03  0.86773674210E+02 0.  0.
         23    2    1    2    0    0 -0.27828814687E+02 -0.28518393975E+02 -0.29275210922E+01  0.11992660573E+03  0.11307554404E+03 0.  0.
          5    1    4    4  502    0 -0.58579411935E+02 -0.35530678793E+02  0.29307420087E+02  0.74634937599E+02  0.41800000000E+01 0. -1.
         -5    1    4    4    0  502  0.30750597249E+02  0.70122848177E+01 -0.32234941179E+02  0.45291668134E+02  0.41800000000E+01 0.  1.
        -11    1    3    3    0    0  0.48428411347E+02  0.42492302292E+02 -0.23819616438E+02  0.68689743826E+02  0.00000000000E+00 0.  1.
         11    1    3    3    0    0 -0.20599596660E+02 -0.13973908317E+02 -0.36747224718E+02  0.44384366850E+02  0.00000000000E+00 0. -1.
</event>
<event>
 8    1  0.5900800E-006  0.8347858E+02  0.7561462E-02  0.1319460E+00
         -2   -1    0    0    0  501 -0.00000000000E+00  0.00000000000E+00  0.13434156646E+03  0.13434156646E+03  0.00000000000E+00 0. -1.
          2   -1    0    0  501    0  0.00000000000E+00 -0.00000000000E+00 -0.95052590998E+02  0.95052590998E+02  0.00000000000E+00 0.  1.
         23    2    1    2    0    0  0.36329431406E+02  0.10584434193E+02  0.30992292155E+02  0.98445853510E+02  0.85435391185E+02 0.  0.
         23    2    1    2    0    0 -0.36329431406E+02 -0.10584434193E+02  0.82966833105E+01  0.13094830395E+03  0.12508703178E+03 0.  0.
          5    1    4    4  502    0 -0.16134731964E+02 -0.66048035668E+02 -0.10363082396E+02  0.68902383615E+02  0.41800000000E+01 0.  1.
         -5    1    4    4    0  502 -0.20194699442E+02  0.55463601475E+02  0.18659765707E+02  0.62045920336E+02  0.41800000000E+01 0.  1.
        -11    1    3    3    0    0  0.26653477194E+02  0.19974618959E+01  0.60546821522E+02  0.66183950448E+02  0.00000000000E+00 0. -1.
         11    1    3    3    0    0  0.96759542113E+01  0.85869722967E+01 -0.29554529366E+02  0.32261903062E+02  0.00000000000E+00 0.  1.
</event>
<event>
 8    1  0.5900800E-006  0.1273603E+03  0.7561462E-02  0.1231426E+00
         -2   -1    0    0    0  501 -0.00000000000E+00  0.00000000000E+00  0.10262475948E+03  0.10262475948E+03  0.00000000000E+00 0.  1.
          2   -1    0    0  501    0  0.00000000000E+00 -0.00000000000E+00 -0.22363385717E+03  0.22363385717E+03  0.00000000000E+00 0. -1.
         23    2    1    2    0    0 -0.87278741654E+02  0.46682698379E+02 -0.21614605694E+02  0.13831292959E+03  0.94161681380E+02 0.  0.
         23    2    1    2    0    0  0.87278741654E+02 -0.46682698379E+02 -0.99394491992E+02  0.18794568706E+03  0.12508982043E+03 0.  0.
          5    1    4    4  502    0 -0.77290582421E+01 -0.51721050468E+02 -0.31621857913E+01  0.52557370766E+02  0.41800000000E+01 0.  1.
         -5    1    4    4    0  502  0.95007799896E+02  0.50383520894E+01 -0.96232306201E+02  0.13538831630E+03  0.41800000000E+01 0.  1.
        -11    1    3    3    0    0 -0.20206307933E+02 -0.67152945612E+01  0.31084957665E+02  0.37678437525E+02  0.00000000000E+00 0.  1.
         11    1    3    3    0    0 -0.67072433721E+02  0.53397992940E+02 -0.52699563359E+02  0.10063449207E+03  0.00000000000E+00 0. -1.
</event>
<event>
 8    1  0.5900800E-006  0.1988214E+03  0.7561462E-02  0.1150737E+00
          2   -1    0    0  501    0  0.00000000000E+00  0.00000000000E+00  0.14559483300E+04  0.14559483300E+04  0.00000000000E+00 0. -1.
         -2   -1    0    0    0  501 -0.00000000000E+00 -0.00000000000E+00 -0.33818455020E+02  0.33818455020E+02  0.00000000000E+00 0.  1.
         23    2    1    2    0    0 -0.14622521934E+03  0.10778769053E+03  0.45742964355E+03  0.50017397006E+03  0.89062452941E+02 0.  0.
         23    2    1    2    0    0  0.14622521934E+03 -0.10778769053E+03  0.96470023144E+03  0.98959281497E+03  0.12508957551E+03 0.  0.
          5    1    4    4  502    0  0.15153560716E+03 -0.73076416134E+02  0.90238264622E+03  0.91794069276E+03  0.41800000000E+01 0. -1.
         -5    1    4    4    0  502 -0.53103878227E+01 -0.34711274399E+02  0.62317585222E+02  0.71652122210E+02  0.41800000000E+01 0. -1.
        -11    1    3    3    0    0 -0.36015059331E+02 -0.49270780394E+01  0.40413512597E+02  0.54356348268E+02  0.00000000000E+00 0.  1.
         11    1    3    3    0    0 -0.11021016001E+03  0.11271476857E+03  0.41701613095E+03  0.44581762179E+03  0.00000000000E+00 0. -1.
</event>
<event>
 8    1  0.5900800E-006  0.1232629E+03  0.7561462E-02  0.1237809E+00
          2   -1    0    0  501    0  0.00000000000E+00  0.00000000000E+00  0.70614706252E+02  0.70614706252E+02  0.00000000000E+00 0. -1.
         -2   -1    0    0    0  501 -0.00000000000E+00 -0.00000000000E+00 -0.22307263484E+03  0.22307263484E+03  0.00000000000E+00 0.  1.
         23    2    1    2    0    0  0.70494067596E+02 -0.54523439247E+01 -0.78038766034E+02  0.14039229492E+03  0.92848294802E+02 0.  0.
         23    2    1    2    0    0 -0.70494067596E+02  0.54523439247E+01 -0.74419162557E+02  0.15329504618E+03  0.11385085773E+03 0.  0.
          5    1    4    4  502    0 -0.67155036615E+02 -0.46315785682E+02 -0.50340493948E+02  0.95950970172E+02  0.41800000000E+01 0. -1.
         -5    1    4    4    0  502 -0.33390309813E+01  0.51768129607E+02 -0.24078668609E+02  0.57344076005E+02  0.41800000000E+01 0.  1.
        -11    1    3    3    0    0  0.90268715439E+02 -0.13827971599E+02 -0.47159926589E+02  0.10277992246E+03  0.00000000000E+00 0.  1.
         11    1    3    3    0    0 -0.19774647843E+02  0.83756276742E+01 -0.30878839445E+02  0.37612372455E+02  0.00000000000E+00 0. -1.
</event>
<event>
 8    1  0.5900800E-006  0.1218830E+03  0.7561462E-02  0.1240023E+00
         -4   -1    0    0    0  501 -0.00000000000E+00  0.00000000000E+00  0.28893063383E+03  0.28893063383E+03  0.00000000000E+00 0. -1.
          4   -1    0    0  501    0  0.00000000000E+00 -0.00000000000E+00 -0.59786139478E+02  0.59786139478E+02  0.00000000000E+00 0.  1.
         23    2    1    2    0    0  0.22659600898E+02  0.62390776375E+02  0.15377839245E+03  0.18829815887E+03  0.86036830252E+02 0.  0.
         23    2    1    2    0    0 -0.22659600898E+02 -0.62390776375E+02  0.75366101906E+02  0.16041861444E+03  0.12509203034E+03 0.  0.
          5    1    4    4  502    0  0.45448017572E+01 -0.93431917479E+02  0.28606355750E+02  0.97907989542E+02  0.41800000000E+01 0. -1.
         -5    1    4    4    0  502 -0.27204402655E+02  0.31041141104E+02  0.46759746156E+02  0.62510624900E+02  0.41800000000E+01 0. -1.
        -11    1    3    3    0    0  0.49671766402E+02  0.11434473586E+02  0.70241956320E+02  0.86786888360E+02  0.00000000000E+00 0.  1.
         11    1    3    3    0    0 -0.27012165504E+02  0.50956302789E+02  0.83536436130E+02  0.10151127051E+03  0.00000000000E+00 0. -1.
</event>
<event>
 8    1  0.5900800E-006  0.7565347E+02  0.7561462E-02  0.1341859E+00
          3   -1    0    0  501    0  0.00000000000E+00  0.00000000000E+00  0.92825687009E+03  0.92825687009E+03  0.00000000000E+00 0. -1.
         -3   -1    0    0    0  501 -0.00000000000E+00 -0.00000000000E+00 -0.15225861032E+02  0.15225861032E+02  0.00000000000E+00 0.  1.
         23    2    1    2    0    0  0.38949144311E+02 -0.37824192609E+02  0.28438093490E+03  0.30021286416E+03  0.79420037041E+02 0.  0.
         23    2    1    2    0    0 -0.38949144311E+02  0.37824192609E+02  0.62865007415E+03  0.64326986696E+03  0.12508997007E+03 0.  0.
          5    1    4    4  502    0 -0.57830572833E+02  0.33164130166E+02  0.61618505631E+03  0.61979491020E+03  0.41800000000E+01 0. -1.
         -5    1    4    4    0  502  0.18881428523E+02  0.46600624430E+01  0.12465017840E+02  0.23474956758E+02  0.41800000000E+01 0. -1.
        -11    1    3    3    0    0 -0.64086251122E+01 -0.83497999570E+01 -0.20895326398E+00  0.10527739388E+02  0.00000000000E+00 0.  1.
         11    1    3    3    0    0  0.45357769423E+02 -0.29474392652E+02  0.28458988817E+03  0.28968512477E+03  0.00000000000E+00 0. -1.
</event>
<event>
 8    1  0.5900800E-006  0.1139900E+03  0.7561462E-02  0.1253354E+00
          2   -1    0    0  501    0  0.00000000000E+00  0.00000000000E+00  0.80853416026E+03  0.80853416026E+03  0.00000000000E+00 0. -1.
         -2   -1    0    0    0  501 -0.00000000000E+00 -0.00000000000E+00 -0.31311621432E+02  0.31311621432E+02  0.00000000000E+00 0.  1.
         23    2    1    2    0    0  0.15540498201E+02  0.35677573439E+02  0.73838707671E+02  0.12436608418E+03  0.92197460995E+02 0.  0.
         23    2    1    2    0    0 -0.15540498201E+02 -0.35677573439E+02  0.70338383115E+03  0.71547969750E+03  0.12509191533E+03 0.  0.
          5    1    4    4  502    0  0.25820385879E+02  0.36434852869E+02  0.32271130589E+03  0.32581321364E+03  0.41800000000E+01 0.  1.
         -5    1    4    4    0  502 -0.41360884081E+02 -0.72112426308E+02  0.38067252526E+03  0.38966648386E+03  0.41800000000E+01 0.  1.
        -11    1    3    3    0    0 -0.34703437046E+02  0.35503692332E+02  0.40452248221E+02  0.64040808069E+02  0.00000000000E+00 0. -1.
         11    1    3    3    0    0  0.50243935247E+02  0.17388110662E+00  0.33386459450E+02  0.60325276115E+02  0.00000000000E+00 0.  1.
</event>
<event>
 8    1  0.5900800E-006  0.1162756E+03  0.7561462E-02  0.1249371E+00
         -2   -1    0    0    0  501 -0.00000000000E+00  0.00000000000E+00  0.11579938743E+02  0.11579938743E+02  0.00000000000E+00 0.  1.
          2   -1    0    0  501    0  0.00000000000E+00 -0.00000000000E+00 -0.14680318653E+04  0.14680318653E+04  0.00000000000E+00 0. -1.
         23    2    1    2    0    0  0.41939923703E+02  0.33043684243E+02 -0.42912616020E+03  0.44332138415E+03  0.97640903336E+02 0.  0.
         23    2    1    2    0    0 -0.41939923703E+02 -0.33043684243E+02 -0.10273257664E+04  0.10362904199E+04  0.12509501142E+03 0.  0.
          5    1    4    4  502    0  0.34477072713E+02 -0.36630778538E+02 -0.24030614307E+03  0.24555039661E+03  0.41800000000E+01 0. -1.
         -5    1    4    4    0  502 -0.76416996416E+02  0.35870942951E+01 -0.78701962333E+03  0.79074002333E+03  0.41800000000E+01 0. -1.
        -11    1    3    3    0    0  0.11881799284E+02 -0.31821604264E+02 -0.79362314535E+02  0.86325944075E+02  0.00000000000E+00 0.  1.
         11    1    3    3    0    0  0.30058124420E+02  0.64865288507E+02 -0.34976384566E+03  0.35699544007E+03  0.00000000000E+00 0. -1.
</event>
<event>
 8    1  0.5900800E-006  0.9133613E+02  0.7561462E-02  0.1299648E+00
          2   -1    0    0  501    0  0.00000000000E+00  0.00000000000E+00  0.91906403321E+03  0.91906403321E+03  0.00000000000E+00 0. -1.
         -2   -1    0    0    0  501 -0.00000000000E+00 -0.00000000000E+00 -0.15177700704E+02  0.15177700704E+02  0.00000000000E+00 0.  1.
         23    2    1    2    0    0 -0.41432540754E+02 -0.12379537601E+02  0.30003743022E+03  0.31605472436E+03  0.89432772895E+02 0.  0.
         23    2    1    2    0    0  0.41432540754E+02  0.12379537601E+02  0.60384890228E+03  0.61818700956E+03  0.12510704862E+03 0.  0.
          5    1    4    4  502    0  0.57221258478E+02  0.35517607405E+02  0.16280676891E+03  0.17623645837E+03  0.41800000000E+01 0. -1.
         -5    1    4    4    0  502 -0.15788717724E+02 -0.23138069805E+02  0.44104213337E+03  0.44195055118E+03  0.41800000000E+01 0. -1.
        -11    1    3    3    0    0 -0.27500375273E+02  0.30923976635E+02  0.22117383737E+03  0.22501206480E+03  0.00000000000E+00 0. -1.
         11    1    3    3    0    0 -0.13932165481E+02 -0.43303514236E+02  0.78863592855E+02  0.91042659551E+02  0.00000000000E+00 0.  1.
</event>
<event>
 7    1  0.5900800E-006  0.9787307E+02  0.7561462E-02  0.1284833E+00
         -1   -1    0    0    0  501 -0.00000000000E+00  0.00000000000E+00  0.10571945407E+03  0.10571945407E+03  0.00000000000E+00 0.  1.
          1   -1    0    0  501    0  0.00000000000E+00 -0.00000000000E+00 -0.27991905160E+03  0.27991905160E+03  0.00000000000E+00 0. -1.
         23    2    1    2    0    0  0.11794441114E+02  0.41504908974E+02  0.48001846397E+02  0.11194060746E+03  0.91459040180E+02 0.  0.
          5    1    1    2  502    0  0.12321888117E+02  0.36507744075E+02 -0.17510217803E+03  0.17934015015E+03  0.41800000000E+01 0. -1.
         -5    1    1    2    0  502 -0.24116329230E+02 -0.78012653049E+02 -0.47099265895E+02  0.94357748061E+02  0.41800000000E+01 0.  1.
        -11    1    3    3    0    0 -0.25472902543E+02  0.16679128114E+02  0.58498182089E+02  0.65947701903E+02  0.00000000000E+00 0. -1.
         11    1    3    3    0    0  0.37267343657E+02  0.24825780860E+02 -0.10496335692E+02  0.45992905556E+02  0.00000000000E+00 0.  1.
</event>
<event>
 8    1  0.5900800E-006  0.1603818E+03  0.7561462E-02  0.1188266E+00
          2   -1    0    0  501    0  0.00000000000E+00  0.00000000000E+00  0.11436206699E+04  0.11436206699E+04  0.00000000000E+00 0. -1.
         -2   -1    0    0    0  501 -0.00000000000E+00 -0.00000000000E+00 -0.43796806016E+02  0.43796806016E+02  0.00000000000E+00 0.  1.
         23    2    1    2    0    0 -0.14713394545E+03 -0.15347546579E+02  0.18778339344E+03  0.25502829377E+03  0.88841897086E+02 0.  0.
         23    2    1    2    0    0  0.14713394545E+03  0.15347546579E+02  0.91204047042E+03  0.93238918213E+03  0.12509125539E+03 0.  0.
          5    1    4    4  502    0  0.32381963176E+02  0.34424073053E+02  0.86279487687E+02  0.98464362793E+02  0.41800000000E+01 0. -1.
         -5    1    4    4    0  502  0.11475198228E+03 -0.19076526474E+02  0.82576098274E+03  0.83392481934E+03  0.41800000000E+01 0. -1.
        -11    1    3    3    0    0 -0.98896360245E+02  0.14851534004E+02  0.63843698218E+02  0.11864685387E+03  0.00000000000E+00 0.  1.
         11    1    3    3    0    0 -0.48237585209E+02 -0.30199080583E+02  0.12393969522E+03  0.13638143989E+03  0.00000000000E+00 0. -1.
</event>
<event>
 8    1  0.5900800E-006  0.9801521E+02  0.7561462E-02  0.1284526E+00
         -1   -1    0    0    0  501 -0.00000000000E+00  0.00000000000E+00  0.14268616541E+03  0.14268616541E+03  0.00000000000E+00 0.  1.
          1   -1    0    0  501    0  0.00000000000E+00 -0.00000000000E+00 -0.10787031968E+03  0.10787031968E+03  0.00000000000E+00 0. -1.
         23    2    1    2    0    0 -0.50668789649E+02 -0.12444860886E+02  0.45125032056E+02  0.11463061522E+03  0.91551671864E+02 0.  0.
         23    2    1    2    0    0  0.50668789649E+02  0.12444860886E+02 -0.10309186333E+02  0.13592586987E+03  0.12508941590E+03 0.  0.
          5    1    4    4  502    0  0.44033337269E+00  0.60494076525E+02 -0.23532588925E+02  0.65046001642E+02  0.41800000000E+01 0. -1.
         -5    1    4    4    0  502  0.50228456277E+02 -0.48049215639E+02  0.13223402592E+02  0.70879868225E+02  0.41800000000E+01 0. -1.
        -11    1    3    3    0    0 -0.45724410841E+02  0.64923171318E+01  0.69453512970E+02  0.83406608806E+02  0.00000000000E+00 0.  1.
         11    1    3    3    0    0 -0.49443788079E+01 -0.18937178018E+02 -0.24328480914E+02  0.31224006416E+02  0.00000000000E+00 0. -1.
</event>
<event>
 8    1  0.5900800E-006  0.1153034E+03  0.7561462E-02  0.1251052E+00
         -1   -1    0    0    0  501 -0.00000000000E+00  0.00000000000E+00  0.88522781316E+02  0.88522781316E+02  0.00000000000E+00 0.  1.
          1   -1    0    0  501    0  0.00000000000E+00 -0.00000000000E+00 -0.18648117882E+03  0.18648117882E+03  0.00000000000E+00 0. -1.
         23    2    1    2    0    0  0.33679922995E+02  0.34505519664E+02  0.10329869758E+02  0.10267089104E+03  0.90053526069E+02 0.  0.
         23    2    1    2    0    0 -0.33679922995E+02 -0.34505519664E+02 -0.10828826726E+03  0.17233306909E+03  0.12508944710E+03 0.  0.
          5    1    4    4  502    0  0.16162867571E+02  0.40557706712E+02 -0.35626552005E+02  0.56505658740E+02  0.41800000000E+01 0. -1.
         -5    1    4    4    0  502 -0.49842790567E+02 -0.75063226376E+02 -0.72661715257E+02  0.11582741035E+03  0.41800000000E+01 0. -1.
        -11    1    3    3    0    0  0.61159220989E+02  0.15370819647E+02  0.22629211028E+02  0.66998459687E+02  0.00000000000E+00 0.  1.
         11    1    3    3    0    0 -0.27479297994E+02  0.19134700017E+02 -0.12299341270E+02  0.35672431353E+02  0.00000000000E+00 0. -1.
</event>
<event>
 8    1  0.5900800E-006  0.7914245E+02  0.7561462E-02  0.1331503E+00
          1   -1    0    0  501    0  0.00000000000E+00  0.00000000000E+00  0.23141185971E+03  0.23141185971E+03  0.00000000000E+00 0. -1.
         -1   -1    0    0    0  501 -0.00000000000E+00 -0.00000000000E+00 -0.64589178911E+02  0.64589178911E+02  0.00000000000E+00 0.  1.
         23    2    1    2    0    0 -0.37397110599E+02 -0.34808029701E+02  0.40255995437E+02  0.11086125940E+03  0.89774889883E+02 0.  0.
         23    2    1    2    0    0  0.37397110599E+02  0.34808029701E+02  0.12656668536E+03  0.18513977922E+03  0.12508984449E+03 0.  0.
          5    1    4    4  502    0  0.13922977191E+02 -0.98440037337E+00  0.13947762040E+03  0.14023657629E+03  0.41800000000E+01 0.  1.
         -5    1    4    4    0  502  0.23474133408E+02  0.35792430075E+02 -0.12910935038E+02  0.44903202931E+02  0.41800000000E+01 0.  1.
        -11    1    3    3    0    0 -0.70384601718E+01  0.29108681917E+02  0.10507102506E+01  0.29965968641E+02  0.00000000000E+00 0. -1.
         11    1    3    3    0    0 -0.30358650428E+02 -0.63916711618E+02  0.39205285187E+02  0.80895290756E+02  0.00000000000E+00 0.  1.
</event>
<event>
 8    1  0.5900800E-006  0.1000625E+03  0.7561462E-02  0.1280164E+00
         -1   -1    0    0    0  501 -0.00000000000E+00  0.00000000000E+00  0.53091420645E+02  0.53091420645E+02  0.00000000000E+00 0.  1.
          1   -1    0    0  501    0  0.00000000000E+00 -0.00000000000E+00 -0.30117268068E+03  0.30117268068E+03  0.00000000000E+00 0. -1.
         23    2    1    2    0    0  0.50024810292E+02  0.13941113467E+01 -0.52042300711E+02  0.11639133609E+03  0.91291384383E+02 0.  0.
         23    2    1    2    0    0 -0.50024810292E+02 -0.13941113467E+01 -0.19603895932E+03  0.23787276523E+03  0.12509098159E+03 0.  0.
          5    1    4    4  502    0  0.34092956866E+02  0.18281945579E+02 -0.10648949486E+03  0.11337567710E+03  0.41800000000E+01 0. -1.
         -5    1    4    4    0  502 -0.84117767158E+02 -0.19676056926E+02 -0.89549464457E+02  0.12449708813E+03  0.41800000000E+01 0. -1.
        -11    1    3    3    0    0  0.36276284479E+02 -0.25621686968E+02 -0.68698141153E+02  0.81803876782E+02  0.00000000000E+00 0. -1.
         11    1    3    3    0    0  0.13748525813E+02  0.27015798315E+02  0.16655840442E+02  0.34587459309E+02  0.00000000000E+00 0.  1.
</event>
<event>
 8    1  0.5900800E-006  0.1269110E+03  0.7561462E-02  0.1232113E+00
         -2   -1    0    0    0  501 -0.00000000000E+00  0.00000000000E+00  0.25443571138E+02  0.25443571138E+02  0.00000000000E+00 0.  1.
          2   -1    0    0  501    0  0.00000000000E+00 -0.00000000000E+00 -0.75828807692E+03  0.75828807692E+03  0.00000000000E+00 0. -1.
         23    2    1    2    0    0 -0.19827166198E+01  0.83918784127E+02 -0.36360813219E+03  0.38494816006E+03  0.94487663966E+02 0.  0.
         23    2    1    2    0    0  0.19827166198E+01 -0.83918784127E+02 -0.36923637359E+03  0.39878348800E+03  0.12508587940E+03 0.  0.
          5    1    4    4  502    0  0.24845982252E+02 -0.10923368125E+03 -0.23732509489E+03  0.26246903249E+03  0.41800000000E+01 0. -1.
         -5    1    4    4    0  502 -0.22863265632E+02  0.25314897123E+02 -0.13191127871E+03  0.13631445551E+03  0.41800000000E+01 0. -1.
        -11    1    3    3    0    0 -0.30941294721E+02  0.19103092294E+02 -0.41802522801E+02  0.55405259378E+02  0.00000000000E+00 0.  1.
         11    1    3    3    0    0  0.28958578101E+02  0.64815691832E+02 -0.32180560939E+03  0.32954290068E+03  0.00000000000E+00 0. -1.
</event>
<event>
 8    1  0.5900800E-006  0.1585035E+03  0.7561462E-02  0.1190397E+00
          2   -1    0    0  501    0  0.00000000000E+00  0.00000000000E+00  0.32078948883E+03  0.32078948883E+03  0.00000000000E+00 0. -1.
         -2   -1    0    0    0  501 -0.00000000000E+00 -0.00000000000E+00 -0.10739495081E+03  0.10739495081E+03  0.00000000000E+00 0.  1.
         23    2    1    2    0    0 -0.12748783469E+03 -0.16016497839E+01  0.99428008154E+01  0.15745342297E+03  0.91853186337E+02 0.  0.
         23    2    1    2    0    0  0.12748783469E+03  0.16016497839E+01  0.20345173721E+03  0.27073101668E+03  0.12508781213E+03 0.  0.
          5    1    4    4  502    0 -0.29069937608E+01  0.38087965609E+02  0.73867230379E+02  0.83264541438E+02  0.41800000000E+01 0.  1.
         -5    1    4    4    0  502  0.13039482845E+03 -0.36486315825E+02  0.12958450683E+03  0.18746647524E+03  0.41800000000E+01 0.  1.
        -11    1    3    3    0    0 -0.24391382260E+02  0.26737745953E+02  0.31967072485E+02  0.48288096985E+02  0.00000000000E+00 0. -1.
         11    1    3    3    0    0 -0.10309645243E+03 -0.28339395737E+02 -0.22024271669E+02  0.10916532598E+03  0.00000000000E+00 0.  1.
</event>
<event>
 8    1  0.5900800E-006  0.1003514E+03  0.7561462E-02  0.1279559E+00
         -1   -1    0    0    0  501 -0.00000000000E+00  0.00000000000E+00  0.19495869083E+02  0.19495869083E+02  0.00000000000E+00 0.  1.
          1   -1    0    0  501    0  0.00000000000E+00 -0.00000000000E+00 -0.77747117223E+03  0.77747117223E+03  0.00000000000E+00 0. -1.
         23    2    1    2    0    0 -0.31848095657E+02  0.43590784076E+02 -0.31457402513E+03  0.33313879471E+03  0.95447271299E+02 0.  0.
         23    2    1    2    0    0  0.31848095657E+02 -0.43590784076E+02 -0.44340127801E+03  0.46382824660E+03  0.12496996179E+03 0.  0.
          5    1    4    4  502    0 -0.18201438877E+01 -0.77152901860E+02 -0.35553590129E+03  0.36383943258E+03  0.41800000000E+01 0.  1.
         -5    1    4    4    0  502  0.33668239545E+02  0.33562117785E+02 -0.87865376721E+02  0.99988814027E+02  0.41800000000E+01 0.  1.
        -11    1    3    3    0    0  0.98906298525E+01 -0.54515185710E+01  0.73790212915E+00  0.11317601917E+02  0.00000000000E+00 0.  1.
         11    1    3    3    0    0 -0.41738725510E+02  0.49042302647E+02 -0.31531192726E+03  0.32182119279E+03  0.00000000000E+00 0. -1.
</event>
<event>
 8    1  0.5900800E-006  0.1075914E+03  0.7561462E-02  0.1265096E+00
          1   -1    0    0  501    0  0.00000000000E+00  0.00000000000E+00  0.58248586595E+03  0.58248586595E+03  0.00000000000E+00 0. -1.
         -1   -1    0    0    0  501 -0.00000000000E+00 -0.00000000000E+00 -0.41800797477E+02  0.41800797477E+02  0.00000000000E+00 0.  1.
         23    2    1    2    0    0  0.24435381800E+01  0.67154371555E+02  0.72055411451E+02  0.13461628014E+03  0.91727204589E+02 0.  0.
         23    2    1    2    0    0 -0.24435381800E+01 -0.67154371555E+02  0.46862965702E+03  0.48967038329E+03  0.12509056052E+03 0.  0.
          5    1    4    4  502    0 -0.27516841194E+02  0.27223250335E+02  0.20136282790E+03  0.20509203487E+03  0.41800000000E+01 0. -1.
         -5    1    4    4    0  502  0.25073303014E+02 -0.94377621890E+02  0.26726682912E+03  0.28457834842E+03  0.41800000000E+01 0. -1.
        -11    1    3    3    0    0 -0.99252618238E+01  0.65243032112E+02  0.90695453259E+02  0.11216429603E+03  0.00000000000E+00 0. -1.
         11    1    3    3    0    0  0.12368800004E+02  0.19113394428E+01 -0.18640041808E+02  0.22451984113E+02  0.00000000000E+00 0.  1.
</event>
<event>
 8    1  0.5900800E-006  0.1454856E+03  0.7561462E-02  0.1206133E+00
         -1   -1    0    0    0  501 -0.00000000000E+00  0.00000000000E+00  0.63994740556E+02  0.63994740556E+02  0.00000000000E+00 0.  1.
          1   -1    0    0  501    0  0.00000000000E+00 -0.00000000000E+00 -0.41451101192E+03  0.41451101192E+03  0.00000000000E+00 0. -1.
         23    2    1    2    0    0  0.80127450887E+02  0.80870522958E+02 -0.10343669606E+03  0.17907987735E+03  0.91706065823E+02 0.  0.
         23    2    1    2    0    0 -0.80127450887E+02 -0.80870522958E+02 -0.24707957531E+03  0.29942587513E+03  0.12508832199E+03 0.  0.
          5    1    4    4  502    0  0.15737899818E+02  0.17240589924E+02 -0.78750160160E+02  0.82243416496E+02  0.41800000000E+01 0. -1.
         -5    1    4    4    0  502 -0.95865350705E+02 -0.98111112882E+02 -0.16832941514E+03  0.21718245864E+03  0.41800000000E+01 0. -1.
        -11    1    3    3    0    0  0.75642066588E+02  0.33991749314E+02 -0.10267315082E+03  0.13198082118E+03  0.00000000000E+00 0. -1.
         11    1    3    3    0    0  0.44853842993E+01  0.46878773644E+02 -0.76354524196E+00  0.47099056169E+02  0.00000000000E+00 0.  1.
</event>
<event>
 8    1  0.5900800E-006  0.1091881E+03  0.7561462E-02  0.1262081E+00
         -2   -1    0    0    0  501 -0.00000000000E+00  0.00000000000E+00  0.45423669540E+02  0.45423669540E+02  0.00000000000E+00 0.  1.
          2   -1    0    0  501    0  0.00000000000E+00 -0.00000000000E+00 -0.27916816402E+03  0.27916816402E+03  0.00000000000E+00 0. -1.
         23    2    1    2    0    0 -0.22892388286E+02 -0.98066058933E+01 -0.74644224799E+02  0.12068117756E+03  0.91498389936E+02 0.  0.
         23    2    1    2    0    0  0.22892388286E+02  0.98066058933E+01 -0.15910026968E+03  0.20391065599E+03  0.12508568606E+03 0.  0.
          5    1    4    4  502    0 -0.41957459390E+02  0.36519584130E+02 -0.86108138362E+02  0.10259723347E+03  0.41800000000E+01 0.  1.
         -5    1    4    4    0  502  0.64849847677E+02 -0.26712978237E+02 -0.72992131314E+02  0.10131342253E+03  0.41800000000E+01 0.  1.
        -11    1    3    3    0    0 -0.21664345858E+02 -0.48762704966E+02 -0.29248109547E+02  0.60848970321E+02  0.00000000000E+00 0.  1.
         11    1    3    3    0    0 -0.12280424288E+01  0.38956099073E+02 -0.45396115253E+02  0.59832207240E+02  0.00000000000E+00 0. -1.
</event>
<event>
 8    1  0.5900800E-006  0.1394054E+03  0.7561462E-02  0.1214131E+00
         -3   -1    0    0    0  501 -0.00000000000E+00  0.00000000000E+00  0.12810004961E+03  0.12810004961E+03  0.00000000000E+00 0.  1.
          3   -1    0    0  501    0  0.00000000000E+00 -0.00000000000E+00 -0.22260799533E+03  0.22260799533E+03  0.00000000000E+00 0. -1.
         23    2    1    2    0    0  0.48085542816E+02  0.11287968271E+03  0.18608753211E+01  0.15073604289E+03  0.87543415363E+02 0.  0.
         23    2    1    2    0    0 -0.48085542816E+02 -0.11287968271E+03 -0.96368821036E+02  0.19997200204E+03  0.12509120567E+03 0.  0.
          5    1    4    4  502    0  0.35389555832E+01 -0.31241922673E+02 -0.98280212922E+02  0.10327175118E+03  0.41800000000E+01 0.  1.
         -5    1    4    4    0  502 -0.51624498399E+02 -0.81637760039E+02  0.19113918858E+01  0.96700250869E+02  0.41800000000E+01 0.  1.
        -11    1    3    3    0    0 -0.13655627137E+02 -0.71638028037E+01  0.31518884580E+01  0.15739460727E+02  0.00000000000E+00 0.  1.
         11    1    3    3    0    0  0.61741169953E+02  0.12004348552E+03 -0.12910131369E+01  0.13499658217E+03  0.00000000000E+00 0. -1.
</event>
<event>
 8    1  0.5900800E-006  0.1121213E+03  0.7561462E-02  0.1256691E+00
          2   -1    0    0  501    0  0.00000000000E+00  0.00000000000E+00  0.72041567976E+03  0.72041567976E+03  0.00000000000E+00 0. -1.
         -2   -1    0    0    0  501 -0.00000000000E+00 -0.00000000000E+00 -0.30640067237E+02  0.30640067237E+02  0.00000000000E+00 0.  1.
         23    2    1    2    0    0 -0.27422416927E+02 -0.47110501821E+02  0.93152458786E+02  0.14015201770E+03  0.89408160445E+02 0.  0.
         23    2    1    2    0    0  0.27422416927E+02  0.47110501821E+02  0.59662315374E+03  0.61090372931E+03  0.11946878491E+03 0.  0.
          5    1    4    4  502    0 -0.46550785574E+02  0.17209137875E+02  0.27726555010E+03  0.28170336834E+03  0.41800000000E+01 0. -1.
         -5    1    4    4    0  502  0.73973202501E+02  0.29901363946E+02  0.31935760364E+03  0.32920036096E+03  0.41800000000E+01 0.  1.
        -11    1    3    3    0    0  0.12031520560E+02 -0.53266413579E+02  0.22634833053E+02  0.59113483825E+02  0.00000000000E+00 0. -1.
         11    1    3    3    0    0 -0.39453937487E+02  0.61559117581E+01  0.70517625733E+02  0.81038533870E+02  0.00000000000E+00 0.  1.
</event>
<event>
 8    1  0.5900800E-006  0.3129794E+03  0.7561462E-02  0.1078927E+00
          2   -1    0    0  501    0  0.00000000000E+00  0.00000000000E+00  0.50125860591E+03  0.50125860591E+03  0.00000000000E+00 0. -1.
         -2   -1    0    0    0  501 -0.00000000000E+00 -0.00000000000E+00 -0.41054811858E+03  0.41054811858E+03  0.00000000000E+00 0.  1.
         23    2    1    2    0    0  0.72368647108E+00 -0.31030876625E+03 -0.26886744275E+03  0.42064814052E+03  0.91449998424E+02 0.  0.
         23    2    1    2    0    0 -0.72368647108E+00  0.31030876625E+03  0.35957793009E+03  0.49115858397E+03  0.12509361562E+03 0.  0.
          5    1    4    4  502    0 -0.21197806341E+00  0.61183583192E+02  0.10404867150E+02  0.62202969763E+02  0.41800000000E+01 0.  1.
         -5    1    4    4    0  502 -0.51170840767E+00  0.24912518306E+03  0.34917306294E+03  0.42895561421E+03  0.41800000000E+01 0.  1.
        -11    1    3    3    0    0  0.23433264793E+02 -0.64659671380E+02 -0.23431899499E+02  0.72657036245E+02  0.00000000000E+00 0.  1.
         11    1    3    3    0    0 -0.22709578322E+02 -0.24564909487E+03 -0.24543554326E+03  0.34799110427E+03  0.00000000000E+00 0. -1.
</event>
<event>
 8    1  0.5900800E-006  0.1070998E+03  0.7561462E-02  0.1266037E+00
          1   -1    0    0  501    0  0.00000000000E+00  0.00000000000E+00  0.12972433892E+04  0.12972433892E+04  0.00000000000E+00 0. -1.
         -1   -1    0    0    0  501 -0.00000000000E+00 -0.00000000000E+00 -0.21555575602E+02  0.21555575602E+02  0.00000000000E+00 0.  1.
         23    2    1    2    0    0  0.37393145003E+02 -0.15086433984E+02  0.12152092120E+03  0.15739728751E+03  0.91546294532E+02 0.  0.
         23    2    1    2    0    0 -0.37393145003E+02  0.15086433984E+02  0.11541668924E+04  0.11614016773E+04  0.12299102701E+03 0.  0.
          5    1    4    4  502    0 -0.22197304585E+02 -0.47744903372E+02  0.77019600204E+03  0.77200495471E+03  0.41800000000E+01 0. -1.
         -5    1    4    4    0  502 -0.15195840418E+02  0.62831337356E+02  0.38397089033E+03  0.38939672256E+03  0.41800000000E+01 0.  1.
        -11    1    3    3    0    0  0.63478722203E+02  0.50075576467E+01  0.59356270956E+02  0.87050506649E+02  0.00000000000E+00 0.  1.
         11    1    3    3    0    0 -0.26085577200E+02 -0.20093991630E+02  0.62164650245E+02  0.70346780861E+02  0.00000000000E+00 0. -1.
</event>
<event>
 8    1  0.5900800E-006  0.4432040E+03  0.7561462E-02  0.1029768E+00
         -1   -1    0    0    0  501 -0.00000000000E+00  0.00000000000E+00  0.89183771716E+02  0.89183771716E+02  0.00000000000E+00 0.  1.
          1   -1    0    0  501    0  0.00000000000E+00 -0.00000000000E+00 -0.22705704557E+04  0.22705704557E+04  0.00000000000E+00 0. -1.
         23    2    1    2    0    0  0.20339969437E+03  0.38468302418E+03 -0.98496851308E+03  0.10805301445E+04  0.89610025070E+02 0.  0.
         23    2    1    2    0    0 -0.20339969437E+03 -0.38468302418E+03 -0.11964181709E+04  0.12792240829E+04  0.12508137332E+03 0.  0.
          5    1    4    4  502    0 -0.17284086643E+03 -0.24878456509E+03 -0.93678369257E+03  0.98455517062E+03  0.41800000000E+01 0.  1.
         -5    1    4    4    0  502 -0.30558827944E+02 -0.13589845909E+03 -0.25963447830E+03  0.29466891229E+03  0.41800000000E+01 0.  1.
        -11    1    3    3    0    0  0.97430189437E+02  0.27424067652E+03 -0.66017666471E+03  0.72148029710E+03  0.00000000000E+00 0.  1.
         11    1    3    3    0    0  0.10596950493E+03  0.11044234765E+03 -0.32479184837E+03  0.35904984738E+03  0.00000000000E+00 0. -1.
</event>
<event>
 8    1  0.5900800E-006  0.2394306E+03  0.7561462E-02  0.1120173E+00
         -1   -1    0    0    0  501 -0.00000000000E+00  0.00000000000E+00  0.93903112473E+02  0.93903112473E+02  0.00000000000E+00 0.  1.
          1   -1    0    0  501    0  0.00000000000E+00 -0.00000000000E+00 -0.72395838660E+03  0.72395838660E+03  0.00000000000E+00 0. -1.
         23    2    1    2    0    0 -0.45837134273E+02  0.21145743492E+03 -0.15437075981E+03  0.28045838804E+03  0.89505789078E+02 0.  0.
         23    2    1    2    0    0  0.45837134273E+02 -0.21145743492E+03 -0.47568451431E+03  0.53740311103E+03  0.12534375505E+03 0.  0.
          5    1    4    4  502    0 -0.42486576806E+02 -0.83061286585E+02 -0.15823950390E+03  0.18374302580E+03  0.41800000000E+01 0. -1.
         -5    1    4    4    0  502  0.88323711080E+02 -0.12839614833E+03 -0.31744501041E+03  0.35366008523E+03  0.41800000000E+01 0. -1.
        -11    1    3    3    0    0 -0.67375415988E+02  0.14956687352E+03 -0.83991210388E+02  0.18429384080E+03  0.00000000000E+00 0.  1.
         11    1    3    3    0    0  0.21538281714E+02  0.61890561395E+02 -0.70379549427E+02  0.96164547243E+02  0.00000000000E+00 0. -1.
</event>
<event>
 8    1  0.5900800E-006  0.1002534E+03  0.7561462E-02  0.1279764E+00
          1   -1    0    0  501    0  0.00000000000E+00  0.00000000000E+00  0.21636877616E+03  0.21636877616E+03  0.00000000000E+00 0. -1.
         -1   -1    0    0    0  501 -0.00000000000E+00 -0.00000000000E+00 -0.60950332000E+02  0.60950332000E+02  0.00000000000E+00 0.  1.
         23    2    1    2    0    0  0.49032452495E+01  0.35963540256E+02  0.67957325796E+02  0.12043049923E+03  0.92562891987E+02 0.  0.
         23    2    1    2    0    0 -0.49032452495E+01 -0.35963540256E+02  0.87461118364E+02  0.15688860893E+03  0.12508864995E+03 0.  0.
          5    1    4    4  502    0  0.91135612009E+01  0.40109936322E+02  0.17842857195E+01  0.41382605827E+02  0.41800000000E+01 0.  1.
         -5    1    4    4    0  502 -0.14016806450E+02 -0.76073476577E+02  0.85676832644E+02  0.11550600311E+03  0.41800000000E+01 0.  1.
        -11    1    3    3    0    0  0.30890506157E+01  0.58753062612E+02  0.76074464814E+02  0.96170623356E+02  0.00000000000E+00 0. -1.
         11    1    3    3    0    0  0.18141946338E+01 -0.22789522356E+02 -0.81171390180E+01  0.24259875870E+02  0.00000000000E+00 0.  1.
</event>
<event>
 8    1  0.5900800E-006  0.1350372E+03  0.7561462E-02  0.1220167E+00
          1   -1    0    0  501    0  0.00000000000E+00  0.00000000000E+00  0.90795727379E+02  0.90795727379E+02  0.00000000000E+00 0. -1.
         -1   -1    0    0    0  501 -0.00000000000E+00 -0.00000000000E+00 -0.29991044249E+03  0.29991044249E+03  0.00000000000E+00 0.  1.
         23    2    1    2    0    0 -0.60115084428E+02 -0.88348295156E+02 -0.16902488657E+03  0.22137295036E+03  0.94959603194E+02 0.  0.
         23    2    1    2    0    0  0.60115084428E+02  0.88348295156E+02 -0.40089828540E+02  0.16933321951E+03  0.12508916917E+03 0.  0.
          5    1    4    4  502    0  0.92478997680E+02  0.87160675357E+02 -0.47703613782E+02  0.13580300257E+03  0.41800000000E+01 0. -1.
         -5    1    4    4    0  502 -0.32363913252E+02  0.11876197994E+01  0.76137852420E+01  0.33530216932E+02  0.41800000000E+01 0. -1.
        -11    1    3    3    0    0 -0.36282353055E+01 -0.25548243460E+02  0.64747895869E+01  0.26604505925E+02  0.00000000000E+00 0. -1.
         11    1    3    3    0    0 -0.56486849122E+02 -0.62800051696E+02 -0.17549967616E+03  0.19476844444E+03  0.00000000000E+00 0.  1.
</event>
<event>
 8    1  0.5900800E-006  0.1129160E+03  0.7561462E-02  0.1255263E+00
         -2   -1    0    0    0  501 -0.00000000000E+00  0.00000000000E+00  0.18856953876E+02  0.18856953876E+02  0.00000000000E+00 0.  1.
          2   -1    0    0  501    0  0.00000000000E+00 -0.00000000000E+00 -0.10583448687E+04  0.10583448687E+04  0.00000000000E+00 0. -1.
         23    2    1    2    0    0  0.64435997885E+02 -0.13383173948E+02 -0.23669180025E+03  0.26205684126E+03  0.91212239188E+02 0.  0.
         23    2    1    2    0    0 -0.64435997885E+02  0.13383173948E+02 -0.80279611457E+03  0.81514498131E+03  0.12509449157E+03 0.  0.
          5    1    4    4  502    0 -0.11857027326E+02  0.50536025116E+02 -0.14273311333E+03  0.15193647677E+03  0.41800000000E+01 0.  1.
         -5    1    4    4    0  502 -0.52578970558E+02 -0.37152851168E+02 -0.66006300124E+03  0.66320850454E+03  0.41800000000E+01 0.  1.
        -11    1    3    3    0    0  0.34842422511E+02  0.36990290134E+02 -0.79437652742E+02  0.94300671492E+02  0.00000000000E+00 0.  1.
         11    1    3    3    0    0  0.29593575374E+02 -0.50373464082E+02 -0.15725414751E+03  0.16775616977E+03  0.00000000000E+00 0. -1.
</event>
<event>
 8    1  0.5900800E-006  0.1016843E+03  0.7561462E-02  0.1276794E+00
          2   -1    0    0  501    0  0.00000000000E+00  0.00000000000E+00  0.48546502045E+02  0.48546502045E+02  0.00000000000E+00 0. -1.
         -2   -1    0    0    0  501 -0.00000000000E+00 -0.00000000000E+00 -0.33829556275E+03  0.33829556275E+03  0.00000000000E+00 0.  1.
         23    2    1    2    0    0  0.26021844781E+02  0.21730773745E+02 -0.22557177001E+03  0.24221691519E+03  0.81468077476E+02 0.  0.
         23    2    1    2    0    0 -0.26021844781E+02 -0.21730773745E+02 -0.64177290702E+02  0.14462514961E+03  0.12509335044E+03 0.  0.
          5    1    4    4  502    0  0.13290404513E+02  0.42824337363E+02  0.53395486308E+00  0.45036831932E+02  0.41800000000E+01 0.  1.
         -5    1    4    4    0  502 -0.39312249294E+02 -0.64555111108E+02 -0.64711245565E+02  0.99588317675E+02  0.41800000000E+01 0.  1.
        -11    1    3    3    0    0 -0.75169103311E+01  0.42518362467E+02 -0.74802420260E+02  0.86369654188E+02  0.00000000000E+00 0. -1.
         11    1    3    3    0    0  0.33538755112E+02 -0.20787588722E+02 -0.15076934975E+03  0.15584726100E+03  0.00000000000E+00 0.  1.
</event>
<event>
 8    1  0.5900800E-006  0.1246267E+03  0.7561462E-02  0.1235654E+00
         -1   -1    0    0    0  501 -0.00000000000E+00  0.00000000000E+00  0.26000628175E+03  0.26000628175E+03  0.00000000000E+00 0.  1.
          1   -1    0    0  501    0  0.00000000000E+00 -0.00000000000E+00 -0.83897752556E+02  0.83897752556E+02  0.00000000000E+00 0. -1.
         23    2    1    2    0    0  0.49508766367E+02 -0.85881285560E+02  0.82486377507E+02  0.15886780488E+03  0.92780729669E+02 0.  0.
         23    2    1    2    0    0 -0.49508766367E+02  0.85881285560E+02  0.93622151691E+02  0.18503622943E+03  0.12508631323E+03 0.  0.
          5    1    4    4  502    0 -0.78166507561E+02  0.25130154775E+02  0.18677263759E+02  0.84308007715E+02  0.41800000000E+01 0.  1.
         -5    1    4    4    0  502  0.28657741194E+02  0.60751130785E+02  0.74944887932E+02  0.10072822171E+03  0.41800000000E+01 0.  1.
        -11    1    3    3    0    0  0.67132889652E+01 -0.20726374083E+02  0.77779537940E+02  0.80773184619E+02  0.00000000000E+00 0.  1.
         11    1    3    3    0    0  0.42795477402E+02 -0.65154911477E+02  0.47068395676E+01  0.78094620265E+02  0.00000000000E+00 0. -1.
</event>
<event>
 8    1  0.5900800E-006  0.1788018E+03  0.7561462E-02  0.1168968E+00
          3   -1    0    0  501    0  0.00000000000E+00  0.00000000000E+00  0.91614380282E+03  0.91614380282E+03  0.00000000000E+00 0. -1.
         -3   -1    0    0    0  501 -0.00000000000E+00 -0.00000000000E+00 -0.62258602842E+02  0.62258602842E+02  0.00000000000E+00 0.  1.
         23    2    1    2    0    0  0.15334013566E+03  0.23829973932E+02  0.11798131240E+03  0.21598331617E+03  0.92995365075E+02 0.  0.
         23    2    1    2    0    0 -0.15334013566E+03 -0.23829973932E+02  0.73590388758E+03  0.76241908949E+03  0.12508905391E+03 0.  0.
          5    1    4    4  502    0 -0.70789770933E+02 -0.73110042717E+02  0.33588591413E+03  0.35098873162E+03  0.41800000000E+01 0. -1.
         -5    1    4    4    0  502 -0.82550364730E+02  0.49280068785E+02  0.40001797345E+03  0.41143035787E+03  0.41800000000E+01 0. -1.
        -11    1    3    3    0    0  0.46683709562E+02 -0.97725610470E+01 -0.70802249843E+01  0.48218267013E+02  0.00000000000E+00 0.  1.
         11    1    3    3    0    0  0.10665642610E+03  0.33602534979E+02  0.12506153739E+03  0.16776504916E+03  0.00000000000E+00 0. -1.
</event>
<event>
 7    1  0.5900800E-006  0.1069519E+03  0.7561462E-02  0.1266321E+00
          2   -1    0    0  501    0  0.00000000000E+00  0.00000000000E+00  0.16529708101E+03  0.16529708101E+03  0.00000000000E+00 0. -1.
         -2   -1    0    0    0  501 -0.00000000000E+00 -0.00000000000E+00 -0.22861278843E+03  0.22861278843E+03  0.00000000000E+00 0.  1.
         23    2    1    2    0    0 -0.80976634146E+02  0.36385231327E+02 -0.94499616717E+02  0.15933297907E+03  0.92605185190E+02 0.  0.
          5    1    1    2  502    0  0.23030524201E+02 -0.21955885220E+02  0.12180910759E+03  0.12596585661E+03  0.41800000000E+01 0. -1.
         -5    1    1    2    0  502  0.57946109945E+02 -0.14429346106E+02 -0.90625198290E+02  0.10861103375E+03  0.41800000000E+01 0.  1.
        -11    1    3    3    0    0 -0.94668179806E+02  0.45967024512E+02 -0.96140430546E+02  0.14254127120E+03  0.00000000000E+00 0.  1.
         11    1    3    3    0    0  0.13691545660E+02 -0.95817931849E+01  0.16408138282E+01  0.16791707871E+02  0.00000000000E+00 0. -1.
</event>
<event>
 8    1  0.5900800E-006  0.1048384E+03  0.7561462E-02  0.1270438E+00
          1   -1    0    0  501    0  0.00000000000E+00  0.00000000000E+00  0.97851514068E+02  0.97851514068E+02  0.00000000000E+00 0. -1.
         -1   -1    0    0    0  501 -0.00000000000E+00 -0.00000000000E+00 -0.14627177514E+03  0.14627177514E+03  0.00000000000E+00 0.  1.
         23    2    1    2    0    0  0.21254250888E+02  0.40633584835E+02 -0.44242515343E+02  0.11082554158E+03  0.90675625754E+02 0.  0.
         23    2    1    2    0    0 -0.21254250888E+02 -0.40633584835E+02 -0.41777457302E+01  0.13329774763E+03  0.12509198442E+03 0.  0.
          5    1    4    4  502    0 -0.47743120999E+02 -0.75336503051E+02 -0.50609387128E+01  0.89431984185E+02  0.41800000000E+01 0.  1.
         -5    1    4    4    0  502  0.26488870111E+02  0.34702918216E+02  0.88319298259E+00  0.43865763442E+02  0.41800000000E+01 0.  1.
        -11    1    3    3    0    0 -0.21244418325E+02  0.71120885946E+01 -0.51548934936E+02  0.56206759444E+02  0.00000000000E+00 0.  1.
         11    1    3    3    0    0  0.42498669213E+02  0.33521496240E+02  0.73064195928E+01  0.54618782139E+02  0.00000000000E+00 0. -1.
</event>
<event>
 8    1  0.5900800E-006  0.1423496E+03  0.7561462E-02  0.1210202E+00
         -2   -1    0    0    0  501 -0.00000000000E+00  0.00000000000E+00  0.44083631515E+02  0.44083631515E+02  0.00000000000E+00 0.  1.
          2   -1    0    0  501    0  0.00000000000E+00 -0.00000000000E+00 -0.14694863569E+04  0.14694863569E+04  0.00000000000E+00 0. -1.
         23    2    1    2    0    0  0.48988742577E+02 -0.98936005653E+02 -0.94928565192E+02  0.17317247653E+03  0.93749901454E+02 0.  0.
         23    2    1    2    0    0 -0.48988742577E+02  0.98936005653E+02 -0.13304741602E+04  0.13403975119E+04  0.11964852204E+03 0.  0.
          5    1    4    4  502    0 -0.46576119391E+01  0.11422480450E+03 -0.10157638231E+04  0.10221852161E+04  0.41800000000E+01 0. -1.
         -5    1    4    4    0  502 -0.44331130638E+02 -0.15288798842E+02 -0.31471033708E+03  0.31821229576E+03  0.41800000000E+01 0.  1.
        -11    1    3    3    0    0  0.21615687407E+02 -0.11143314562E+01 -0.63122153467E+02  0.66729947812E+02  0.00000000000E+00 0. -1.
         11    1    3    3    0    0  0.27373055170E+02 -0.97821674197E+02 -0.31806411725E+02  0.10644252871E+03  0.00000000000E+00 0.  1.
</event>
<event>
 8    1  0.5900800E-006  0.1773930E+03  0.7561462E-02  0.1170350E+00
          2   -1    0    0  501    0  0.00000000000E+00  0.00000000000E+00  0.12128135687E+03  0.12128135687E+03  0.00000000000E+00 0.  1.
         -2   -1    0    0    0  501 -0.00000000000E+00 -0.00000000000E+00 -0.28634293638E+03  0.28634293638E+03  0.00000000000E+00 0. -1.
         23    2    1    2    0    0 -0.18547453996E+02  0.14676867181E+03 -0.10033133126E+03  0.20336385393E+03  0.96981596089E+02 0.  0.
         23    2    1    2    0    0  0.18547453996E+02 -0.14676867181E+03 -0.64730248253E+02  0.20426043932E+03  0.12508905211E+03 0.  0.
          5    1    4    4  502    0  0.51226506869E+02 -0.14287781760E+03 -0.27353936715E+02  0.15428524240E+03  0.41800000000E+01 0. -1.
         -5    1    4    4    0  502 -0.32679052873E+02 -0.38908542080E+01 -0.37376311539E+02  0.49975196922E+02  0.41800000000E+01 0. -1.
        -11    1    3    3    0    0 -0.47462078662E+02  0.12460727726E+03 -0.10043438759E+03  0.16693318624E+03  0.00000000000E+00 0.  1.
         11    1    3    3    0    0  0.28914624666E+02  0.22161394554E+02  0.10305633549E+00  0.36430667696E+02  0.00000000000E+00 0. -1.
</event>
<event>
 6    1  0.6200474E-006  0.1348124E+03  0.7561462E-02  0.1220485E+00
         -2   -1    0    0    0  501 -0.00000000000E+00  0.00000000000E+00  0.77089408810E+02  0.77089408810E+02  0.00000000000E+00 0.  1.
          2   -1    0    0  501    0  0.00000000000E+00 -0.00000000000E+00 -0.26029316607E+03  0.26029316607E+03  0.00000000000E+00 0. -1.
          5    1    1    2  502    0 -0.59326231941E+02  0.59604908090E+02 -0.98649882994E+02  0.12969818302E+03  0.41800000000E+01 0. -1.
         -5    1    1    2    0  502 -0.50403314423E+02 -0.56036044124E+02 -0.20246164795E+02  0.78153131318E+02  0.41800000000E+01 0.  1.
        -11    1    1    2    0    0  0.11783510494E+02  0.14009560354E+01  0.67224145954E+00  0.11885525060E+02  0.00000000000E+00 0. -1.
         11    1    1    2    0    0  0.97946035870E+02 -0.49698200012E+01 -0.64979950935E+02  0.11764573548E+03  0.00000000000E+00 0.  1.
</event>
<event>
 8    1  0.5900800E-006  0.1080218E+03  0.7561462E-02  0.1264278E+00
          1   -1    0    0  501    0  0.00000000000E+00  0.00000000000E+00  0.86898202847E+03  0.86898202847E+03  0.00000000000E+00 0. -1.
         -1   -1    0    0    0  501 -0.00000000000E+00 -0.00000000000E+00 -0.18888754915E+02  0.18888754915E+02  0.00000000000E+00 0.  1.
         23    2    1    2    0    0  0.50668463418E+02 -0.44603608549E+02  0.29821194149E+03  0.31797938332E+03  0.87314094448E+02 0.  0.
         23    2    1    2    0    0 -0.50668463418E+02  0.44603608549E+02  0.55188133207E+03  0.56989140007E+03  0.12508568305E+03 0.  0.
          5    1    4    4  502    0 -0.78193263039E+02  0.38647651026E+02  0.21859580115E+03  0.23539206443E+03  0.41800000000E+01 0.  1.
         -5    1    4    4    0  502  0.27524799621E+02  0.59559575228E+01  0.33328553092E+03  0.33449933564E+03  0.41800000000E+01 0.  1.
        -11    1    3    3    0    0  0.34697361661E+02  0.15542742616E+02  0.54521872938E+02  0.66468927951E+02  0.00000000000E+00 0.  1.
         11    1    3    3    0    0  0.15971101758E+02 -0.60146351165E+02  0.24369006855E+03  0.25151045537E+03  0.00000000000E+00 0. -1.
</event>
<event>
 8    1  0.5900800E-006  0.1028686E+03  0.7561462E-02  0.1274377E+00
         -3   -1    0    0    0  501 -0.00000000000E+00  0.00000000000E+00  0.35952702364E+03  0.35952702364E+03  0.00000000000E+00 0.  1.
          3   -1    0    0  501    0  0.00000000000E+00 -0.00000000000E+00 -0.51766729606E+02  0.51766729606E+02  0.00000000000E+00 0. -1.
         23    2    1    2    0    0  0.34039463504E+02 -0.71661195749E+02  0.16630684045E+03  0.20647488334E+03  0.93165982090E+02 0.  0.
         23    2    1    2    0    0 -0.34039463504E+02  0.71661195749E+02  0.14145345358E+03  0.20481886990E+03  0.12509067865E+03 0.  0.
          5    1    4    4  502    0 -0.81320630986E+00  0.70469678228E+02  0.15370270383E+03  0.16914085969E+03  0.41800000000E+01 0. -1.
         -5    1    4    4    0  502 -0.33226257194E+02  0.11915175214E+01 -0.12249250242E+02  0.35678010211E+02  0.41800000000E+01 0. -1.
        -11    1    3    3    0    0  0.20109517877E+02 -0.81905680047E+02  0.16909469265E+03  0.18896017627E+03  0.00000000000E+00 0.  1.
         11    1    3    3    0    0  0.13929945627E+02  0.10244484297E+02 -0.27878522075E+01  0.17514707067E+02  0.00000000000E+00 0. -1.
</event>
<event>
 8    1  0.5900800E-006  0.8702578E+02  0.7561462E-02  0.1310218E+00
          1   -1    0    0  501    0  0.00000000000E+00  0.00000000000E+00  0.38871023446E+03  0.38871023446E+03  0.00000000000E+00 0. -1.
         -1   -1    0    0    0  501 -0.00000000000E+00 -0.00000000000E+00 -0.34892799462E+02  0.34892799462E+02  0.00000000000E+00 0.  1.
         23    2    1    2    0    0 -0.23384416498E+02  0.22837288878E+02  0.90949718945E+02  0.13066367822E+03  0.87936185565E+02 0.  0.
         23    2    1    2    0    0  0.23384416498E+02 -0.22837288878E+02  0.26286771605E+03  0.29293935570E+03  0.12508260182E+03 0.  0.
          5    1    4    4  502    0  0.16971665216E+01 -0.48982140604E+02  0.30098277120E+02  0.57667227764E+02  0.41800000000E+01 0. -1.
         -5    1    4    4    0  502  0.21687249976E+02  0.26144851726E+02  0.23276943893E+03  0.23527212794E+03  0.41800000000E+01 0. -1.
        -11    1    3    3    0    0 -0.26060752886E+01 -0.31942604801E+02  0.16875479843E+02  0.36220207755E+02  0.00000000000E+00 0.  1.
         11    1    3    3    0    0 -0.20778341209E+02  0.54779893679E+02  0.74074239102E+02  0.94443470465E+02  0.00000000000E+00 0. -1.
</event>
<event>
 8    1  0.5900800E-006  0.1426008E+03  0.7561462E-02  0.1209872E+00
          2   -1    0    0  501    0  0.00000000000E+00  0.00000000000E+00  0.65422902831E+03  0.65422902831E+03  0.00000000000E+00 0. -1.
         -2   -1    0    0    0  501 -0.00000000000E+00 -0.00000000000E+00 -0.43762233320E+02  0.43762233320E+02  0.00000000000E+00 0.  1.
         23    2    1    2    0    0  0.73185355932E+02  0.10421589896E+03  0.38909653409E+03  0.41958852606E+03  0.91876920114E+02 0.  0.
         23    2    1    2    0    0 -0.73185355932E+02 -0.10421589896E+03  0.22137026091E+03  0.27840273557E+03  0.11084331662E+03 0.  0.
          5    1    4    4  502    0 -0.23131078905E+02 -0.53745236491E+02  0.19306129741E+03  0.20177644613E+03  0.41800000000E+01 0. -1.
         -5    1    4    4    0  502 -0.50054277027E+02 -0.50470662464E+02  0.28308963497E+02  0.76626289435E+02  0.41800000000E+01 0.  1.
        -11    1    3    3    0    0  0.22166458982E+02 -0.14249333230E+02  0.45503506305E+02  0.52582929620E+02  0.00000000000E+00 0. -1.
         11    1    3    3    0    0  0.51018896950E+02  0.11846523219E+03  0.34359302778E+03  0.36700559645E+03  0.00000000000E+00 0.  1.
</event>
<event>
 8    1  0.5900800E-006  0.6895521E+02  0.7561462E-02  0.1363682E+00
         -2   -1    0    0    0  501 -0.00000000000E+00  0.00000000000E+00  0.33984537607E+02  0.33984537607E+02  0.00000000000E+00 0.  1.
          2   -1    0    0  501    0  0.00000000000E+00 -0.00000000000E+00 -0.34491230066E+03  0.34491230066E+03  0.00000000000E+00 0. -1.
         23    2    1    2    0    0 -0.44189200453E+01 -0.15909368126E+02 -0.12331992793E+03  0.15280738470E+03  0.88711089200E+02 0.  0.
         23    2    1    2    0    0  0.44189200453E+01  0.15909368126E+02 -0.18760783513E+03  0.22608945357E+03  0.12508839420E+03 0.  0.
          5    1    4    4  502    0  0.21436212239E+02  0.21164314152E+02 -0.20108197715E+03  0.20336881109E+03  0.41800000000E+01 0.  1.
         -5    1    4    4    0  502 -0.17017292194E+02 -0.52549460260E+01  0.13474142024E+02  0.22720642478E+02  0.41800000000E+01 0.  1.
        -11    1    3    3    0    0 -0.40603919218E+02 -0.29882528725E+02 -0.80932413184E+02  0.95350402635E+02  0.00000000000E+00 0. -1.
         11    1    3    3    0    0  0.36184999172E+02  0.13973160599E+02 -0.42387514744E+02  0.57456982068E+02  0.00000000000E+00 0.  1.
</event>
<event>
 8    1  0.5900800E-006  0.1081354E+03  0.7561462E-02  0.1264062E+00
          1   -1    0    0  501    0  0.00000000000E+00  0.00000000000E+00  0.10356740423E+04  0.10356740423E+04  0.00000000000E+00 0. -1.
         -1   -1    0    0    0  501 -0.00000000000E+00 -0.00000000000E+00 -0.17803524451E+02  0.17803524451E+02  0.00000000000E+00 0.  1.
         23    2    1    2    0    0  0.52128736035E+00  0.43555187270E+02  0.18142028157E+03  0.20660444289E+03  0.88739794795E+02 0.  0.
         23    2    1    2    0    0 -0.52128736035E+00 -0.43555187270E+02  0.83645023632E+03  0.84687312389E+03  0.12509102310E+03 0.  0.
          5    1    4    4  502    0 -0.60641838468E+02 -0.35220182151E+02  0.50814883793E+03  0.51298207346E+03  0.41800000000E+01 0. -1.
         -5    1    4    4    0  502  0.60120551108E+02 -0.83350051191E+01  0.32830139839E+03  0.33389105043E+03  0.41800000000E+01 0. -1.
        -11    1    3    3    0    0  0.36124004035E+02  0.30435385334E+02  0.45867393976E+02  0.65841280197E+02  0.00000000000E+00 0.  1.
         11    1    3    3    0    0 -0.35602716674E+02  0.13119801937E+02  0.13555288759E+03  0.14076316270E+03  0.00000000000E+00 0. -1.
</event>
<event>
 8    1  0.5900800E-006  0.7580754E+02  0.7561462E-02  0.1341388E+00
          2   -1    0    0  501    0  0.00000000000E+00  0.00000000000E+00  0.91930349408E+03  0.91930349408E+03  0.00000000000E+00 0. -1.
         -2   -1    0    0    0  501 -0.00000000000E+00 -0.00000000000E+00 -0.12035757120E+02  0.12035757120E+02  0.00000000000E+00 0.  1.
         23    2    1    2    0    0 -0.51020227595E+02  0.62578572853E+01  0.30490159218E+03  0.31397466378E+03  0.54524161432E+02 0.  0.
         23    2    1    2    0    0  0.51020227595E+02 -0.62578572853E+01  0.60236614477E+03  0.61736458741E+03  0.12510730203E+03 0.  0.
          5    1    4    4  502    0  0.49199493094E+02 -0.28080383867E+02  0.58823130657E+03  0.59096754607E+03  0.41800000000E+01 0. -1.
         -5    1    4    4    0  502  0.18207345008E+01  0.21822526582E+02  0.14134838200E+02  0.26397041340E+02  0.41800000000E+01 0. -1.
        -11    1    3    3    0    0 -0.34842667415E+02 -0.21101298437E+02  0.20932802154E+03  0.21325453540E+03  0.00000000000E+00 0. -1.
         11    1    3    3    0    0 -0.16177560180E+02  0.27359155723E+02  0.95573570648E+02  0.10072012838E+03  0.00000000000E+00 0.  1.
</event>
<event>
 8    1  0.5900800E-006  0.8470882E+02  0.7561462E-02  0.1316196E+00
          1   -1    0    0  501    0  0.00000000000E+00  0.00000000000E+00  0.14246238018E+04  0.14246238018E+04  0.00000000000E+00 0. -1.
         -1   -1    0    0    0  501 -0.00000000000E+00 -0.00000000000E+00 -0.12528267529E+02  0.12528267529E+02  0.00000000000E+00 0.  1.
         23    2    1    2    0    0 -0.26611610543E+02  0.34109677491E+00  0.26501653414E+03  0.28296574376E+03  0.95538236386E+02 0.  0.
         23    2    1    2    0    0  0.26611610543E+02 -0.34109677491E+00  0.11470790001E+04  0.11541863255E+04  0.12509015718E+03 0.  0.
          5    1    4    4  502    0  0.16024988425E+02  0.46777926358E+02  0.94773587789E+03  0.94903410965E+03  0.41800000000E+01 0. -1.
         -5    1    4    4    0  502  0.10586622118E+02 -0.47119023133E+02  0.19934312220E+03  0.20515221587E+03  0.41800000000E+01 0. -1.
        -11    1    3    3    0    0  0.59247918885E+01 -0.27725305360E+02  0.21223951436E+02  0.35415417982E+02  0.00000000000E+00 0.  1.
         11    1    3    3    0    0 -0.32536402432E+02  0.28066402135E+02  0.24379258271E+03  0.24755032578E+03  0.00000000000E+00 0. -1.
</event>
<event>
 8    1  0.6169888E-006  0.1084242E+03  0.7561462E-02  0.1263516E+00
          2   -1    0    0  501    0  0.00000000000E+00  0.00000000000E+00  0.26348559298E+02  0.26348559298E+02  0.00000000000E+00 0. -1.
         -2   -1    0    0    0  501 -0.00000000000E+00 -0.00000000000E+00 -0.68386736171E+03  0.68386736171E+03  0.00000000000E+00 0.  1.
         23    2    1    2    0    0  0.73336196594E+02 -0.23658676799E+02 -0.32842189757E+03  0.34981336579E+03  0.92577088732E+02 0.  0.
         23    2    1    2    0    0 -0.73336196594E+02  0.23658676799E+02 -0.32909690483E+03  0.36040255522E+03  0.12508916147E+03 0.  0.
          5    1    4    4  502    0 -0.43477225247E+02  0.42426203976E+02 -0.49261340517E+02  0.78322435920E+02  0.41800000000E+01 0.  1.
         -5    1    4    4    0  502 -0.29858971347E+02 -0.18767527177E+02 -0.27983556432E+03  0.28208011930E+03  0.41800000000E+01 0.  1.
        -11    1    3    3    0    0  0.64386456277E+02  0.26401586978E+02 -0.18778307861E+03  0.20026268789E+03  0.00000000000E+00 0.  1.
         11    1    3    3    0    0  0.89497403169E+01 -0.50060263776E+02 -0.14063881896E+03  0.14955067790E+03  0.00000000000E+00 0. -1.
</event>
<event>
 8    1  0.5900800E-006  0.9316860E+02  0.7561462E-02  0.1295355E+00
          3   -1    0    0  501    0  0.00000000000E+00  0.00000000000E+00  0.95532476722E+02  0.95532476722E+02  0.00000000000E+00 0. -1.
         -3   -1    0    0    0  501 -0.00000000000E+00 -0.00000000000E+00 -0.14074087205E+03  0.14074087205E+03  0.00000000000E+00 0.  1.
         23    2    1    2    0    0  0.22541993019E+02 -0.10820312837E+02 -0.45247690745E+02  0.10877424690E+03  0.95704036763E+02 0.  0.
         23    2    1    2    0    0 -0.22541993019E+02  0.10820312837E+02  0.39295420917E-01  0.12749910186E+03  0.12502319310E+03 0.  0.
          5    1    4    4  502    0 -0.46097872068E+02  0.38217556650E+02 -0.40976913144E+02  0.72678574947E+02  0.41800000000E+01 0. -1.
         -5    1    4    4    0  502  0.23555879049E+02 -0.27397243813E+02  0.41016208565E+02  0.54820526917E+02  0.41800000000E+01 0. -1.
        -11    1    3    3    0    0  0.24477545898E+02  0.35750976361E+02  0.68616030060E+00  0.43333051818E+02  0.00000000000E+00 0. -1.
         11    1    3    3    0    0 -0.19355528791E+01 -0.46571289198E+02 -0.45933851045E+02  0.65441195087E+02  0.00000000000E+00 0.  1.
</event>
<event>
 8    1  0.5900800E-006  0.1489623E+03  0.7561462E-02  0.1201754E+00
          2   -1    0    0  501    0  0.00000000000E+00  0.00000000000E+00  0.15437794289E+04  0.15437794289E+04  0.00000000000E+00 0. -1.
         -2   -1    0    0    0  501 -0.00000000000E+00 -0.00000000000E+00 -0.16638638683E+02  0.16638638683E+02  0.00000000000E+00 0.  1.
         23    2    1    2    0    0 -0.79200195771E+02 -0.87141148529E+02  0.69133071640E+03  0.70713472436E+03  0.90747496862E+02 0.  0.
         23    2    1    2    0    0  0.79200195771E+02  0.87141148529E+02  0.83581007383E+03  0.85328334323E+03  0.12509090112E+03 0.  0.
          5    1    4    4  502    0 -0.25469675942E+02  0.28404786270E+02  0.89646988817E+02  0.97517133262E+02  0.41800000000E+01 0. -1.
         -5    1    4    4    0  502  0.10466987171E+03  0.58736362259E+02  0.74616308501E+03  0.75576620997E+03  0.41800000000E+01 0. -1.
        -11    1    3    3    0    0  0.14167233502E+02 -0.47981978345E+01  0.23911393585E+02  0.28204395947E+02  0.00000000000E+00 0.  1.
         11    1    3    3    0    0 -0.93367429273E+02 -0.82342950694E+02  0.66741932281E+03  0.67893032841E+03  0.00000000000E+00 0. -1.
</event>
<event>
 7    1  0.5900800E-006  0.1645998E+03  0.7561462E-02  0.1183599E+00
          2   -1    0    0  501    0  0.00000000000E+00  0.00000000000E+00  0.16623548794E+04  0.16623548794E+04  0.00000000000E+00 0. -1.
         -2   -1    0    0    0  501 -0.00000000000E+00 -0.00000000000E+00 -0.27521379668E+02  0.27521379668E+02  0.00000000000E+00 0.  1.
         23    2    1    2    0    0  0.61750142441E+02  0.59533356923E+02  0.38091913840E+03  0.40114138611E+03  0.91965868539E+02 0.  0.
          5    1    1    2  502    0 -0.11988154891E+03  0.12029922105E+01  0.11440910883E+04  0.11503629531E+04  0.41800000000E+01 0. -1.
         -5    1    1    2    0  502  0.58131406466E+02 -0.60736349133E+02  0.10982327299E+03  0.13837191989E+03  0.41800000000E+01 0.  1.
        -11    1    3    3    0    0  0.39739360329E+02 -0.18608326348E+02  0.15438666442E+03  0.16050149133E+03  0.00000000000E+00 0. -1.
         11    1    3    3    0    0  0.22010782112E+02  0.78141683271E+02  0.22653247398E+03  0.24063989478E+03  0.00000000000E+00 0.  1.
</event>
<event>
 8    1  0.5900800E-006  0.1304111E+03  0.7561462E-02  0.1226847E+00
          2   -1    0    0  501    0  0.00000000000E+00  0.00000000000E+00  0.35508770989E+03  0.35508770989E+03  0.00000000000E+00 0. -1.
         -2   -1    0    0    0  501 -0.00000000000E+00 -0.00000000000E+00 -0.48710870640E+02  0.48710870640E+02  0.00000000000E+00 0.  1.
         23    2    1    2    0    0  0.48755911431E+02  0.56500793933E+02  0.14814052060E+03  0.18872656003E+03  0.90014565506E+02 0.  0.
         23    2    1    2    0    0 -0.48755911431E+02 -0.56500793933E+02  0.15823631865E+03  0.21507202050E+03  0.12509101825E+03 0.  0.
          5    1    4    4  502    0  0.16743909725E+02 -0.74647999225E+02  0.95949351647E+02  0.12278612618E+03  0.41800000000E+01 0.  1.
         -5    1    4    4    0  502 -0.65499821156E+02  0.18147205292E+02  0.62286967000E+02  0.92285894314E+02  0.41800000000E+01 0.  1.
        -11    1    3    3    0    0 -0.36960074038E+01  0.63132080866E+02  0.69494513020E+02  0.93961733941E+02  0.00000000000E+00 0.  1.
         11    1    3    3    0    0  0.52451918835E+02 -0.66312869332E+01  0.78646007583E+02  0.94764826094E+02  0.00000000000E+00 0. -1.
</event>
<event>
 8    1  0.5900800E-006  0.1037692E+03  0.7561462E-02  0.1272564E+00
         -1   -1    0    0    0  501 -0.00000000000E+00  0.00000000000E+00  0.25520796843E+03  0.25520796843E+03  0.00000000000E+00 0.  1.
          1   -1    0    0  501    0  0.00000000000E+00 -0.00000000000E+00 -0.50349293702E+02  0.50349293702E+02  0.00000000000E+00 0. -1.
         23    2    1    2    0    0 -0.24299816655E+02  0.27976092403E+02  0.11419384130E+03  0.14667413313E+03  0.84261053293E+02 0.  0.
         23    2    1    2    0    0  0.24299816655E+02 -0.27976092403E+02  0.90664833427E+02  0.15888312901E+03  0.12510233342E+03 0.  0.
          5    1    4    4  502    0 -0.27539888351E+02 -0.62093869391E+02  0.51963318253E+02  0.85625655677E+02  0.41800000000E+01 0. -1.
         -5    1    4    4    0  502  0.51839705006E+02  0.34117776988E+02  0.38701515174E+02  0.73257473328E+02  0.41800000000E+01 0. -1.
        -11    1    3    3    0    0 -0.13056574403E+02 -0.22258474167E+02  0.54688038342E+01  0.26378431014E+02  0.00000000000E+00 0. -1.
         11    1    3    3    0    0 -0.11243242252E+02  0.50234566570E+02  0.10872503747E+03  0.12029570211E+03  0.00000000000E+00 0.  1.
</event>
<event>
 8    1  0.5900800E-006  0.1118143E+03  0.7561462E-02  0.1257246E+00
         -2   -1    0    0    0  501 -0.00000000000E+00  0.00000000000E+00  0.47824484275E+02  0.47824484275E+02  0.00000000000E+00 0.  1.
          2   -1    0    0  501    0  0.00000000000E+00 -0.00000000000E+00 -0.66596222743E+03  0.66596222743E+03  0.00000000000E+00 0. -1.
         23    2    1    2    0    0 -0.73541716711E+02  0.81542432197E+02 -0.11465454686E+03  0.18350242127E+03  0.92032174542E+02 0.  0.
         23    2    1    2    0    0  0.73541716711E+02 -0.81542432197E+02 -0.50348319630E+03  0.53028429044E+03  0.12509415407E+03 0.  0.
          5    1    4    4  502    0  0.51174453581E+01 -0.20924687213E+02 -0.37738930703E+01  0.22265341921E+02  0.41800000000E+01 0. -1.
         -5    1    4    4    0  502  0.68424271353E+02 -0.60617744984E+02 -0.49970930323E+03  0.50801894851E+03  0.41800000000E+01 0. -1.
        -11    1    3    3    0    0 -0.19784874792E+02  0.16257330780E+02  0.14270611169E+02  0.29315395576E+02  0.00000000000E+00 0.  1.
         11    1    3    3    0    0 -0.53756841919E+02  0.65285101417E+02 -0.12892515802E+03  0.15418702569E+03  0.00000000000E+00 0. -1.
</event>
<event>
 8    1  0.5900800E-006  0.9931252E+02  0.7561462E-02  0.1281748E+00
         -1   -1    0    0    0  501 -0.00000000000E+00  0.00000000000E+00  0.95970353922E+02  0.95970353922E+02  0.00000000000E+00 0.  1.
          1   -1    0    0  501    0  0.00000000000E+00 -0.00000000000E+00 -0.16707259807E+03  0.16707259807E+03  0.00000000000E+00 0. -1.
         23    2    1    2    0    0  0.32046028021E+01 -0.21978526852E+02  0.28922226591E+02  0.10134546299E+03  0.94557297737E+02 0.  0.
         23    2    1    2    0    0 -0.32046028021E+01  0.21978526852E+02 -0.10002447074E+03  0.16169748901E+03  0.12509139891E+03 0.  0.
          5    1    4    4  502    0 -0.13940369258E+02  0.72005780362E+02 -0.43652507375E+02  0.85452794575E+02  0.41800000000E+01 0. -1.
         -5    1    4    4    0  502  0.10735766456E+02 -0.50027253511E+02 -0.56371963365E+02  0.76244694430E+02  0.41800000000E+01 0. -1.
        -11    1    3    3    0    0  0.35754328352E+02 -0.23833048529E+01 -0.18704154010E+02  0.40421498181E+02  0.00000000000E+00 0. -1.
         11    1    3    3    0    0 -0.32549725550E+02 -0.19595221999E+02  0.47626380601E+02  0.60923964806E+02  0.00000000000E+00 0.  1.
</event>
<event>
 8    1  0.5900800E-006  0.1055579E+03  0.7561462E-02  0.1269024E+00
          1   -1    0    0  501    0  0.00000000000E+00  0.00000000000E+00  0.74426290392E+02  0.74426290392E+02  0.00000000000E+00 0. -1.
         -1   -1    0    0    0  501 -0.00000000000E+00 -0.00000000000E+00 -0.19276364394E+03  0.19276364394E+03  0.00000000000E+00 0.  1.
         23    2    1    2    0    0 -0.40974458657E+02 -0.24400780333E+02 -0.30457352674E+02  0.10706343274E+03  0.90887974756E+02 0.  0.
         23    2    1    2    0    0  0.40974458657E+02  0.24400780333E+02 -0.87880000878E+02  0.16012650160E+03  0.12507316905E+03 0.  0.
          5    1    4    4  502    0  0.59806821714E+01 -0.37372326184E+02 -0.79964860951E+02  0.88568113396E+02  0.41800000000E+01 0.  1.
         -5    1    4    4    0  502  0.34993776485E+02  0.61773106518E+02 -0.79151399264E+01  0.71558388199E+02  0.41800000000E+01 0.  1.
        -11    1    3    3    0    0 -0.18335901982E+02  0.34360732492E+02 -0.55300985204E+01  0.39337605781E+02  0.00000000000E+00 0.  1.
         11    1    3    3    0    0 -0.22638556674E+02 -0.58761512825E+02 -0.24927254154E+02  0.67725826960E+02  0.00000000000E+00 0. -1.
</event>
<event>
 8    1  0.5900800E-006  0.1178419E+03  0.7561462E-02  0.1246700E+00
         -1   -1    0    0    0  501 -0.00000000000E+00  0.00000000000E+00  0.83983818104E+02  0.83983818104E+02  0.00000000000E+00 0.  1.
          1   -1    0    0  501    0  0.00000000000E+00 -0.00000000000E+00 -0.25006130972E+03  0.25006130972E+03  0.00000000000E+00 0. -1.
         23    2    1    2    0    0 -0.76413979695E+02 -0.23400709541E+02 -0.15484224455E+02  0.12259173205E+03  0.91663962717E+02 0.  0.
         23    2    1    2    0    0  0.76413979695E+02  0.23400709541E+02 -0.15059326716E+03  0.21145339577E+03  0.12509003545E+03 0.  0.
          5    1    4    4  502    0  0.89862872713E+02  0.56488135413E+02 -0.13618598597E+03  0.17271462158E+03  0.41800000000E+01 0. -1.
         -5    1    4    4    0  502 -0.13448893017E+02 -0.33087425872E+02 -0.14407281196E+02  0.38738774189E+02  0.41800000000E+01 0. -1.
        -11    1    3    3    0    0 -0.11577389975E+02  0.14377232419E+02 -0.39666932172E+02  0.43751643153E+02  0.00000000000E+00 0. -1.
         11    1    3    3    0    0 -0.64836589720E+02 -0.37777941961E+02  0.24182707717E+02  0.78840088901E+02  0.00000000000E+00 0.  1.
</event>
<event>
 8    1  0.5900800E-006  0.1272389E+03  0.7561462E-02  0.1231611E+00
          1   -1    0    0  501    0  0.00000000000E+00  0.00000000000E+00  0.18570269076E+04  0.18570269076E+04  0.00000000000E+00 0. -1.
         -1   -1    0    0    0  501 -0.00000000000E+00 -0.00000000000E+00 -0.17876236138E+02  0.17876236138E+02  0.00000000000E+00 0.  1.
         23    2    1    2    0    0 -0.92340166305E+02  0.13879707314E+02  0.30024814584E+03  0.32810394749E+03  0.93722455621E+02 0.  0.
         23    2    1    2    0    0  0.92340166305E+02 -0.13879707314E+02  0.15389025256E+04  0.15467991962E+04  0.12508963816E+03 0.  0.
          5    1    4    4  502    0 -0.17502413489E+02 -0.10051916627E+00  0.40630017776E+02  0.44436643960E+02  0.41800000000E+01 0.  1.
         -5    1    4    4    0  502  0.10984257979E+03 -0.13779188147E+02  0.14982725078E+04  0.15023625523E+04  0.41800000000E+01 0.  1.
        -11    1    3    3    0    0 -0.57148804265E+02  0.49516417635E+02  0.22785545291E+03  0.24007492344E+03  0.00000000000E+00 0. -1.
         11    1    3    3    0    0 -0.35191362040E+02 -0.35636710321E+02  0.72392692930E+02  0.88029024045E+02  0.00000000000E+00 0.  1.
</event>
<event>
 8    1  0.5900800E-006  0.1262518E+03  0.7561462E-02  0.1233126E+00
         -1   -1    0    0    0  501 -0.00000000000E+00  0.00000000000E+00  0.18348055518E+03  0.18348055518E+03  0.00000000000E+00 0.  1.
          1   -1    0    0  501    0  0.00000000000E+00 -0.00000000000E+00 -0.10983318142E+03  0.10983318142E+03  0.00000000000E+00 0. -1.
         23    2    1    2    0    0  0.34000359651E+02 -0.65283492730E+02  0.94115816191E+02  0.14673855289E+03  0.85184841186E+02 0.  0.
         23    2    1    2    0    0 -0.34000359651E+02  0.65283492730E+02 -0.20468442432E+02  0.14657518371E+03  0.12508944186E+03 0.  0.
          5    1    4    4  502    0  0.37083082488E+02  0.59220849344E+02  0.62577085862E+01  0.70277274567E+02  0.41800000000E+01 0. -1.
         -5    1    4    4    0  502 -0.71083442139E+02  0.60626433859E+01 -0.26726151018E+02  0.76297909141E+02  0.41800000000E+01 0. -1.
        -11    1    3    3    0    0  0.60993347301E+02 -0.55085473240E+02  0.79693208142E+02  0.11447971524E+03  0.00000000000E+00 0.  1.
         11    1    3    3    0    0 -0.26992987650E+02 -0.10198019490E+02  0.14422608049E+02  0.32258837653E+02  0.00000000000E+00 0. -1.
</event>
<event>
 8    1  0.5900800E-006  0.1165433E+03  0.7561462E-02  0.1248911E+00
         -3   -1    0    0    0  501 -0.00000000000E+00  0.00000000000E+00  0.73537244245E+03  0.73537244245E+03  0.00000000000E+00 0.  1.
          3   -1    0    0  501    0  0.00000000000E+00 -0.00000000000E+00 -0.25603762981E+02  0.25603762981E+02  0.00000000000E+00 0. -1.
         23    2    1    2    0    0 -0.82495846590E+00 -0.57290515256E+02  0.15234117807E+03  0.18681929583E+03  0.91710037977E+02 0.  0.
         23    2    1    2    0    0  0.82495846590E+00  0.57290515256E+02  0.55742750140E+03  0.57415690960E+03  0.12509138190E+03 0.  0.
          5    1    4    4  502    0 -0.19699433015E+02  0.87103401552E+02  0.26969315654E+03  0.28412486922E+03  0.41800000000E+01 0. -1.
         -5    1    4    4    0  502  0.20524391481E+02 -0.29812886296E+02  0.28773434486E+03  0.29003204038E+03  0.41800000000E+01 0. -1.
        -11    1    3    3    0    0 -0.29677108651E+01 -0.82197597327E+02  0.10603997299E+03  0.13420032856E+03  0.00000000000E+00 0.  1.
         11    1    3    3    0    0  0.21427523992E+01  0.24907082071E+02  0.46301205078E+02  0.52618967273E+02  0.00000000000E+00 0. -1.
</event>
<event>
 8    1  0.5900800E-006  0.1242404E+03  0.7561462E-02  0.1236261E+00
          2   -1    0    0  501    0  0.00000000000E+00  0.00000000000E+00  0.17180127348E+04  0.17180127348E+04  0.00000000000E+00 0. -1.
         -2   -1    0    0    0  501 -0.00000000000E+00 -0.00000000000E+00 -0.15323051287E+02  0.15323051287E+02  0.00000000000E+00 0.  1.
         23    2    1    2    0    0 -0.84361025206E+02  0.51944244017E+02  0.41842086367E+03  0.43919137204E+03  0.89431845922E+02 0.  0.
         23    2    1    2    0    0  0.84361025206E+02 -0.51944244017E+02  0.12842688199E+04  0.12941444141E+04  0.12509346790E+03 0.  0.
          5    1    4    4  502    0  0.92273679026E+02 -0.78533429217E+02  0.11784311311E+04  0.11846515667E+04  0.41800000000E+01 0.  1.
         -5    1    4    4    0  502 -0.79126538193E+01  0.26589185200E+02  0.10583768879E+03  0.10949284739E+03  0.41800000000E+01 0.  1.
        -11    1    3    3    0    0 -0.26908010887E+02  0.19204851161E+02  0.28334102890E+02  0.43539507859E+02  0.00000000000E+00 0.  1.
         11    1    3    3    0    0 -0.57453014319E+02  0.32739392856E+02  0.39008676078E+03  0.39565186419E+03  0.00000000000E+00 0. -1.
</event>
<event>
 8    1  0.5900800E-006  0.1408317E+03  0.7561462E-02  0.1212214E+00
         -1   -1    0    0    0  501 -0.00000000000E+00  0.00000000000E+00  0.21968634959E+02  0.21968634959E+02  0.00000000000E+00 0.  1.
          1   -1    0    0  501    0  0.00000000000E+00 -0.00000000000E+00 -0.12162782352E+04  0.12162782352E+04  0.00000000000E+00 0. -1.
         23    2    1    2    0    0  0.84136050684E+02  0.84704865713E+02 -0.44646634441E+03  0.47067217447E+03  0.89142076644E+02 0.  0.
         23    2    1    2    0    0 -0.84136050684E+02 -0.84704865713E+02 -0.74784325587E+03  0.76757469573E+03  0.12509032287E+03 0.  0.
          5    1    4    4  502    0 -0.34678870228E+02  0.11315166514E+02 -0.53615482398E+02  0.64982685281E+02  0.41800000000E+01 0. -1.
         -5    1    4    4    0  502 -0.49457180456E+02 -0.96020032227E+02 -0.69422777348E+03  0.70259201045E+03  0.41800000000E+01 0. -1.
        -11    1    3    3    0    0  0.75942513786E+02  0.30179331822E+02 -0.16826222972E+03  0.18705677058E+03  0.00000000000E+00 0.  1.
         11    1    3    3    0    0  0.81935368977E+01  0.54525533891E+02 -0.27820411469E+03  0.28361540389E+03  0.00000000000E+00 0. -1.
</event>
<event>
 8    1  0.5900800E-006  0.1588530E+03  0.7561462E-02  0.1189998E+00
          1   -1    0    0  501    0  0.00000000000E+00  0.00000000000E+00  0.36868245211E+02  0.36868245211E+02  0.00000000000E+00 0. -1.
         -1   -1    0    0    0  501 -0.00000000000E+00 -0.00000000000E+00 -0.89505940297E+03  0.89505940297E+03  0.00000000000E+00 0.  1.
         23    2    1    2    0    0  0.74196242361E+02 -0.11051733911E+03 -0.25254552632E+03  0.29933550112E+03  0.90018524440E+02 0.  0.
         23    2    1    2    0    0 -0.74196242361E+02  0.11051733911E+03 -0.60564563143E+03  0.63259214705E+03  0.12508808503E+03 0.  0.
          5    1    4    4  502    0 -0.50874238429E+02  0.12323608027E+03 -0.58099897784E+03  0.59611458988E+03  0.41800000000E+01 0.  1.
         -5    1    4    4    0  502 -0.23322003932E+02 -0.12718741160E+02 -0.24646653590E+02  0.36477557173E+02  0.41800000000E+01 0.  1.
        -11    1    3    3    0    0  0.34883859802E+02 -0.11277570588E+03 -0.16064460247E+03  0.19935378555E+03  0.00000000000E+00 0. -1.
         11    1    3    3    0    0  0.39312382559E+02  0.22583667728E+01 -0.91900923857E+02  0.99981715572E+02  0.00000000000E+00 0.  1.
</event>
<event>
 7    1  0.5900800E-006  0.1683707E+03  0.7561462E-02  0.1179558E+00
          1   -1    0    0  501    0  0.00000000000E+00  0.00000000000E+00  0.29910617927E+03  0.29910617927E+03  0.00000000000E+00 0. -1.
         -1   -1    0    0    0  501 -0.00000000000E+00 -0.00000000000E+00 -0.10235647646E+03  0.10235647646E+03  0.00000000000E+00 0.  1.
         23    2    1    2    0    0  0.67675074019E+02 -0.86214340235E+02  0.32582493189E+02  0.14505609985E+03  0.89257073317E+02 0.  0.
          5    1    1    2  502    0 -0.41133879414E+02 -0.46107763588E+02  0.52667648158E+02  0.81297450521E+02  0.41800000000E+01 0. -1.
         -5    1    1    2    0  502 -0.26541194605E+02  0.13232210382E+03  0.11149956146E+03  0.17510910535E+03  0.41800000000E+01 0.  1.
        -11    1    3    3    0    0  0.74913485989E+02 -0.26235857690E+02  0.78005971383E+01  0.79757130888E+02  0.00000000000E+00 0.  1.
         11    1    3    3    0    0 -0.72384119703E+01 -0.59978482545E+02  0.24781896050E+02  0.65298968967E+02  0.00000000000E+00 0. -1.
</event>
<event>
 8    1  0.5900800E-006  0.1065474E+03  0.7561462E-02  0.1267101E+00
         -4   -1    0    0    0  501 -0.00000000000E+00  0.00000000000E+00  0.17937002635E+02  0.17937002635E+02  0.00000000000E+00 0.  1.
          4   -1    0    0  501    0  0.00000000000E+00 -0.00000000000E+00 -0.86008060749E+03  0.86008060749E+03  0.00000000000E+00 0. -1.
         23    2    1    2    0    0  0.32956006324E+02 -0.30082422356E+02 -0.21657526900E+03  0.23850631807E+03  0.89383254198E+02 0.  0.
         23    2    1    2    0    0 -0.32956006324E+02  0.30082422356E+02 -0.62556833585E+03  0.63951129205E+03  0.12509156386E+03 0.  0.
          5    1    4    4  502    0 -0.74638100980E+02  0.30394761060E+02 -0.27949690962E+03  0.29091353098E+03  0.41800000000E+01 0.  1.
         -5    1    4    4    0  502  0.41682094656E+02 -0.31233870352E+00 -0.34607142623E+03  0.34859776107E+03  0.41800000000E+01 0.  1.
        -11    1    3    3    0    0 -0.25534382834E+02 -0.19739247794E+01 -0.23285426576E+02  0.34613757042E+02  0.00000000000E+00 0. -1.
         11    1    3    3    0    0  0.58490389158E+02 -0.28108497577E+02 -0.19328984242E+03  0.20389256103E+03  0.00000000000E+00 0.  1.
</event>
<event>
 8    1  0.5900800E-006  0.1311486E+03  0.7561462E-02  0.1225761E+00
          1   -1    0    0  501    0  0.00000000000E+00  0.00000000000E+00  0.83708739196E+02  0.83708739196E+02  0.00000000000E+00 0. -1.
         -1   -1    0    0    0  501 -0.00000000000E+00 -0.00000000000E+00 -0.28296163126E+03  0.28296163126E+03  0.00000000000E+00 0.  1.
         23    2    1    2    0    0 -0.30139640693E+02  0.10613566394E+03 -0.98976448715E+02  0.17205493488E+03  0.87369251543E+02 0.  0.
         23    2    1    2    0    0  0.30139640693E+02 -0.10613566394E+03 -0.10027644335E+03  0.19461543557E+03  0.12508647238E+03 0.  0.
          5    1    4    4  502    0  0.45137595238E+02 -0.63330698682E+02 -0.12153649942E+03  0.14434948213E+03  0.41800000000E+01 0. -1.
         -5    1    4    4    0  502 -0.14997954545E+02 -0.42804965259E+02  0.21260056075E+02  0.50265953444E+02  0.41800000000E+01 0. -1.
        -11    1    3    3    0    0  0.29523104651E+02  0.41164009576E+02 -0.49927068656E+02  0.71125252739E+02  0.00000000000E+00 0.  1.
         11    1    3    3    0    0 -0.59662745345E+02  0.64971654364E+02 -0.49049380060E+02  0.10092968214E+03  0.00000000000E+00 0. -1.
</event>
<event>
 8    1  0.5900800E-006  0.1061694E+03  0.7561462E-02  0.1267833E+00
         -2   -1    0    0    0  501 -0.00000000000E+00  0.00000000000E+00  0.14371470333E+02  0.14371470333E+02  0.00000000000E+00 0.  1.
          2   -1    0    0  501    0  0.00000000000E+00 -0.00000000000E+00 -0.94237104692E+03  0.94237104692E+03  0.00000000000E+00 0. -1.
         23    2    1    2    0    0 -0.13825614507E+02 -0.37400644976E+02 -0.34469355303E+03  0.35884191429E+03  0.91454459106E+02 0.  0.
         23    2    1    2    0    0  0.13825614507E+02  0.37400644976E+02 -0.58330602356E+03  0.59790060296E+03  0.12509699454E+03 0.  0.
          5    1    4    4  502    0  0.59784060453E+02  0.18116963804E+02 -0.16268616864E+03  0.17431758410E+03  0.41800000000E+01 0. -1.
         -5    1    4    4    0  502 -0.45958445946E+02  0.19283681172E+02 -0.42061985492E+03  0.42358301886E+03  0.41800000000E+01 0. -1.
        -11    1    3    3    0    0 -0.49400373244E+02 -0.40673451763E+02 -0.22681097876E+03  0.23566490328E+03  0.00000000000E+00 0.  1.
         11    1    3    3    0    0  0.35574758737E+02  0.32728067871E+01 -0.11788257427E+03  0.12317701101E+03  0.00000000000E+00 0. -1.
</event>
<event>
 8    1  0.5900800E-006  0.1189795E+03  0.7561462E-02  0.1244790E+00
          2   -1    0    0  501    0  0.00000000000E+00  0.00000000000E+00  0.10853243736E+03  0.10853243736E+03  0.00000000000E+00 0. -1.
         -2   -1    0    0    0  501 -0.00000000000E+00 -0.00000000000E+00 -0.16501591216E+03  0.16501591216E+03  0.00000000000E+00 0.  1.
         23    2    1    2    0    0 -0.21616387297E+02 -0.63412954383E+02 -0.57466258819E+02  0.13151363144E+03  0.97493555516E+02 0.  0.
         23    2    1    2    0    0  0.21616387297E+02  0.63412954383E+02  0.98278402074E+00  0.14203471809E+03  0.12523747161E+03 0.  0.
          5    1    4    4  502    0 -0.39976636715E+02 -0.81975351197E+01  0.19930422713E+02  0.45607293437E+02  0.41800000000E+01 0.  1.
         -5    1    4    4    0  502  0.61593024012E+02  0.71610489503E+02 -0.18947638692E+02  0.96427424656E+02  0.41800000000E+01 0.  1.
        -11    1    3    3    0    0  0.19485174344E+02 -0.57689585784E+02 -0.65297107229E+02  0.89283103327E+02  0.00000000000E+00 0.  1.
         11    1    3    3    0    0 -0.41101561641E+02 -0.57233685994E+01  0.78308484103E+01  0.42230528108E+02  0.00000000000E+00 0. -1.
</event>
<event>
 8    1  0.5900800E-006  0.7057357E+02  0.7561462E-02  0.1358153E+00
         -2   -1    0    0    0  501 -0.00000000000E+00  0.00000000000E+00  0.27357467713E+02  0.27357467713E+02  0.00000000000E+00 0.  1.
          2   -1    0    0  501    0  0.00000000000E+00 -0.00000000000E+00 -0.50927284584E+03  0.50927284584E+03  0.00000000000E+00 0. -1.
         23    2    1    2    0    0  0.61607693910E+01  0.32135405435E+02 -0.13513218541E+03  0.16652018215E+03  0.91638551755E+02 0.  0.
         23    2    1    2    0    0 -0.61607693910E+01 -0.32135405435E+02 -0.34678319272E+03  0.37011013141E+03  0.12510910140E+03 0.  0.
          5    1    4    4  502    0  0.89387488207E+01 -0.42319487026E+02 -0.30065619508E+02  0.52841783552E+02  0.41800000000E+01 0. -1.
         -5    1    4    4    0  502 -0.15099518212E+02  0.10184081591E+02 -0.31671757321E+03  0.31726834785E+03  0.41800000000E+01 0. -1.
        -11    1    3    3    0    0 -0.27407385917E+02 -0.61495280245E+01 -0.74499884048E+01  0.29060003870E+02  0.00000000000E+00 0.  1.
         11    1    3    3    0    0  0.33568155308E+02  0.38284933459E+02 -0.12768219701E+03  0.13746017828E+03  0.00000000000E+00 0. -1.
</event>
<event>
 8    1  0.5900800E-006  0.1061814E+03  0.7561462E-02  0.1267809E+00
          2   -1    0    0  501    0  0.00000000000E+00  0.00000000000E+00  0.25352889087E+03  0.25352889087E+03  0.00000000000E+00 0. -1.
         -2   -1    0    0    0  501 -0.00000000000E+00 -0.00000000000E+00 -0.61102552936E+02  0.61102552936E+02  0.00000000000E+00 0.  1.
         23    2    1    2    0    0 -0.40990186909E+02  0.34803887254E+02  0.46445839578E+02  0.11500050832E+03  0.90423420130E+02 0.  0.
         23    2    1    2    0    0  0.40990186909E+02 -0.34803887254E+02  0.14598049835E+03  0.19963093549E+03  0.12510275182E+03 0.  0.
          5    1    4    4  502    0  0.61758442139E+01  0.45035033026E+02  0.72128950488E+02  0.85360137944E+02  0.41800000000E+01 0.  1.
         -5    1    4    4    0  502  0.34814342695E+02 -0.79838920280E+02  0.73851547865E+02  0.11427079754E+03  0.41800000000E+01 0.  1.
        -11    1    3    3    0    0 -0.15178634949E+02  0.48129716300E+02 -0.10065480933E+02  0.51460416404E+02  0.00000000000E+00 0.  1.
         11    1    3    3    0    0 -0.25811551960E+02 -0.13325829046E+02  0.56511320510E+02  0.63540091912E+02  0.00000000000E+00 0. -1.
</event>
<event>
 8    1  0.5900800E-006  0.8117308E+02  0.7561462E-02  0.1325755E+00
         -1   -1    0    0    0  501 -0.00000000000E+00  0.00000000000E+00  0.75264376416E+02  0.75264376416E+02  0.00000000000E+00 0.  1.
          1   -1    0    0  501    0  0.00000000000E+00 -0.00000000000E+00 -0.19797066080E+03  0.19797066080E+03  0.00000000000E+00 0. -1.
         23    2    1    2    0    0  0.86741323194E+01  0.30600622615E+02 -0.32497588131E+01  0.97368591472E+02  0.91969793938E+02 0.  0.
         23    2    1    2    0    0 -0.86741323194E+01 -0.30600622615E+02 -0.11945652557E+03  0.17586644575E+03  0.12508999385E+03 0.  0.
          5    1    4    4  502    0 -0.86236637757E+01  0.47851632755E+02 -0.59999069842E+02  0.77340203750E+02  0.41800000000E+01 0. -1.
         -5    1    4    4    0  502 -0.50468543639E-01 -0.78452255370E+02 -0.59457455731E+02  0.98526241995E+02  0.41800000000E+01 0. -1.
        -11    1    3    3    0    0 -0.39863607375E+01  0.10432335274E+02  0.43496095659E+02  0.44906959692E+02  0.00000000000E+00 0.  1.
         11    1    3    3    0    0  0.12660493057E+02  0.20168287341E+02 -0.46745854472E+02  0.52461631780E+02  0.00000000000E+00 0. -1.
</event>
<event>
 8    1  0.5900800E-006  0.8909437E+02  0.7561462E-02  0.1305060E+00
          4   -1    0    0  501    0  0.00000000000E+00  0.00000000000E+00  0.93650193766E+02  0.93650193766E+02  0.00000000000E+00 0. -1.
         -4   -1    0    0    0  501 -0.00000000000E+00 -0.00000000000E+00 -0.26934496585E+03  0.26934496585E+03  0.00000000000E+00 0.  1.
         23    2    1    2    0    0  0.69609433747E+02  0.30890876433E+02 -0.19288755580E+03  0.22707755354E+03  0.92514250943E+02 0.  0.
         23    2    1    2    0    0 -0.69609433747E+02 -0.30890876433E+02  0.17192783707E+02  0.13591760608E+03  0.11125773824E+03 0.  0.
          5    1    4    4  502    0 -0.56249998990E+02  0.11342276093E+02  0.53443860288E+02  0.78526608330E+02  0.41800000000E+01 0. -1.
         -5    1    4    4    0  502 -0.13359434757E+02 -0.42233152526E+02 -0.36251076581E+02  0.57390997749E+02  0.41800000000E+01 0.  1.
        -11    1    3    3    0    0  0.46937223496E+02  0.21324051837E+02 -0.19563766114E+03  0.20231636758E+03  0.00000000000E+00 0.  1.
         11    1    3    3    0    0  0.22672210251E+02  0.95668245956E+01  0.27501053446E+01  0.24761185955E+02  0.00000000000E+00 0. -1.
</event>
<event>
 8    1  0.5900800E-006  0.1329402E+03  0.7561462E-02  0.1223157E+00
         -2   -1    0    0    0  501 -0.00000000000E+00  0.00000000000E+00  0.29967534948E+02  0.29967534948E+02  0.00000000000E+00 0. -1.
          2   -1    0    0  501    0  0.00000000000E+00 -0.00000000000E+00 -0.69999571747E+03  0.69999571747E+03  0.00000000000E+00 0.  1.
         23    2    1    2    0    0 -0.95633776018E+02  0.57080688547E+01 -0.31387822882E+03  0.34051746850E+03  0.90852642552E+02 0.  0.
         23    2    1    2    0    0  0.95633776018E+02 -0.57080688547E+01 -0.35614995370E+03  0.38944578392E+03  0.12508728123E+03 0.  0.
          5    1    4    4  502    0 -0.81768532092E+01  0.39035404526E+02 -0.57605051217E+02  0.70188589248E+02  0.41800000000E+01 0. -1.
         -5    1    4    4    0  502  0.10381062923E+03 -0.44743473380E+02 -0.29854490249E+03  0.31925719468E+03  0.41800000000E+01 0. -1.
        -11    1    3    3    0    0 -0.93329229197E+01  0.22841278972E+02 -0.14815729065E+02  0.28780780098E+02  0.00000000000E+00 0. -1.
         11    1    3    3    0    0 -0.86300853098E+02 -0.17133210117E+02 -0.29906249976E+03  0.31173668840E+03  0.00000000000E+00 0.  1.
</event>
<event>
 8    1  0.5900800E-006  0.1153086E+03  0.7561462E-02  0.1251043E+00
         -1   -1    0    0    0  501 -0.00000000000E+00  0.00000000000E+00  0.75510005752E+02  0.75510005752E+02  0.00000000000E+00 0.  1.
          1   -1    0    0  501    0  0.00000000000E+00 -0.00000000000E+00 -0.37809190366E+03  0.37809190366E+03  0.00000000000E+00 0. -1.
         23    2    1    2    0    0 -0.49405070479E+02  0.32234191376E+02  0.11951250256E+02  0.10874613808E+03  0.90570337756E+02 0.  0.
         23    2    1    2    0    0  0.49405070479E+02 -0.32234191376E+02 -0.31453314816E+03  0.34485577133E+03  0.12850874541E+03 0.  0.
          5    1    4    4  502    0  0.75218722760E+02  0.17969358256E+02 -0.23350313630E+03  0.24601207521E+03  0.41800000000E+01 0. -1.
         -5    1    4    4    0  502 -0.25813652281E+02 -0.50203549632E+02 -0.81030011865E+02  0.98843696120E+02  0.41800000000E+01 0.  1.
        -11    1    3    3    0    0  0.20603069904E+02  0.35502554277E+01  0.24335405988E+02  0.32082749066E+02  0.00000000000E+00 0. -1.
         11    1    3    3    0    0 -0.70008140383E+02  0.28683935948E+02 -0.12384155731E+02  0.76663389010E+02  0.00000000000E+00 0.  1.
</event>
<event>
 8    1  0.5900800E-006  0.1229956E+03  0.7561462E-02  0.1238235E+00
         -1   -1    0    0    0  501 -0.00000000000E+00  0.00000000000E+00  0.17310104982E+02  0.17310104982E+02  0.00000000000E+00 0.  1.
          1   -1    0    0  501    0  0.00000000000E+00 -0.00000000000E+00 -0.15961852465E+04  0.15961852465E+04  0.00000000000E+00 0. -1.
         23    2    1    2    0    0  0.79130694368E+02 -0.22346386742E-01 -0.26799481255E+03  0.29428474821E+03  0.92307237982E+02 0.  0.
         23    2    1    2    0    0 -0.79130694368E+02  0.22346386742E-01 -0.13108803290E+04  0.13192106033E+04  0.12509081350E+03 0.  0.
          5    1    4    4  502    0 -0.10019932446E+03 -0.12478847779E+02 -0.12397776437E+04  0.12438897477E+04  0.41800000000E+01 0.  1.
         -5    1    4    4    0  502  0.21068630089E+02  0.12501194166E+02 -0.71102685318E+02  0.75320855604E+02  0.41800000000E+01 0.  1.
        -11    1    3    3    0    0 -0.19213815935E+02 -0.92083172416E+01 -0.67456369723E+02  0.70741258438E+02  0.00000000000E+00 0. -1.
         11    1    3    3    0    0  0.98344510303E+02  0.91859708549E+01 -0.20053844282E+03  0.22354348977E+03  0.00000000000E+00 0.  1.
</event>
<event>
 8    1  0.5900800E-006  0.1026277E+03  0.7561462E-02  0.1274865E+00
          1   -1    0    0  501    0  0.00000000000E+00  0.00000000000E+00  0.77458877509E+03  0.77458877509E+03  0.00000000000E+00 0. -1.
         -1   -1    0    0    0  501 -0.00000000000E+00 -0.00000000000E+00 -0.22486855255E+02  0.22486855255E+02  0.00000000000E+00 0.  1.
         23    2    1    2    0    0 -0.77289463535E+01 -0.10343578233E+02  0.11621277877E+03  0.14887140847E+03  0.92144235252E+02 0.  0.
         23    2    1    2    0    0  0.77289463535E+01  0.10343578233E+02  0.63588914107E+03  0.64820422187E+03  0.12508791828E+03 0.  0.
          5    1    4    4  502    0 -0.32155816392E+02  0.52854778203E+02  0.41966031868E+03  0.42421678371E+03  0.41800000000E+01 0. -1.
         -5    1    4    4    0  502  0.39884762745E+02 -0.42511199969E+02  0.21622882239E+03  0.22398743816E+03  0.41800000000E+01 0. -1.
        -11    1    3    3    0    0 -0.14905701683E+02 -0.46040579350E+02  0.95296639972E+02  0.10688014072E+03  0.00000000000E+00 0. -1.
         11    1    3    3    0    0  0.71767553295E+01  0.35697001117E+02  0.20916138794E+02  0.41991267757E+02  0.00000000000E+00 0.  1.
</event>
<event>
 8    1  0.5900800E-006  0.1231911E+03  0.7561462E-02  0.1237924E+00
         -1   -1    0    0    0  501 -0.00000000000E+00  0.00000000000E+00  0.11316163817E+02  0.11316163817E+02  0.00000000000E+00 0.  1.
          1   -1    0    0  501    0  0.00000000000E+00 -0.00000000000E+00 -0.15723639159E+04  0.15723639159E+04  0.00000000000E+00 0. -1.
         23    2    1    2    0    0 -0.62117384681E+02  0.83599528095E+01 -0.43780977135E+03  0.45176164566E+03  0.92101738913E+02 0.  0.
         23    2    1    2    0    0  0.62117384681E+02 -0.83599528095E+01 -0.11232379808E+04  0.11319184341E+04  0.12508925495E+03 0.  0.
          5    1    4    4  502    0 -0.32249098338E+02 -0.22617230285E+02 -0.47918039132E+03  0.48081479103E+03  0.41800000000E+01 0.  1.
         -5    1    4    4    0  502  0.94366483020E+02  0.14257277476E+02 -0.64405758944E+03  0.65110364305E+03  0.41800000000E+01 0.  1.
        -11    1    3    3    0    0 -0.90263440577E+01 -0.39040541310E+02 -0.14615231632E+03  0.15154582910E+03  0.00000000000E+00 0.  1.
         11    1    3    3    0    0 -0.53091040624E+02  0.47400494120E+02 -0.29165745503E+03  0.30021581656E+03  0.00000000000E+00 0. -1.
</event>
<event>
 8    1  0.5900800E-006  0.1545386E+03  0.7561462E-02  0.1195004E+00
          2   -1    0    0  501    0  0.00000000000E+00  0.00000000000E+00  0.56207737289E+03  0.56207737289E+03  0.00000000000E+00 0.  1.
         -2   -1    0    0    0  501 -0.00000000000E+00 -0.00000000000E+00 -0.96182284587E+02  0.96182284587E+02  0.00000000000E+00 0. -1.
         23    2    1    2    0    0  0.11829480629E+03 -0.59469040731E+02  0.30673947335E+01  0.16087846421E+03  0.91335881980E+02 0.  0.
         23    2    1    2    0    0 -0.11829480629E+03  0.59469040731E+02  0.46282769357E+03  0.49738119327E+03  0.12509336305E+03 0.  0.
          5    1    4    4  502    0 -0.14193156644E+03  0.49027799807E+02  0.42944116197E+03  0.45495656792E+03  0.41800000000E+01 0. -1.
         -5    1    4    4    0  502  0.23636760157E+02  0.10441240924E+02  0.33386531607E+02  0.42424625343E+02  0.41800000000E+01 0. -1.
        -11    1    3    3    0    0  0.10403130875E+02 -0.26136296814E+01  0.33506575742E+02  0.35181626030E+02  0.00000000000E+00 0.  1.
         11    1    3    3    0    0  0.10789167541E+03 -0.56855411050E+02 -0.30439181009E+02  0.12569683818E+03  0.00000000000E+00 0. -1.
</event>
<event>
 8    1  0.5900800E-006  0.9777538E+02  0.7561462E-02  0.1285045E+00
         -2   -1    0    0    0  501 -0.00000000000E+00  0.00000000000E+00  0.12439050450E+02  0.12439050450E+02  0.00000000000E+00 0.  1.
          2   -1    0    0  501    0  0.00000000000E+00 -0.00000000000E+00 -0.16864638414E+04  0.16864638414E+04  0.00000000000E+00 0. -1.
         23    2    1    2    0    0 -0.16106724094E+02 -0.14974136766E+02 -0.21803566017E+03  0.23738456745E+03  0.91259149799E+02 0.  0.
         23    2    1    2    0    0  0.16106724094E+02  0.14974136766E+02 -0.14559891308E+04  0.14615183244E+04  0.12509121589E+03 0.  0.
          5    1    4    4  502    0  0.60605669536E+02  0.31823517615E+02 -0.11264234382E+04  0.11285092016E+04  0.41800000000E+01 0.  1.
         -5    1    4    4    0  502 -0.44498945442E+02 -0.16849380849E+02 -0.32956569257E+03  0.33300912285E+03  0.41800000000E+01 0.  1.
        -11    1    3    3    0    0 -0.42931432452E+02  0.82581034497E+01 -0.18054342064E+03  0.18576122012E+03  0.00000000000E+00 0. -1.
         11    1    3    3    0    0  0.26824708358E+02 -0.23232240215E+02 -0.37492239535E+02  0.51623347327E+02  0.00000000000E+00 0.  1.
</event>
<event>
 8    1  0.5900800E-006  0.1377754E+03  0.7561462E-02  0.1216354E+00
         -2   -1    0    0    0  501 -0.00000000000E+00  0.00000000000E+00  0.35922859612E+02  0.35922859612E+02  0.00000000000E+00 0.  1.
          2   -1    0    0  501    0  0.00000000000E+00 -0.00000000000E+00 -0.58889083289E+03  0.58889083289E+03  0.00000000000E+00 0. -1.
         23    2    1    2    0    0 -0.89459497975E+02  0.87923795465E+01 -0.17449742926E+03  0.21619787771E+03  0.90619323503E+02 0.  0.
         23    2    1    2    0    0  0.89459497975E+02 -0.87923795465E+01 -0.37847054402E+03  0.40861581479E+03  0.12508646487E+03 0.  0.
          5    1    4    4  502    0 -0.71429142834E+01 -0.44177430183E+02 -0.17363489439E+03  0.17935778632E+03  0.41800000000E+01 0.  1.
         -5    1    4    4    0  502  0.96602412258E+02  0.35385050637E+02 -0.20483564963E+03  0.22925802848E+03  0.41800000000E+01 0.  1.
        -11    1    3    3    0    0  0.18508762709E+02  0.65997583486E+01 -0.26800675298E+02  0.33232624087E+02  0.00000000000E+00 0.  1.
         11    1    3    3    0    0 -0.10796826068E+03  0.21926211979E+01 -0.14769675397E+03  0.18296525363E+03  0.00000000000E+00 0. -1.
</event>
<event>
 8    1  0.5900800E-006  0.1009490E+03  0.7561462E-02  0.1278313E+00
         -1   -1    0    0    0  501 -0.00000000000E+00  0.00000000000E+00  0.21646639971E+03  0.21646639971E+03  0.00000000000E+00 0.  1.
          1   -1    0    0  501    0  0.00000000000E+00 -0.00000000000E+00 -0.58803548211E+02  0.58803548211E+02  0.00000000000E+00 0. -1.
         23    2    1    2    0    0  0.26548349339E+02 -0.18829774084E+02  0.10695506551E+03  0.14388996897E+03  0.90584556566E+02 0.  0.
         23    2    1    2    0    0 -0.26548349339E+02  0.18829774084E+02  0.50707785990E+02  0.13137997895E+03  0.11674777969E+03 0.  0.
          5    1    4    4  502    0  0.41518830553E+02  0.25162020317E+02  0.48769720297E+01  0.48971397908E+02  0.41800000000E+01 0. -1.
         -5    1    4    4    0  502 -0.68067179891E+02 -0.63322462323E+01  0.45830813960E+02  0.82408581040E+02  0.41800000000E+01 0.  1.
        -11    1    3    3    0    0  0.32450805176E+02 -0.46324642182E+02  0.10005441567E+03  0.11493438704E+03  0.00000000000E+00 0.  1.
         11    1    3    3    0    0 -0.59024558373E+01  0.27494868097E+02  0.69006498354E+01  0.28955581927E+02  0.00000000000E+00 0. -1.
</event>
<event>
 8    1  0.5900800E-006  0.1144476E+03  0.7561462E-02  0.1252548E+00
          2   -1    0    0  501    0  0.00000000000E+00  0.00000000000E+00  0.11849356820E+04  0.11849356820E+04  0.00000000000E+00 0. -1.
         -2   -1    0    0    0  501 -0.00000000000E+00 -0.00000000000E+00 -0.12658974282E+02  0.12658974282E+02  0.00000000000E+00 0.  1.
         23    2    1    2    0    0  0.40214723986E+02 -0.39824381387E+02  0.51269111464E+03  0.52387133414E+03  0.91573960949E+02 0.  0.
         23    2    1    2    0    0 -0.40214723986E+02  0.39824381387E+02  0.65958559309E+03  0.67372332215E+03  0.12508698903E+03 0.  0.
          5    1    4    4  502    0 -0.62506617963E+02  0.64462804967E+02  0.31679633302E+03  0.32930217055E+03  0.41800000000E+01 0.  1.
         -5    1    4    4    0  502  0.22291893977E+02 -0.24638423580E+02  0.34278926007E+03  0.34442115160E+03  0.41800000000E+01 0.  1.
        -11    1    3    3    0    0 -0.28580578861E+02 -0.15744699558E+02  0.11425286678E+03  0.11882113709E+03  0.00000000000E+00 0.  1.
         11    1    3    3    0    0  0.68795302847E+02 -0.24079681829E+02  0.39843824787E+03  0.40505019705E+03  0.00000000000E+00 0. -1.
</event>
<event>
 8    1  0.5900800E-006  0.1019909E+03  0.7561462E-02  0.1276164E+00
          2   -1    0    0  501    0  0.00000000000E+00  0.00000000000E+00  0.94383283940E+02  0.94383283940E+02  0.00000000000E+00 0. -1.
         -2   -1    0    0    0  501 -0.00000000000E+00 -0.00000000000E+00 -0.21056034569E+03  0.21056034569E+03  0.00000000000E+00 0.  1.
         23    2    1    2    0    0 -0.41663666845E+02 -0.78133655188E+02 -0.68951468680E+02  0.14457310138E+03  0.91139165021E+02 0.  0.
         23    2    1    2    0    0  0.41663666845E+02  0.78133655188E+02 -0.47225593071E+02  0.16037052825E+03  0.12509084892E+03 0.  0.
          5    1    4    4  502    0  0.22331276583E+02  0.27295948277E+02 -0.86265699297E+02  0.93289860014E+02  0.41800000000E+01 0.  1.
         -5    1    4    4    0  502  0.19332390262E+02  0.50837706910E+02  0.39040106227E+02  0.67080668238E+02  0.41800000000E+01 0.  1.
        -11    1    3    3    0    0 -0.59748193041E+02 -0.40547451305E+02 -0.72984723618E+02  0.10266797096E+03  0.00000000000E+00 0.  1.
         11    1    3    3    0    0  0.18084526196E+02 -0.37586203883E+02  0.40332549381E+01  0.41905130419E+02  0.00000000000E+00 0. -1.
</event>
<event>
 8    1  0.5900800E-006  0.1170694E+03  0.7561462E-02  0.1248012E+00
         -2   -1    0    0    0  501 -0.00000000000E+00  0.00000000000E+00  0.12368214358E+02  0.12368214358E+02  0.00000000000E+00 0.  1.
          2   -1    0    0  501    0  0.00000000000E+00 -0.00000000000E+00 -0.19373555932E+04  0.19373555932E+04  0.00000000000E+00 0. -1.
         23    2    1    2    0    0  0.84393260944E+02  0.98366203449E+01 -0.45067396875E+03  0.46768001371E+03  0.91643807847E+02 0.  0.
         23    2    1    2    0    0 -0.84393260944E+02 -0.98366203449E+01 -0.14743134101E+04  0.14820437939E+04  0.12503917039E+03 0.  0.
          5    1    4    4  502    0 -0.80743356167E+02  0.16466223199E+02 -0.14090107320E+04  0.14114245787E+04  0.41800000000E+01 0. -1.
         -5    1    4    4    0  502 -0.36499047767E+01 -0.26302843544E+02 -0.65302678152E+02  0.70619215212E+02  0.41800000000E+01 0. -1.
        -11    1    3    3    0    0  0.46955511485E+02 -0.40503148418E+02 -0.21001997313E+03  0.21898336514E+03  0.00000000000E+00 0. -1.
         11    1    3    3    0    0  0.37437749459E+02  0.50339768763E+02 -0.24065399562E+03  0.24869664857E+03  0.00000000000E+00 0.  1.
</event>
<event>
 8    1  0.5900800E-006  0.9446880E+02  0.7561462E-02  0.1292377E+00
          2   -1    0    0  501    0  0.00000000000E+00  0.00000000000E+00  0.18174630878E+03  0.18174630878E+03  0.00000000000E+00 0. -1.
         -2   -1    0    0    0  501 -0.00000000000E+00 -0.00000000000E+00 -0.97012816103E+02  0.97012816103E+02  0.00000000000E+00 0.  1.
         23    2    1    2    0    0  0.70345433093E+02 -0.39694198604E+01  0.10354885083E+02  0.11708594331E+03  0.92939002712E+02 0.  0.
         23    2    1    2    0    0 -0.70345433093E+02  0.39694198604E+01  0.74378607599E+02  0.16167318158E+03  0.12506719842E+03 0.  0.
          5    1    4    4  502    0 -0.20230134501E+02 -0.55508361098E+01  0.10151347396E+03  0.10374260416E+03  0.41800000000E+01 0.  1.
         -5    1    4    4    0  502 -0.50115298592E+02  0.95202559701E+01 -0.27134866361E+02  0.57930577411E+02  0.41800000000E+01 0.  1.
        -11    1    3    3    0    0  0.93307677708E+02 -0.21831012495E+01  0.51601045510E+01  0.93475747279E+02  0.00000000000E+00 0.  1.
         11    1    3    3    0    0 -0.22962244615E+02 -0.17863186108E+01  0.51947805317E+01  0.23610196033E+02  0.00000000000E+00 0. -1.
</event>
<event>
 8    1  0.5900800E-006  0.1068410E+03  0.7561462E-02  0.1266534E+00
          1   -1    0    0  501    0  0.00000000000E+00  0.00000000000E+00  0.55691767714E+02  0.55691767714E+02  0.00000000000E+00 0. -1.
         -1   -1    0    0    0  501 -0.00000000000E+00 -0.00000000000E+00 -0.31404340720E+03  0.31404340720E+03  0.00000000000E+00 0.  1.
         23    2    1    2    0    0 -0.33846090168E+02 -0.42338170664E+02 -0.18927669792E+03  0.21690408921E+03  0.91014487995E+02 0.  0.
         23    2    1    2    0    0  0.33846090168E+02  0.42338170664E+02 -0.69074941568E+02  0.15283108571E+03  0.12509162518E+03 0.  0.
          5    1    4    4  502    0  0.80965374785E+02  0.18281190135E+02 -0.45652757274E+02  0.94822151808E+02  0.41800000000E+01 0.  1.
         -5    1    4    4    0  502 -0.47119284617E+02  0.24056980529E+02 -0.23422184294E+02  0.58008933899E+02  0.41800000000E+01 0.  1.
        -11    1    3    3    0    0 -0.24376173539E+02 -0.55887656269E+02 -0.19079789248E+03  0.20030342916E+03  0.00000000000E+00 0.  1.
         11    1    3    3    0    0 -0.94699166289E+01  0.13549485605E+02  0.15211945588E+01  0.16600660047E+02  0.00000000000E+00 0. -1.
</event>
<event>
 8    1  0.5900800E-006  0.1164952E+03  0.7561462E-02  0.1248993E+00
          1   -1    0    0  501    0  0.00000000000E+00  0.00000000000E+00  0.23603788362E+03  0.23603788362E+03  0.00000000000E+00 0. -1.
         -1   -1    0    0    0  501 -0.00000000000E+00 -0.00000000000E+00 -0.79340321697E+02  0.79340321697E+02  0.00000000000E+00 0.  1.
         23    2    1    2    0    0 -0.64280663764E+02 -0.25995223083E+02  0.19755691956E+02  0.11736556907E+03  0.92610118673E+02 0.  0.
         23    2    1    2    0    0  0.64280663764E+02  0.25995223083E+02  0.13694186996E+03  0.19801263625E+03  0.12509265769E+03 0.  0.
          5    1    4    4  502    0 -0.11117809134E+02  0.58043943687E+02  0.42478638168E+02  0.72901386676E+02  0.41800000000E+01 0. -1.
         -5    1    4    4    0  502  0.75398472898E+02 -0.32048720604E+02  0.94463231794E+02  0.12511124957E+03  0.41800000000E+01 0. -1.
        -11    1    3    3    0    0 -0.27671019019E+02  0.19101744820E+02 -0.26741553340E+02  0.42961292156E+02  0.00000000000E+00 0.  1.
         11    1    3    3    0    0 -0.36609644745E+02 -0.45096967904E+02  0.46497245296E+02  0.74404276910E+02  0.00000000000E+00 0. -1.
</event>
<event>
 8    1  0.5900800E-006  0.1085942E+03  0.7561462E-02  0.1263196E+00
          2   -1    0    0  501    0  0.00000000000E+00  0.00000000000E+00  0.19647962167E+02  0.19647962167E+02  0.00000000000E+00 0. -1.
         -2   -1    0    0    0  501 -0.00000000000E+00 -0.00000000000E+00 -0.69309976672E+03  0.69309976672E+03  0.00000000000E+00 0.  1.
         23    2    1    2    0    0  0.29130823273E+02  0.30669930079E+02 -0.29550771459E+03  0.31239219694E+03  0.92058817342E+02 0.  0.
         23    2    1    2    0    0 -0.29130823273E+02 -0.30669930079E+02 -0.37794408996E+03  0.40035553195E+03  0.12511421721E+03 0.  0.
          5    1    4    4  502    0  0.37991632970E+01 -0.72866781660E+02 -0.27113054485E+03  0.28080820192E+03  0.41800000000E+01 0.  1.
         -5    1    4    4    0  502 -0.32929986570E+02  0.42196851581E+02 -0.10681354511E+03  0.11954733003E+03  0.41800000000E+01 0.  1.
        -11    1    3    3    0    0  0.11152043348E+02 -0.27422733301E+02 -0.40092402576E+02  0.49837487064E+02  0.00000000000E+00 0. -1.
         11    1    3    3    0    0  0.17978779925E+02  0.58092663380E+02 -0.25541531202E+03  0.26255470988E+03  0.00000000000E+00 0.  1.
</event>
<event>
 8    1  0.5900800E-006  0.1976015E+03  0.7561462E-02  0.1151779E+00
         -1   -1    0    0    0  501 -0.00000000000E+00  0.00000000000E+00  0.25208314783E+03  0.25208314783E+03  0.00000000000E+00 0.  1.
          1   -1    0    0  501    0  0.00000000000E+00 -0.00000000000E+00 -0.24550373497E+03  0.24550373497E+03  0.00000000000E+00 0. -1.
         23    2    1    2    0    0 -0.17168527241E+03  0.54036712327E+02  0.13565409394E+03  0.24322127693E+03  0.91426239708E+02 0.  0.
         23    2    1    2    0    0  0.17168527241E+03 -0.54036712327E+02 -0.12907468108E+03  0.25436560587E+03  0.12508312880E+03 0.  0.
          5    1    4    4  502    0 -0.30584226658E+01 -0.39462352230E+02 -0.44298761189E+02  0.59552362132E+02  0.41800000000E+01 0. -1.
         -5    1    4    4    0  502  0.17474369507E+03 -0.14574360097E+02 -0.84775919891E+02  0.19481324373E+03  0.41800000000E+01 0. -1.
        -11    1    3    3    0    0 -0.13443714422E+03  0.43264506897E+02  0.51077598782E+02  0.15018017313E+03  0.00000000000E+00 0.  1.
         11    1    3    3    0    0 -0.37248128187E+02  0.10772205430E+02  0.84576495158E+02  0.93041103801E+02  0.00000000000E+00 0. -1.
</event>
<event>
 8    1  0.5900800E-006  0.1592003E+03  0.7561462E-02  0.1189603E+00
         -2   -1    0    0    0  501 -0.00000000000E+00  0.00000000000E+00  0.38418970329E+03  0.38418970329E+03  0.00000000000E+00 0.  1.
          2   -1    0    0  501    0  0.00000000000E+00 -0.00000000000E+00 -0.10112049741E+03  0.10112049741E+03  0.00000000000E+00 0. -1.
         23    2    1    2    0    0  0.56994937359E+02 -0.10008409358E+03  0.27796657334E+03  0.31519228406E+03  0.93890954654E+02 0.  0.
         23    2    1    2    0    0 -0.56994937359E+02  0.10008409358E+03  0.51026325326E+01  0.17011791664E+03  0.12509524384E+03 0.  0.
          5    1    4    4  502    0  0.34058013584E+02 -0.17152167080E+00  0.45964251441E+01  0.34620474189E+02  0.41800000000E+01 0.  1.
         -5    1    4    4    0  502 -0.91052950943E+02  0.10025561525E+03  0.50620738843E+00  0.13549744245E+03  0.41800000000E+01 0.  1.
        -11    1    3    3    0    0  0.28816787360E+02  0.13313796596E+02  0.58247941624E+02  0.66336167487E+02  0.00000000000E+00 0.  1.
         11    1    3    3    0    0  0.28178149999E+02 -0.11339789017E+03  0.21971863172E+03  0.24885611657E+03  0.00000000000E+00 0. -1.
</event>
<event>
 8    1  0.5900800E-006  0.9731441E+02  0.7561462E-02  0.1286047E+00
         -2   -1    0    0    0  501 -0.00000000000E+00  0.00000000000E+00  0.19428364111E+03  0.19428364111E+03  0.00000000000E+00 0.  1.
          2   -1    0    0  501    0  0.00000000000E+00 -0.00000000000E+00 -0.84422828273E+02  0.84422828273E+02  0.00000000000E+00 0. -1.
         23    2    1    2    0    0 -0.58897538064E+02  0.21085595154E+02  0.77996332663E+02  0.13527056378E+03  0.91110785328E+02 0.  0.
         23    2    1    2    0    0  0.58897538064E+02 -0.21085595154E+02  0.31864480177E+02  0.14343590561E+03  0.12507994087E+03 0.  0.
          5    1    4    4  502    0 -0.14301604202E+02 -0.36370648129E+01  0.60801067569E+02  0.62705712186E+02  0.41800000000E+01 0. -1.
         -5    1    4    4    0  502  0.73199142267E+02 -0.17448530341E+02 -0.28936587393E+02  0.80730193420E+02  0.41800000000E+01 0. -1.
        -11    1    3    3    0    0 -0.45982190638E+02 -0.27550246127E+02  0.63090995523E+02  0.82787992086E+02  0.00000000000E+00 0.  1.
         11    1    3    3    0    0 -0.12915347426E+02  0.48635841281E+02  0.14905337140E+02  0.52482571693E+02  0.00000000000E+00 0. -1.
</event>
<event>
 8    1  0.5900800E-006  0.7281250E+02  0.7561462E-02  0.1350782E+00
          1   -1    0    0  501    0  0.00000000000E+00  0.00000000000E+00  0.15532370066E+03  0.15532370066E+03  0.00000000000E+00 0. -1.
         -1   -1    0    0    0  501 -0.00000000000E+00 -0.00000000000E+00 -0.10367143974E+03  0.10367143974E+03  0.00000000000E+00 0.  1.
         23    2    1    2    0    0  0.48912617535E+02 -0.39108987560E+02  0.15802888383E+02  0.11457968535E+03  0.94640456214E+02 0.  0.
         23    2    1    2    0    0 -0.48912617535E+02  0.39108987560E+02  0.35849372542E+02  0.14441545505E+03  0.12509472045E+03 0.  0.
          5    1    4    4  502    0 -0.17965782380E+02  0.25776678428E+02 -0.45965368988E+02  0.55834523670E+02  0.41800000000E+01 0. -1.
         -5    1    4    4    0  502 -0.30946835154E+02  0.13332309132E+02  0.81814741530E+02  0.88580931381E+02  0.41800000000E+01 0. -1.
        -11    1    3    3    0    0  0.47934358139E+00 -0.30834840618E+02  0.47118991795E+02  0.56313555686E+02  0.00000000000E+00 0. -1.
         11    1    3    3    0    0  0.48433273953E+02 -0.82741469414E+01 -0.31316103412E+02  0.58266129667E+02  0.00000000000E+00 0.  1.
</event>
<event>
 8    1  0.5900800E-006  0.1060802E+03  0.7561462E-02  0.1268006E+00
          2   -1    0    0  501    0  0.00000000000E+00  0.00000000000E+00  0.21347207140E+03  0.21347207140E+03  0.00000000000E+00 0. -1.
         -2   -1    0    0    0  501 -0.00000000000E+00 -0.00000000000E+00 -0.10861626422E+03  0.10861626422E+03  0.00000000000E+00 0.  1.
         23    2    1    2    0    0  0.24833033279E+02  0.83048068133E+02 -0.17453650678E+02  0.12684481883E+03  0.90946781029E+02 0.  0.
         23    2    1    2    0    0 -0.24833033279E+02 -0.83048068133E+02  0.12230945786E+03  0.19524351679E+03  0.12508703452E+03 0.  0.
          5    1    4    4  502    0 -0.13311349515E+02  0.72917671456E+01  0.10020565530E+03  0.10143474576E+03  0.41800000000E+01 0.  1.
         -5    1    4    4    0  502 -0.11521683763E+02 -0.90339835278E+02  0.22103802563E+02  0.93808771032E+02  0.41800000000E+01 0.  1.
        -11    1    3    3    0    0  0.43173113278E+02  0.41728496120E+02  0.24802207156E+02  0.64964102229E+02  0.00000000000E+00 0. -1.
         11    1    3    3    0    0 -0.18340079999E+02  0.41319572012E+02 -0.42255857835E+02  0.61880716601E+02  0.00000000000E+00 0.  1.
</event>
<event>
 8    1  0.5900800E-006  0.7718199E+02  0.7561462E-02  0.1337244E+00
          1   -1    0    0  501    0  0.00000000000E+00  0.00000000000E+00  0.28265314183E+03  0.28265314183E+03  0.00000000000E+00 0. -1.
         -1   -1    0    0    0  501 -0.00000000000E+00 -0.00000000000E+00 -0.45137079637E+02  0.45137079637E+02  0.00000000000E+00 0.  1.
         23    2    1    2    0    0 -0.25716339782E+02 -0.18011999153E+01  0.69389518732E+02  0.11665076470E+03  0.90154984018E+02 0.  0.
         23    2    1    2    0    0  0.25716339782E+02  0.18011999153E+01  0.16812654346E+03  0.21113945676E+03  0.12509500843E+03 0.  0.
          5    1    4    4  502    0  0.32360122714E+02  0.52138006491E+02  0.14007085204E+03  0.15297995050E+03  0.41800000000E+01 0. -1.
         -5    1    4    4    0  502 -0.66437829317E+01 -0.50336806575E+02  0.28055691419E+02  0.58159506263E+02  0.41800000000E+01 0. -1.
        -11    1    3    3    0    0 -0.24750755968E+02  0.12396807537E+02  0.88554354563E+02  0.92780140494E+02  0.00000000000E+00 0. -1.
         11    1    3    3    0    0 -0.96558381453E+00 -0.14198007452E+02 -0.19164835831E+02  0.23870624210E+02  0.00000000000E+00 0.  1.
</event>
<event>
 8    1  0.5900800E-006  0.2092293E+03  0.7561462E-02  0.1142178E+00
          2   -1    0    0  501    0  0.00000000000E+00  0.00000000000E+00  0.36790436469E+04  0.36790436469E+04  0.00000000000E+00 0. -1.
         -2   -1    0    0    0  501 -0.00000000000E+00 -0.00000000000E+00 -0.20517499101E+02  0.20517499101E+02  0.00000000000E+00 0.  1.
         23    2    1    2    0    0  0.93235127109E+02  0.16591564651E+03  0.67438695392E+03  0.70674342012E+03  0.92020147756E+02 0.  0.
         23    2    1    2    0    0 -0.93235127109E+02 -0.16591564651E+03  0.29841391939E+04  0.29928177259E+04  0.12510164339E+03 0.  0.
          5    1    4    4  502    0  0.64113077664E+01  0.11888205870E+02  0.62715204354E+02  0.64289218095E+02  0.41800000000E+01 0.  1.
         -5    1    4    4    0  502 -0.99646434876E+02 -0.17780385238E+03  0.29214239895E+04  0.29285285078E+04  0.41800000000E+01 0.  1.
        -11    1    3    3    0    0  0.89101582000E+02  0.98144678855E+02  0.54183144017E+03  0.55781070217E+03  0.00000000000E+00 0. -1.
         11    1    3    3    0    0  0.41335451090E+01  0.67770967650E+02  0.13255551374E+03  0.14893271795E+03  0.00000000000E+00 0.  1.
</event>
<event>
 8    1  0.8592832E-006  0.1277747E+03  0.7561462E-02  0.1230796E+00
         -2   -1    0    0    0  501 -0.00000000000E+00  0.00000000000E+00  0.65504829958E+02  0.65504829958E+02  0.00000000000E+00 0.  1.
          2   -1    0    0  501    0  0.00000000000E+00 -0.00000000000E+00 -0.31285338209E+03  0.31285338209E+03  0.00000000000E+00 0. -1.
         23    2    1    2    0    0  0.88350138665E+02 -0.28176657091E+02 -0.11459127501E+03  0.17373184037E+03  0.91934330052E+02 0.  0.
         23    2    1    2    0    0 -0.88350138665E+02  0.28176657091E+02 -0.13275727712E+03  0.20462637168E+03  0.12509111220E+03 0.  0.
          5    1    4    4  502    0  0.19920934393E+02 -0.11367797938E+02  0.61135258492E+01  0.24102241708E+02  0.41800000000E+01 0. -1.
         -5    1    4    4    0  502 -0.10827107306E+03  0.39544455029E+02 -0.13887080297E+03  0.18052412997E+03  0.41800000000E+01 0. -1.
        -11    1    3    3    0    0  0.56745976379E+02  0.19231481603E+02 -0.19741918380E+02  0.63084856037E+02  0.00000000000E+00 0.  1.
         11    1    3    3    0    0  0.31604162286E+02 -0.47408138694E+02 -0.94849356634E+02  0.11064698433E+03  0.00000000000E+00 0. -1.
</event>
<event>
 8    1  0.5900800E-006  0.1351757E+03  0.7561462E-02  0.1219972E+00
          1   -1    0    0  501    0  0.00000000000E+00  0.00000000000E+00  0.63553966583E+03  0.63553966583E+03  0.00000000000E+00 0. -1.
         -1   -1    0    0    0  501 -0.00000000000E+00 -0.00000000000E+00 -0.41593698999E+02  0.41593698999E+02  0.00000000000E+00 0.  1.
         23    2    1    2    0    0  0.10413442071E+03  0.18499928935E+02  0.15861284440E+03  0.21199980921E+03  0.92734350422E+02 0.  0.
         23    2    1    2    0    0 -0.10413442071E+03 -0.18499928935E+02  0.43533312243E+03  0.46513355562E+03  0.12509225449E+03 0.  0.
          5    1    4    4  502    0 -0.10386273570E+03  0.34099998161E+02  0.26128017195E+03  0.28325797146E+03  0.41800000000E+01 0.  1.
         -5    1    4    4    0  502 -0.27168500759E+00 -0.52599927096E+02  0.17405295048E+03  0.18187558416E+03  0.41800000000E+01 0.  1.
        -11    1    3    3    0    0  0.21548709197E+02 -0.53966803744E+01 -0.87267872068E+01  0.23866877510E+02  0.00000000000E+00 0.  1.
         11    1    3    3    0    0  0.82585711512E+02  0.23896609310E+02  0.16733963161E+03  0.18813293170E+03  0.00000000000E+00 0. -1.
</event>
<event>
 8    1  0.5900800E-006  0.1893719E+03  0.7561462E-02  0.1159029E+00
         -1   -1    0    0    0  501 -0.00000000000E+00  0.00000000000E+00  0.26926265784E+03  0.26926265784E+03  0.00000000000E+00 0.  1.
          1   -1    0    0  501    0  0.00000000000E+00 -0.00000000000E+00 -0.20250347477E+03  0.20250347477E+03  0.00000000000E+00 0. -1.
         23    2    1    2    0    0  0.16062099046E+03 -0.53089527720E+02  0.14666027961E+03  0.24671160227E+03  0.10363289319E+03 0.  0.
         23    2    1    2    0    0 -0.16062099046E+03  0.53089527720E+02 -0.79901096534E+02  0.22505453034E+03  0.12509099037E+03 0.  0.
          5    1    4    4  502    0 -0.26362284944E+02  0.65403420656E+02 -0.50945235234E+02  0.87094585905E+02  0.41800000000E+01 0. -1.
         -5    1    4    4    0  502 -0.13425870551E+03 -0.12313892935E+02 -0.28955861300E+02  0.13795994444E+03  0.41800000000E+01 0. -1.
        -11    1    3    3    0    0  0.13501680708E+03 -0.58335950288E+02  0.16003132985E+03  0.21735373892E+03  0.00000000000E+00 0.  1.
         11    1    3    3    0    0  0.25604183377E+02  0.52464225681E+01 -0.13371050237E+02  0.29357863353E+02  0.00000000000E+00 0. -1.
</event>
<event>
 8    1  0.5900800E-006  0.1127245E+03  0.7561462E-02  0.1255606E+00
         -1   -1    0    0    0  501 -0.00000000000E+00  0.00000000000E+00  0.10844994711E+02  0.10844994711E+02  0.00000000000E+00 0.  1.
          1   -1    0    0  501    0  0.00000000000E+00 -0.00000000000E+00 -0.14501048174E+04  0.14501048174E+04  0.00000000000E+00 0. -1.
         23    2    1    2    0    0  0.50608243153E+02 -0.36979289046E+01 -0.41475478985E+03  0.42758852198E+03  0.90749873112E+02 0.  0.
         23    2    1    2    0    0 -0.50608243153E+02  0.36979289046E+01 -0.10245050329E+04  0.10333612901E+04  0.12510045837E+03 0.  0.
          5    1    4    4  502    0 -0.75146631767E+02 -0.28896630769E+02 -0.86196464775E+03  0.86572660691E+03  0.41800000000E+01 0.  1.
         -5    1    4    4    0  502  0.24538388614E+02  0.32594559674E+02 -0.16254038510E+03  0.16763468324E+03  0.41800000000E+01 0.  1.
        -11    1    3    3    0    0  0.58237795674E+02  0.32589611343E+02 -0.27765625455E+03  0.28556386204E+03  0.00000000000E+00 0.  1.
         11    1    3    3    0    0 -0.76295525205E+01 -0.36287540247E+02 -0.13709853530E+03  0.14202465994E+03  0.00000000000E+00 0. -1.
</event>
<event>
 6    1  0.5900800E-006  0.1488207E+03  0.7561462E-02  0.1201930E+00
          2   -1    0    0  501    0  0.00000000000E+00  0.00000000000E+00  0.25648738542E+03  0.25648738542E+03  0.00000000000E+00 0. -1.
         -2   -1    0    0    0  501 -0.00000000000E+00 -0.00000000000E+00 -0.16168150688E+03  0.16168150688E+03  0.00000000000E+00 0.  1.
          5    1    1    2  502    0  0.53208945841E+02  0.54128877052E+02 -0.31994793586E+02  0.82475853830E+02  0.41800000000E+01 0. -1.
         -5    1    1    2    0  502  0.12414412434E+02 -0.19259447596E+01  0.95550380594E+02  0.96463332572E+02  0.41800000000E+01 0.  1.
        -11    1    1    2    0    0 -0.10808298141E+03  0.33150856302E+02 -0.40314439152E+02  0.12002568120E+03  0.00000000000E+00 0.  1.
         11    1    1    2    0    0  0.42459623132E+02 -0.85353788594E+02  0.71564730684E+02  0.11920402469E+03  0.00000000000E+00 0. -1.
</event>
<event>
 8    1  0.5900800E-006  0.9284223E+02  0.7561462E-02  0.1296111E+00
          1   -1    0    0  501    0  0.00000000000E+00  0.00000000000E+00  0.24634376529E+04  0.24634376529E+04  0.00000000000E+00 0. -1.
         -1   -1    0    0    0  501 -0.00000000000E+00 -0.00000000000E+00 -0.14455126486E+02  0.14455126486E+02  0.00000000000E+00 0.  1.
         23    2    1    2    0    0  0.20171059694E+02 -0.56435152100E+02  0.24436291620E+03  0.26891425052E+03  0.94920183716E+02 0.  0.
         23    2    1    2    0    0 -0.20171059694E+02  0.56435152100E+02  0.22046196102E+04  0.22089785289E+04  0.12508683869E+03 0.  0.
          5    1    4    4  502    0  0.11313866995E+02  0.51537059240E+01  0.22637609206E+02  0.26162913097E+02  0.41800000000E+01 0. -1.
         -5    1    4    4    0  502 -0.31484926689E+02  0.51281446176E+02  0.21819820010E+04  0.21828156158E+04  0.41800000000E+01 0. -1.
        -11    1    3    3    0    0  0.57657391444E+02 -0.44738875969E+02  0.16052073547E+03  0.17633164301E+03  0.00000000000E+00 0.  1.
         11    1    3    3    0    0 -0.37486331750E+02 -0.11696276130E+02  0.83842180729E+02  0.92582607507E+02  0.00000000000E+00 0. -1.
</event>
<event>
 8    1  0.5900800E-006  0.1380184E+03  0.7561462E-02  0.1216020E+00
         -1   -1    0    0    0  501 -0.00000000000E+00  0.00000000000E+00  0.19816096704E+02  0.19816096704E+02  0.00000000000E+00 0.  1.
          1   -1    0    0  501    0  0.00000000000E+00 -0.00000000000E+00 -0.13403221049E+04  0.13403221049E+04  0.00000000000E+00 0. -1.
         23    2    1    2    0    0  0.10030488908E+03  0.62160250334E+02 -0.54253544728E+03  0.56338858338E+03  0.95587744189E+02 0.  0.
         23    2    1    2    0    0 -0.10030488908E+03 -0.62160250334E+02 -0.77797056094E+03  0.79674961824E+03  0.12508714157E+03 0.  0.
          5    1    4    4  502    0 -0.33140216639E+02  0.88714269659E+01 -0.51511404783E+03  0.51627214805E+03  0.41800000000E+01 0. -1.
         -5    1    4    4    0  502 -0.67164672439E+02 -0.71031677300E+02 -0.26285651311E+03  0.28047747019E+03  0.41800000000E+01 0. -1.
        -11    1    3    3    0    0  0.11635113819E+02  0.53257061760E+02 -0.30189312407E+03  0.30677540460E+03  0.00000000000E+00 0.  1.
         11    1    3    3    0    0  0.88669775258E+02  0.89031885740E+01 -0.24064232320E+03  0.25661317879E+03  0.00000000000E+00 0. -1.
</event>
<event>
 8    1  0.5900800E-006  0.1138099E+03  0.7561462E-02  0.1253673E+00
         -1   -1    0    0    0  501 -0.00000000000E+00  0.00000000000E+00  0.10067878469E+03  0.10067878469E+03  0.00000000000E+00 0.  1.
          1   -1    0    0  501    0  0.00000000000E+00 -0.00000000000E+00 -0.14665043440E+03  0.14665043440E+03  0.00000000000E+00 0. -1.
         23    2    1    2    0    0  0.91714007902E+01 -0.51027071754E+02 -0.88860877940E+01  0.10693452804E+03  0.93102922007E+02 0.  0.
         23    2    1    2    0    0 -0.91714007902E+01  0.51027071754E+02 -0.37085561913E+02  0.14039469105E+03  0.12508978267E+03 0.  0.
          5    1    4    4  502    0 -0.10613668982E+02  0.92644534989E+02 -0.21950331396E+02  0.95890298159E+02  0.41800000000E+01 0.  1.
         -5    1    4    4    0  502  0.14422681922E+01 -0.41617463234E+02 -0.15135230517E+02  0.44504392889E+02  0.41800000000E+01 0.  1.
        -11    1    3    3    0    0  0.67257561953E+01 -0.71494859627E+02 -0.29636515249E+02  0.77685737337E+02  0.00000000000E+00 0.  1.
         11    1    3    3    0    0  0.24456445949E+01  0.20467787873E+02  0.20750427455E+02  0.29248790701E+02  0.00000000000E+00 0. -1.
</event>
<event>
 8    1  0.5900800E-006  0.8064222E+02  0.7561462E-02  0.1327239E+00
          1   -1    0    0  501    0  0.00000000000E+00  0.00000000000E+00  0.20202083614E+03  0.20202083614E+03  0.00000000000E+00 0. -1.
         -1   -1    0    0    0  501 -0.00000000000E+00 -0.00000000000E+00 -0.71046684803E+02  0.71046684803E+02  0.00000000000E+00 0.  1.
         23    2    1    2    0    0 -0.19032595918E+02 -0.21622393764E+02  0.10073612675E+02  0.96728394566E+02  0.91788545165E+02 0.  0.
         23    2    1    2    0    0  0.19032595918E+02  0.21622393764E+02  0.12090053866E+03  0.17633912637E+03  0.12509508233E+03 0.  0.
          5    1    4    4  502    0 -0.17513644010E+02 -0.11031438745E+02 -0.18775054745E+02  0.28255892270E+02  0.41800000000E+01 0.  1.
         -5    1    4    4    0  502  0.36546239928E+02  0.32653832509E+02  0.13967559340E+03  0.14808323410E+03  0.41800000000E+01 0.  1.
        -11    1    3    3    0    0 -0.18751918175E+02 -0.54739774635E+02 -0.89258822573E+01  0.58546978884E+02  0.00000000000E+00 0.  1.
         11    1    3    3    0    0 -0.28067774280E+00  0.33117380871E+02  0.18999494932E+02  0.38181415681E+02  0.00000000000E+00 0. -1.
</event>
<event>
 8    1  0.5900800E-006  0.1343017E+03  0.7561462E-02  0.1221209E+00
         -1   -1    0    0    0  501 -0.00000000000E+00  0.00000000000E+00  0.12499448747E+03  0.12499448747E+03  0.00000000000E+00 0.  1.
          1   -1    0    0  501    0  0.00000000000E+00 -0.00000000000E+00 -0.42241306714E+03  0.42241306714E+03  0.00000000000E+00 0. -1.
         23    2    1    2    0    0 -0.61144436529E+02  0.11870073306E+03  0.40599616421E+02  0.16693399848E+03  0.91597624691E+02 0.  0.
         23    2    1    2    0    0  0.61144436529E+02 -0.11870073306E+03 -0.33801819609E+03  0.38047355613E+03  0.11258472311E+03 0.  0.
          5    1    4    4  502    0  0.16513781701E+02 -0.18971192138E+02 -0.21244012734E+03  0.21396469620E+03  0.41800000000E+01 0. -1.
         -5    1    4    4    0  502  0.44630654828E+02 -0.99729540920E+02 -0.12557806875E+03  0.16650885993E+03  0.41800000000E+01 0.  1.
        -11    1    3    3    0    0 -0.17721330149E+02  0.42768398346E+02 -0.29452231805E+02  0.54869075057E+02  0.00000000000E+00 0. -1.
         11    1    3    3    0    0 -0.43423106380E+02  0.75932334713E+02  0.70051848227E+02  0.11206492343E+03  0.00000000000E+00 0.  1.
</event>
<event>
 8    1  0.5900800E-006  0.1194397E+03  0.7561462E-02  0.1244024E+00
         -2   -1    0    0    0  501 -0.00000000000E+00  0.00000000000E+00  0.51022501710E+02  0.51022501710E+02  0.00000000000E+00 0.  1.
          2   -1    0    0  501    0  0.00000000000E+00 -0.00000000000E+00 -0.50923565584E+03  0.50923565584E+03  0.00000000000E+00 0. -1.
         23    2    1    2    0    0  0.69819419515E+02  0.18435914498E+02 -0.78774492193E+02  0.15630627597E+03  0.11406838740E+03 0.  0.
         23    2    1    2    0    0 -0.69819419515E+02 -0.18435914498E+02 -0.37943866194E+03  0.40395188158E+03  0.11827421601E+03 0.  0.
          5    1    4    4  502    0 -0.51177521251E+02  0.29615553493E+02 -0.31877676386E+03  0.32424114061E+03  0.41800000000E+01 0. -1.
         -5    1    4    4    0  502 -0.18641898263E+02 -0.48051467991E+02 -0.60661898084E+02  0.79710740971E+02  0.41800000000E+01 0.  1.
        -11    1    3    3    0    0 -0.13068706951E+02 -0.29412721080E+02  0.25593582314E+00  0.32186406538E+02  0.00000000000E+00 0.  1.
         11    1    3    3    0    0  0.82888126466E+02  0.47848635578E+02 -0.79030428016E+02  0.12411986943E+03  0.00000000000E+00 0. -1.
</event>
<event>
 8    1  0.5900800E-006  0.1113583E+03  0.7561462E-02  0.1258075E+00
         -2   -1    0    0    0  501 -0.00000000000E+00  0.00000000000E+00  0.37237688992E+02  0.37237688992E+02  0.00000000000E+00 0.  1.
          2   -1    0    0  501    0  0.00000000000E+00 -0.00000000000E+00 -0.41889978900E+03  0.41889978900E+03  0.00000000000E+00 0. -1.
         23    2    1    2    0    0  0.55745520387E+02 -0.37737924203E+02 -0.10478810528E+03  0.14497450987E+03  0.74198029205E+02 0.  0.
         23    2    1    2    0    0 -0.55745520387E+02  0.37737924203E+02 -0.27687399473E+03  0.31116296812E+03  0.12502587655E+03 0.  0.
          5    1    4    4  502    0  0.11720622507E+02  0.62913748316E+02 -0.87261262282E+02  0.10829364254E+03  0.41800000000E+01 0. -1.
         -5    1    4    4    0  502 -0.67466142894E+02 -0.25175824112E+02 -0.18961273244E+03  0.20286932558E+03  0.41800000000E+01 0. -1.
        -11    1    3    3    0    0  0.46860689430E+02 -0.51779645099E+02 -0.45376979948E+02  0.83283408729E+02  0.00000000000E+00 0.  1.
         11    1    3    3    0    0  0.88848309575E+01  0.14041720896E+02 -0.59411125333E+02  0.61691101143E+02  0.00000000000E+00 0. -1.
</event>
<event>
 8    1  0.5900800E-006  0.1208302E+03  0.7561462E-02  0.1241734E+00
          2   -1    0    0  501    0  0.00000000000E+00  0.00000000000E+00  0.15736019262E+03  0.15736019262E+03  0.00000000000E+00 0. -1.
         -2   -1    0    0    0  501 -0.00000000000E+00 -0.00000000000E+00 -0.14593354377E+03  0.14593354377E+03  0.00000000000E+00 0.  1.
         23    2    1    2    0    0 -0.65813626716E+02 -0.62309701755E+02 -0.47442076693E+02  0.13798562883E+03  0.92603189616E+02 0.  0.
         23    2    1    2    0    0  0.65813626716E+02  0.62309701755E+02  0.58868725544E+02  0.16530810756E+03  0.12508921290E+03 0.  0.
          5    1    4    4  502    0  0.96943694912E+02  0.24685003162E+02  0.59158220524E+02  0.11629530008E+03  0.41800000000E+01 0. -1.
         -5    1    4    4    0  502 -0.31130068195E+02  0.37624698593E+02 -0.28949498005E+00  0.49012807484E+02  0.41800000000E+01 0. -1.
        -11    1    3    3    0    0 -0.17051802727E+02 -0.28416349932E+02 -0.67589542027E+02  0.75276816558E+02  0.00000000000E+00 0.  1.
         11    1    3    3    0    0 -0.48761823989E+02 -0.33893351823E+02  0.20147465334E+02  0.62708812267E+02  0.00000000000E+00 0. -1.
</event>
<event>
 8    1  0.5900800E-006  0.8804400E+02  0.7561462E-02  0.1307659E+00
         -4   -1    0    0    0  501 -0.00000000000E+00  0.00000000000E+00  0.42868957196E+02  0.42868957196E+02  0.00000000000E+00 0. -1.
          4   -1    0    0  501    0  0.00000000000E+00 -0.00000000000E+00 -0.53844450409E+03  0.53844450409E+03  0.00000000000E+00 0.  1.
         23    2    1    2    0    0  0.74993797695E+02  0.18175933517E+02 -0.90337153670E+02  0.15024520307E+03  0.91969481137E+02 0.  0.
         23    2    1    2    0    0 -0.74993797695E+02 -0.18175933517E+02 -0.40523839322E+03  0.43106825821E+03  0.12508898291E+03 0.  0.
          5    1    4    4  502    0 -0.43392176817E+02  0.94848579917E+01 -0.37846978014E+03  0.38109013425E+03  0.41800000000E+01 0.  1.
         -5    1    4    4    0  502 -0.31601620878E+02 -0.27660791509E+02 -0.26768613081E+02  0.49978123967E+02  0.41800000000E+01 0.  1.
        -11    1    3    3    0    0  0.57212447344E+02  0.33063566245E+02 -0.10408255411E+03  0.12328682660E+03  0.00000000000E+00 0.  1.
         11    1    3    3    0    0  0.17781350351E+02 -0.14887632727E+02  0.13745400439E+02  0.26958376468E+02  0.00000000000E+00 0. -1.
</event>
<event>
 8    1  0.5900800E-006  0.1186887E+03  0.7561462E-02  0.1245276E+00
          2   -1    0    0  501    0  0.00000000000E+00  0.00000000000E+00  0.12481015537E+04  0.12481015537E+04  0.00000000000E+00 0. -1.
         -2   -1    0    0    0  501 -0.00000000000E+00 -0.00000000000E+00 -0.17158177616E+02  0.17158177616E+02  0.00000000000E+00 0.  1.
         23    2    1    2    0    0  0.23712254510E+01  0.56932268525E+02  0.21795549083E+03  0.24298836749E+03  0.91059567559E+02 0.  0.
         23    2    1    2    0    0 -0.23712254510E+01 -0.56932268525E+02  0.10129878852E+04  0.10222713638E+04  0.12508948681E+03 0.  0.
          5    1    4    4  502    0  0.59409630036E+02 -0.33421080443E+02  0.40898850707E+03  0.41465111127E+03  0.41800000000E+01 0. -1.
         -5    1    4    4    0  502 -0.61780855487E+02 -0.23511188081E+02  0.60399937815E+03  0.60762025253E+03  0.41800000000E+01 0. -1.
        -11    1    3    3    0    0  0.28498341699E+02  0.68563063382E+02  0.18505697800E+03  0.19939692637E+03  0.00000000000E+00 0.  1.
         11    1    3    3    0    0 -0.26127116248E+02 -0.11630794857E+02  0.32898512823E+02  0.43591441114E+02  0.00000000000E+00 0. -1.
</event>
<event>
 8    1  0.5900800E-006  0.5735376E+02  0.7561462E-02  0.1409285E+00
         -2   -1    0    0    0  501 -0.00000000000E+00  0.00000000000E+00  0.33297777346E+02  0.33297777346E+02  0.00000000000E+00 0.  1.
          2   -1    0    0  501    0  0.00000000000E+00 -0.00000000000E+00 -0.48787463853E+03  0.48787463853E+03  0.00000000000E+00 0. -1.
         23    2    1    2    0    0  0.29307344877E+02 -0.23390143091E+02 -0.68948428104E+02  0.11403533158E+03  0.82729389290E+02 0.  0.
         23    2    1    2    0    0 -0.29307344877E+02  0.23390143091E+02 -0.38562843308E+03  0.40713708430E+03  0.12508116467E+03 0.  0.
          5    1    4    4  502    0 -0.76737200148E+00 -0.14382937098E+01  0.93281480950E+01  0.10351052868E+02  0.41800000000E+01 0.  1.
         -5    1    4    4    0  502 -0.28539972875E+02  0.24828436800E+02 -0.39495658118E+03  0.39678603143E+03  0.41800000000E+01 0.  1.
        -11    1    3    3    0    0  0.48785096164E+02 -0.16382884007E+02 -0.11169894700E+02  0.52660716324E+02  0.00000000000E+00 0.  1.
         11    1    3    3    0    0 -0.19477751288E+02 -0.70072590833E+01 -0.57778533405E+02  0.61374615253E+02  0.00000000000E+00 0. -1.
</event>
<event>
 8    1  0.5900800E-006  0.1121246E+03  0.7561462E-02  0.1256685E+00
          2   -1    0    0  501    0  0.00000000000E+00  0.00000000000E+00  0.37016665707E+03  0.37016665707E+03  0.00000000000E+00 0.  1.
         -2   -1    0    0    0  501 -0.00000000000E+00 -0.00000000000E+00 -0.34693170999E+02  0.34693170999E+02  0.00000000000E+00 0. -1.
         23    2    1    2    0    0 -0.15433115148E+01 -0.38839786718E+02  0.15049527958E+03  0.17819832411E+03  0.87148738938E+02 0.  0.
         23    2    1    2    0    0  0.15433115148E+01  0.38839786718E+02  0.18497820650E+03  0.22666150396E+03  0.12509032599E+03 0.  0.
          5    1    4    4  502    0  0.46062403719E+02  0.63382899977E+02  0.94825467265E+02  0.12307915619E+03  0.41800000000E+01 0. -1.
         -5    1    4    4    0  502 -0.44519092205E+02 -0.24543113259E+02  0.90152739234E+02  0.10358234777E+03  0.41800000000E+01 0. -1.
        -11    1    3    3    0    0 -0.26858160984E+02  0.18151567419E+02  0.41960178067E+02  0.53023549057E+02  0.00000000000E+00 0.  1.
         11    1    3    3    0    0  0.25314849469E+02 -0.56991354138E+02  0.10853510151E+03  0.12517477505E+03  0.00000000000E+00 0. -1.
</event>
<event>
 8    1  0.5900800E-006  0.1464825E+03  0.7561462E-02  0.1204863E+00
         -1   -1    0    0    0  501 -0.00000000000E+00  0.00000000000E+00  0.95454725447E+02  0.95454725447E+02  0.00000000000E+00 0.  1.
          1   -1    0    0  501    0  0.00000000000E+00 -0.00000000000E+00 -0.28091208251E+03  0.28091208251E+03  0.00000000000E+00 0. -1.
         23    2    1    2    0    0  0.10781982151E+03 -0.41295975675E+02 -0.13269077123E+03  0.19815161024E+03  0.91251018376E+02 0.  0.
         23    2    1    2    0    0 -0.10781982151E+03  0.41295975675E+02 -0.52766585835E+02  0.17821519772E+03  0.12508346253E+03 0.  0.
          5    1    4    4  502    0  0.70550147625E+01  0.29270474194E+02 -0.54747286703E+02  0.62620058241E+02  0.41800000000E+01 0. -1.
         -5    1    4    4    0  502 -0.11487483627E+03  0.12025501481E+02  0.19807008679E+01  0.11559513947E+03  0.41800000000E+01 0. -1.
        -11    1    3    3    0    0  0.10726408560E+03 -0.63584463397E+02 -0.11591990053E+03  0.17025272798E+03  0.00000000000E+00 0. -1.
         11    1    3    3    0    0  0.55573590360E+00  0.22288487722E+02 -0.16770870698E+02  0.27898882259E+02  0.00000000000E+00 0.  1.
</event>
<event>
 8    1  0.5900800E-006  0.1144808E+03  0.7561462E-02  0.1252490E+00
         -1   -1    0    0    0  501 -0.00000000000E+00  0.00000000000E+00  0.60479040498E+03  0.60479040498E+03  0.00000000000E+00 0.  1.
          1   -1    0    0  501    0  0.00000000000E+00 -0.00000000000E+00 -0.29362590106E+02  0.29362590106E+02  0.00000000000E+00 0. -1.
         23    2    1    2    0    0  0.63112579935E+02 -0.45244822695E+02  0.28927886361E+03  0.31234869473E+03  0.88595453835E+02 0.  0.
         23    2    1    2    0    0 -0.63112579935E+02  0.45244822695E+02  0.28614895126E+03  0.32180430036E+03  0.12508594522E+03 0.  0.
          5    1    4    4  502    0 -0.76511561486E+02  0.75147511073E+02  0.16995281819E+03  0.20100398073E+03  0.41800000000E+01 0.  1.
         -5    1    4    4    0  502  0.13398981551E+02 -0.29902688378E+02  0.11619613308E+03  0.12080031962E+03  0.41800000000E+01 0.  1.
        -11    1    3    3    0    0  0.40056275055E+02 -0.26188645062E+01  0.34284539032E+02  0.52790086562E+02  0.00000000000E+00 0. -1.
         11    1    3    3    0    0  0.23056304880E+02 -0.42625958189E+02  0.25499432458E+03  0.25955860817E+03  0.00000000000E+00 0.  1.
</event>
<event>
 8    1  0.5900800E-006  0.1765302E+03  0.7561462E-02  0.1171204E+00
          2   -1    0    0  501    0  0.00000000000E+00  0.00000000000E+00  0.13606075135E+04  0.13606075135E+04  0.00000000000E+00 0. -1.
         -2   -1    0    0    0  501 -0.00000000000E+00 -0.00000000000E+00 -0.35472180796E+02  0.35472180796E+02  0.00000000000E+00 0.  1.
         23    2    1    2    0    0  0.15677311229E+03 -0.54315846520E+02  0.33973712724E+03  0.38901284770E+03  0.91551407042E+02 0.  0.
         23    2    1    2    0    0 -0.15677311229E+03  0.54315846520E+02  0.98539820551E+03  0.10070668466E+04  0.12508393289E+03 0.  0.
          5    1    4    4  502    0 -0.11707843467E+03  0.74047228317E+02  0.90145121179E+03  0.91204282330E+03  0.41800000000E+01 0. -1.
         -5    1    4    4    0  502 -0.39694677613E+02 -0.19731381798E+02  0.83946993714E+02  0.95024023342E+02  0.41800000000E+01 0. -1.
        -11    1    3    3    0    0  0.14510046983E+03 -0.59931258147E+02  0.34158003671E+03  0.37592927996E+03  0.00000000000E+00 0. -1.
         11    1    3    3    0    0  0.11672642452E+02  0.56154116276E+01 -0.18429094717E+01  0.13083567743E+02  0.00000000000E+00 0.  1.
</event>
<event>
 8    1  0.5900800E-006  0.1222241E+03  0.7561462E-02  0.1239473E+00
         -1   -1    0    0    0  501 -0.00000000000E+00  0.00000000000E+00  0.64705908769E+03  0.64705908769E+03  0.00000000000E+00 0.  1.
          1   -1    0    0  501    0  0.00000000000E+00 -0.00000000000E+00 -0.23711435355E+02  0.23711435355E+02  0.00000000000E+00 0. -1.
         23    2    1    2    0    0  0.54837071398E+02  0.22272769475E+02  0.30197830639E+03  0.32087301598E+03  0.90914323400E+02 0.  0.
         23    2    1    2    0    0 -0.54837071398E+02 -0.22272769475E+02  0.32136934595E+03  0.34989750706E+03  0.12508728262E+03 0.  0.
          5    1    4    4  502    0 -0.58334113115E+02 -0.69106222608E+02  0.22751790132E+03  0.24486814121E+03  0.41800000000E+01 0.  1.
         -5    1    4    4    0  502  0.34970417167E+01  0.46833453133E+02  0.93851444629E+02  0.10502936586E+03  0.41800000000E+01 0.  1.
        -11    1    3    3    0    0  0.12057970592E+02  0.52834105737E+02  0.18162889925E+03  0.18954127367E+03  0.00000000000E+00 0.  1.
         11    1    3    3    0    0  0.42779100806E+02 -0.30561336261E+02  0.12034940714E+03  0.13133174231E+03  0.00000000000E+00 0. -1.
</event>
<event>
 7    1  0.5900800E-006  0.1535762E+03  0.7561462E-02  0.1196146E+00
          2   -1    0    0  501    0  0.00000000000E+00  0.00000000000E+00  0.54313959383E+03  0.54313959383E+03  0.00000000000E+00 0. -1.
         -2   -1    0    0    0  501 -0.00000000000E+00 -0.00000000000E+00 -0.85776559334E+02  0.85776559334E+02  0.00000000000E+00 0.  1.
         23    2    1    2    0    0  0.15434305378E+02 -0.72201401877E+02 -0.16595776082E+02  0.11704110065E+03  0.89285716898E+02 0.  0.
          5    1    1    2  502    0  0.89875183850E+01 -0.57963412606E+02  0.18179294449E+03  0.19106721266E+03  0.41800000000E+01 0. -1.
         -5    1    1    2    0  502 -0.24421823763E+02  0.13016481448E+03  0.29216586609E+03  0.32080783986E+03  0.41800000000E+01 0.  1.
        -11    1    3    3    0    0  0.29270632485E+02  0.11173283392E+02 -0.52638092604E+01  0.31769795022E+02  0.00000000000E+00 0. -1.
         11    1    3    3    0    0 -0.13836327106E+02 -0.83374685268E+02 -0.11331966821E+02  0.85271305627E+02  0.00000000000E+00 0.  1.
</event>
<event>
 8    1  0.5900800E-006  0.1155170E+03  0.7561462E-02  0.1250681E+00
         -1   -1    0    0    0  501 -0.00000000000E+00  0.00000000000E+00  0.52316122804E+02  0.52316122804E+02  0.00000000000E+00 0.  1.
          1   -1    0    0  501    0  0.00000000000E+00 -0.00000000000E+00 -0.43956654617E+03  0.43956654617E+03  0.00000000000E+00 0. -1.
         23    2    1    2    0    0  0.40556040337E+01 -0.10318393089E+03 -0.17219133377E+03  0.22251283693E+03  0.95910039406E+02 0.  0.
         23    2    1    2    0    0 -0.40556040337E+01  0.10318393089E+03 -0.21505908960E+03  0.26936983204E+03  0.12508526243E+03 0.  0.
          5    1    4    4  502    0 -0.57407705729E+01  0.25271466602E+02 -0.18320589890E+03  0.18507694958E+03  0.41800000000E+01 0.  1.
         -5    1    4    4    0  502  0.16851665391E+01  0.77912464284E+02 -0.31853190697E+02  0.84292882467E+02  0.41800000000E+01 0.  1.
        -11    1    3    3    0    0 -0.33540107487E+02 -0.32620835567E+02 -0.11516426400E+03  0.12430553256E+03  0.00000000000E+00 0. -1.
         11    1    3    3    0    0  0.37595711521E+02 -0.70563095319E+02 -0.57027069772E+02  0.98207304375E+02  0.00000000000E+00 0.  1.
</event>
<event>
 8    1  0.5900800E-006  0.8845733E+02  0.7561462E-02  0.1306631E+00
          1   -1    0    0  501    0  0.00000000000E+00  0.00000000000E+00  0.13294610550E+04  0.13294610550E+04  0.00000000000E+00 0. -1.
         -1   -1    0    0    0  501 -0.00000000000E+00 -0.00000000000E+00 -0.97093184288E+01  0.97093184288E+01  0.00000000000E+00 0.  1.
         23    2    1    2    0    0  0.29970483595E+02 -0.14457226362E+01  0.49589597200E+03  0.50533231323E+03  0.92453294985E+02 0.  0.
         23    2    1    2    0    0 -0.29970483595E+02  0.14457226362E+01  0.82385576453E+03  0.83383806015E+03  0.12508904751E+03 0.  0.
          5    1    4    4  502    0 -0.21728927025E+02  0.36933632773E+02  0.97809941519E+02  0.10686672335E+03  0.41800000000E+01 0. -1.
         -5    1    4    4    0  502 -0.82415565696E+01 -0.35487910137E+02  0.72604582301E+03  0.72697133680E+03  0.41800000000E+01 0. -1.
        -11    1    3    3    0    0  0.58559335325E+02 -0.21375470826E+02  0.32185277339E+03  0.32783427863E+03  0.00000000000E+00 0.  1.
         11    1    3    3    0    0 -0.28588851730E+02  0.19929748189E+02  0.17404319861E+03  0.17749803461E+03  0.00000000000E+00 0. -1.
</event>
<event>
 8    1  0.5900800E-006  0.8427522E+02  0.7561462E-02  0.1317339E+00
         -3   -1    0    0    0  501 -0.00000000000E+00  0.00000000000E+00  0.39776334878E+02  0.39776334878E+02  0.00000000000E+00 0.  1.
          3   -1    0    0  501    0  0.00000000000E+00 -0.00000000000E+00 -0.29904535097E+03  0.29904535097E+03  0.00000000000E+00 0. -1.
         23    2    1    2    0    0  0.18577799568E+02 -0.68968489967E+00 -0.89499826191E+02  0.12712637712E+03  0.88347532896E+02 0.  0.
         23    2    1    2    0    0 -0.18577799568E+02  0.68968489967E+00 -0.16976918990E+03  0.21169530873E+03  0.12509082939E+03 0.  0.
          5    1    4    4  502    0 -0.33691718622E+02 -0.46340090302E+02 -0.14563976615E+03  0.15655973224E+03  0.41800000000E+01 0. -1.
         -5    1    4    4    0  502  0.15113919054E+02  0.47029775201E+02 -0.24129423744E+02  0.55135576490E+02  0.41800000000E+01 0. -1.
        -11    1    3    3    0    0  0.12299390649E+02 -0.29543012894E+02  0.91271147012E+00  0.32014022919E+02  0.00000000000E+00 0.  1.
         11    1    3    3    0    0  0.62784089187E+01  0.28853327995E+02 -0.90412537661E+02  0.95112354199E+02  0.00000000000E+00 0. -1.
</event>
<event>
 8    1  0.5900800E-006  0.1069134E+03  0.7561462E-02  0.1266395E+00
         -2   -1    0    0    0  501 -0.00000000000E+00  0.00000000000E+00  0.23826924509E+02  0.23826924509E+02  0.00000000000E+00 0.  1.
          2   -1    0    0  501    0  0.00000000000E+00 -0.00000000000E+00 -0.63497579590E+03  0.63497579590E+03  0.00000000000E+00 0. -1.
         23    2    1    2    0    0  0.57269967933E+02 -0.86546907531E+01 -0.28753530533E+03  0.30705452736E+03  0.90835995422E+02 0.  0.
         23    2    1    2    0    0 -0.57269967933E+02  0.86546907531E+01 -0.32361356607E+03  0.35174819305E+03  0.12508516408E+03 0.  0.
          5    1    4    4  502    0 -0.88807825142E+02  0.29945150049E+01 -0.14407366059E+03  0.16932362210E+03  0.41800000000E+01 0.  1.
         -5    1    4    4    0  502  0.31537857209E+02  0.56601757482E+01 -0.17953990548E+03  0.18242457095E+03  0.41800000000E+01 0.  1.
        -11    1    3    3    0    0  0.57307457126E+02  0.22379861798E+02 -0.25407506977E+03  0.26141756624E+03  0.00000000000E+00 0.  1.
         11    1    3    3    0    0 -0.37489193332E-01 -0.31034552551E+02 -0.33460235556E+02  0.45636961127E+02  0.00000000000E+00 0. -1.
</event>
<event>
 8    1  0.5900800E-006  0.1087171E+03  0.7561462E-02  0.1262964E+00
          1   -1    0    0  501    0  0.00000000000E+00  0.00000000000E+00  0.77437823748E+03  0.77437823748E+03  0.00000000000E+00 0. -1.
         -1   -1    0    0    0  501 -0.00000000000E+00 -0.00000000000E+00 -0.24482564228E+02  0.24482564228E+02  0.00000000000E+00 0.  1.
         23    2    1    2    0    0  0.56991195071E+02 -0.46881181245E+02  0.20742492159E+03  0.23728624707E+03  0.88508889270E+02 0.  0.
         23    2    1    2    0    0 -0.56991195071E+02  0.46881181245E+02  0.54247075165E+03  0.56157455463E+03  0.12508246297E+03 0.  0.
          5    1    4    4  502    0 -0.42058826314E+02  0.65691384548E+02  0.15724626224E+03  0.17557950411E+03  0.41800000000E+01 0. -1.
         -5    1    4    4    0  502 -0.14932368757E+02 -0.18810203303E+02  0.38522448942E+03  0.38599505053E+03  0.41800000000E+01 0. -1.
        -11    1    3    3    0    0  0.76871199257E+02 -0.16479026093E+02  0.14956656682E+03  0.16897010827E+03  0.00000000000E+00 0.  1.
         11    1    3    3    0    0 -0.19880004186E+02 -0.30402155152E+02  0.57858354769E+02  0.68316138803E+02  0.00000000000E+00 0. -1.
</event>
<event>
 8    1  0.5900800E-006  0.1419692E+03  0.7561462E-02  0.1210704E+00
         -1   -1    0    0    0  501 -0.00000000000E+00  0.00000000000E+00  0.93539806343E+03  0.93539806343E+03  0.00000000000E+00 0.  1.
          1   -1    0    0  501    0  0.00000000000E+00 -0.00000000000E+00 -0.32909494145E+02  0.32909494145E+02  0.00000000000E+00 0. -1.
         23    2    1    2    0    0  0.71160082738E+02  0.11365236027E+03  0.34163732060E+03  0.37823925541E+03  0.91478189408E+02 0.  0.
         23    2    1    2    0    0 -0.71160082738E+02 -0.11365236027E+03  0.56085124868E+03  0.59006830216E+03  0.12508341895E+03 0.  0.
          5    1    4    4  502    0  0.27648783694E+01 -0.41616326545E+02  0.37584113650E+03  0.37817138374E+03  0.41800000000E+01 0. -1.
         -5    1    4    4    0  502 -0.73924961108E+02 -0.72036033727E+02  0.18501011218E+03  0.21189691842E+03  0.41800000000E+01 0. -1.
        -11    1    3    3    0    0  0.59949718995E+02  0.63500114839E+02  0.29891464928E+03  0.31141002063E+03  0.00000000000E+00 0.  1.
         11    1    3    3    0    0  0.11210363743E+02  0.50152245433E+02  0.42722671317E+02  0.66829234783E+02  0.00000000000E+00 0. -1.
</event>
<event>
 7    1  0.5900800E-006  0.1386949E+03  0.7561462E-02  0.1215096E+00
          2   -1    0    0  501    0  0.00000000000E+00  0.00000000000E+00  0.61878400547E+03  0.61878400547E+03  0.00000000000E+00 0. -1.
         -2   -1    0    0    0  501 -0.00000000000E+00 -0.00000000000E+00 -0.40374879674E+02  0.40374879674E+02  0.00000000000E+00 0.  1.
         23    2    1    2    0    0  0.83146042436E+02 -0.64406538561E+02  0.14692045405E+03  0.19466837045E+03  0.72447829876E+02 0.  0.
          5    1    1    2  502    0 -0.10371485641E+02  0.86408584192E+02  0.30155744411E+03  0.31389229942E+03  0.41800000000E+01 0. -1.
         -5    1    1    2    0  502 -0.72774556795E+02 -0.22002045632E+02  0.12993122764E+03  0.15059821528E+03  0.41800000000E+01 0.  1.
        -11    1    3    3    0    0  0.25844544390E+02  0.25726461591E+01  0.79673355149E+02  0.83799776274E+02  0.00000000000E+00 0. -1.
         11    1    3    3    0    0  0.57301498046E+02 -0.66979184720E+02  0.67247098898E+02  0.11086859417E+03  0.00000000000E+00 0.  1.
</event>
<event>
 8    1  0.5900800E-006  0.1313444E+03  0.7561462E-02  0.1225474E+00
          2   -1    0    0  501    0  0.00000000000E+00  0.00000000000E+00  0.11148400825E+04  0.11148400825E+04  0.00000000000E+00 0.  1.
         -2   -1    0    0    0  501 -0.00000000000E+00 -0.00000000000E+00 -0.38660407939E+02  0.38660407939E+02  0.00000000000E+00 0. -1.
         23    2    1    2    0    0 -0.92839337095E+02  0.58629541623E+01  0.10064313929E+03  0.16558731037E+03  0.92933304721E+02 0.  0.
         23    2    1    2    0    0  0.92839337095E+02 -0.58629541623E+01  0.97553653530E+03  0.98791318010E+03  0.12508957973E+03 0.  0.
          5    1    4    4  502    0  0.34871894577E+02 -0.47952914963E+02  0.72126669576E+03  0.72371171740E+03  0.41800000000E+01 0.  1.
         -5    1    4    4    0  502  0.57967442517E+02  0.42089960801E+02  0.25426983954E+03  0.26420146270E+03  0.41800000000E+01 0.  1.
        -11    1    3    3    0    0 -0.49079031715E+02  0.49489795136E+02  0.53124711592E+02  0.87636899526E+02  0.00000000000E+00 0. -1.
         11    1    3    3    0    0 -0.43760305379E+02 -0.43626840974E+02  0.47518427694E+02  0.77950410844E+02  0.00000000000E+00 0.  1.
</event>
<event>
 8    1  0.1251704E-005  0.8723423E+02  0.7561462E-02  0.1309691E+00
         -4   -1    0    0    0  501 -0.00000000000E+00  0.00000000000E+00  0.53933353486E+02  0.53933353486E+02  0.00000000000E+00 0.  1.
          4   -1    0    0  501    0  0.00000000000E+00 -0.00000000000E+00 -0.21443748309E+03  0.21443748309E+03  0.00000000000E+00 0. -1.
         23    2    1    2    0    0  0.16478251655E+02  0.12344365196E+02 -0.14166415481E+02  0.74756565787E+02  0.70455238777E+02 0.  0.
         23    2    1    2    0    0 -0.16478251655E+02 -0.12344365196E+02 -0.14633771412E+03  0.19361427079E+03  0.12509133922E+03 0.  0.
          5    1    4    4  502    0  0.36106408944E+02 -0.39240609102E+02 -0.25944632937E+02  0.59448251007E+02  0.41800000000E+01 0.  1.
         -5    1    4    4    0  502 -0.52584660599E+02  0.26896243906E+02 -0.12039308118E+03  0.13416601978E+03  0.41800000000E+01 0.  1.
        -11    1    3    3    0    0 -0.20905085362E+02  0.12553669667E+02 -0.25901606522E+02  0.35574013501E+02  0.00000000000E+00 0. -1.
         11    1    3    3    0    0  0.37383337017E+02 -0.20930447189E+00  0.11735191041E+02  0.39182552286E+02  0.00000000000E+00 0.  1.
</event>
<event>
 8    1  0.5900800E-006  0.6956435E+02  0.7561462E-02  0.1361581E+00
          1   -1    0    0  501    0  0.00000000000E+00  0.00000000000E+00  0.38546903913E+03  0.38546903913E+03  0.00000000000E+00 0. -1.
         -1   -1    0    0    0  501 -0.00000000000E+00 -0.00000000000E+00 -0.33406892954E+02  0.33406892954E+02  0.00000000000E+00 0.  1.
         23    2    1    2    0    0 -0.17045527938E+02 -0.11082949519E+02  0.20050899332E+03  0.22131571474E+03  0.91451667001E+02 0.  0.
         23    2    1    2    0    0  0.17045527938E+02  0.11082949519E+02  0.15155315286E+03  0.19756021734E+03  0.12509316345E+03 0.  0.
          5    1    4    4  502    0  0.17413010847E+01  0.33227767652E+02 -0.89926451193E+01  0.34719688058E+02  0.41800000000E+01 0. -1.
         -5    1    4    4    0  502  0.15304226853E+02 -0.22144818133E+02  0.16054579798E+03  0.16284052928E+03  0.41800000000E+01 0. -1.
        -11    1    3    3    0    0 -0.17094573224E+02 -0.43084024511E+02  0.53150871617E+02  0.70522852717E+02  0.00000000000E+00 0.  1.
         11    1    3    3    0    0  0.49045286173E-01  0.32001074991E+02  0.14735812170E+03  0.15079286203E+03  0.00000000000E+00 0. -1.
</event>
<event>
 7    1  0.5900800E-006  0.1055208E+03  0.7561462E-02  0.1269097E+00
         -2   -1    0    0    0  501 -0.00000000000E+00  0.00000000000E+00  0.89790060875E+01  0.89790060875E+01  0.00000000000E+00 0.  1.
          2   -1    0    0  501    0  0.00000000000E+00 -0.00000000000E+00 -0.28645144540E+04  0.28645144540E+04  0.00000000000E+00 0. -1.
         23    2    1    2    0    0 -0.34337663318E+02 -0.41348246417E+02 -0.67316153159E+03  0.68641705548E+03  0.12301696563E+03 0.  0.
          5    1    1    2  502    0  0.49983921948E+02  0.28170703831E+02 -0.21288093270E+04  0.21295864866E+04  0.41800000000E+01 0. -1.
         -5    1    1    2    0  502 -0.15646258629E+02  0.13177542586E+02 -0.53564589325E+02  0.57489917961E+02  0.41800000000E+01 0.  1.
        -11    1    3    3    0    0 -0.66345064110E+02  0.14826453246E+02 -0.39781519877E+03  0.40358199120E+03  0.00000000000E+00 0.  1.
         11    1    3    3    0    0  0.32007400791E+02 -0.56174699662E+02 -0.27534633282E+03  0.28283506428E+03  0.00000000000E+00 0. -1.
</event>
<event>
 8    1  0.5900800E-006  0.9391988E+02  0.7561462E-02  0.1293627E+00
          1   -1    0    0  501    0  0.00000000000E+00  0.00000000000E+00  0.40493729281E+03  0.40493729281E+03  0.00000000000E+00 0. -1.
         -1   -1    0    0    0  501 -0.00000000000E+00 -0.00000000000E+00 -0.30101309249E+02  0.30101309249E+02  0.00000000000E+00 0.  1.
         23    2    1    2    0    0  0.21295429586E+02  0.10921434215E+02  0.15819356022E+03  0.18373164836E+03  0.90329082063E+02 0.  0.
         23    2    1    2    0    0 -0.21295429586E+02 -0.10921434215E+02  0.21664242333E+03  0.25130695370E+03  0.12509385413E+03 0.  0.
          5    1    4    4  502    0 -0.53808867044E+02 -0.37629782153E+02  0.59953264674E+02  0.89012701467E+02  0.41800000000E+01 0.  1.
         -5    1    4    4    0  502  0.32513437458E+02  0.26708347938E+02  0.15668915866E+03  0.16229425223E+03  0.41800000000E+01 0.  1.
        -11    1    3    3    0    0  0.49865864465E+02  0.11543263102E+02  0.14187004654E+03  0.15082095831E+03  0.00000000000E+00 0. -1.
         11    1    3    3    0    0 -0.28570434879E+02 -0.62182888697E+00  0.16323513686E+02  0.32910690047E+02  0.00000000000E+00 0.  1.
</event>
<event>
 8    1  0.5900800E-006  0.1469201E+03  0.7561462E-02  0.1204309E+00
         -1   -1    0    0    0  501 -0.00000000000E+00  0.00000000000E+00  0.47720929159E+02  0.47720929159E+02  0.00000000000E+00 0.  1.
          1   -1    0    0  501    0  0.00000000000E+00 -0.00000000000E+00 -0.57850094073E+03  0.57850094073E+03  0.00000000000E+00 0. -1.
         23    2    1    2    0    0  0.30011630366E+02  0.12386092775E+03 -0.20441353101E+03  0.25419546059E+03  0.81167808568E+02 0.  0.
         23    2    1    2    0    0 -0.30011630366E+02 -0.12386092775E+03 -0.32636648057E+03  0.37202640930E+03  0.12508533966E+03 0.  0.
          5    1    4    4  502    0 -0.47191944447E+02 -0.11963605285E+03 -0.32935905418E+03  0.35360249395E+03  0.41800000000E+01 0. -1.
         -5    1    4    4    0  502  0.17180314081E+02 -0.42248748955E+01  0.29925736082E+01  0.18423915344E+02  0.41800000000E+01 0. -1.
        -11    1    3    3    0    0  0.76983967713E+01 -0.92403138470E+01 -0.38437797233E+02  0.40275463610E+02  0.00000000000E+00 0. -1.
         11    1    3    3    0    0  0.22313233595E+02  0.13310124160E+03 -0.16597573377E+03  0.21391999698E+03  0.00000000000E+00 0.  1.
</event>
<event>
 8    1  0.5900800E-006  0.1193043E+03  0.7561462E-02  0.1244249E+00
         -1   -1    0    0    0  501 -0.00000000000E+00  0.00000000000E+00  0.16859152907E+03  0.16859152907E+03  0.00000000000E+00 0.  1.
          1   -1    0    0  501    0  0.00000000000E+00 -0.00000000000E+00 -0.11865367567E+03  0.11865367567E+03  0.00000000000E+00 0. -1.
         23    2    1    2    0    0  0.48182443536E+02  0.51261387548E+02  0.80182609111E+02  0.14058984397E+03  0.91580432980E+02 0.  0.
         23    2    1    2    0    0 -0.48182443536E+02 -0.51261387548E+02 -0.30244755706E+02  0.14665536077E+03  0.12507506496E+03 0.  0.
          5    1    4    4  502    0 -0.78279229532E+02 -0.33123406600E+00 -0.37514998215E+02  0.86905667152E+02  0.41800000000E+01 0.  1.
         -5    1    4    4    0  502  0.30096785996E+02 -0.50930153482E+02  0.72702425083E+01  0.59749693616E+02  0.41800000000E+01 0.  1.
        -11    1    3    3    0    0 -0.98703135395E+00  0.51730209760E+02  0.75042457768E+02  0.91150201868E+02  0.00000000000E+00 0.  1.
         11    1    3    3    0    0  0.49169474890E+02 -0.46882221187E+00  0.51401513432E+01  0.49439642100E+02  0.00000000000E+00 0. -1.
</event>
<event>
 7    1  0.5900800E-006  0.1326714E+03  0.7561462E-02  0.1223545E+00
         -2   -1    0    0    0  501 -0.00000000000E+00  0.00000000000E+00  0.34205963887E+02  0.34205963887E+02  0.00000000000E+00 0.  1.
          2   -1    0    0  501    0  0.00000000000E+00 -0.00000000000E+00 -0.10666664735E+04  0.10666664735E+04  0.00000000000E+00 0. -1.
         23    2    1    2    0    0  0.92807186309E+01 -0.60910362744E+02 -0.17135947590E+03  0.20929086305E+03  0.10316196656E+03 0.  0.
          5    1    1    2  502    0 -0.40922307207E+02 -0.29172539941E+02 -0.71637591736E+03  0.71814873089E+03  0.41800000000E+01 0. -1.
         -5    1    1    2    0  502  0.31641588577E+02  0.90082902685E+02 -0.14472511637E+03  0.17343284346E+03  0.41800000000E+01 0.  1.
        -11    1    3    3    0    0 -0.40583943048E+02 -0.56109159286E+02 -0.11127279585E+03  0.13106078469E+03  0.00000000000E+00 0. -1.
         11    1    3    3    0    0  0.49864661679E+02 -0.48012034576E+01 -0.60086680060E+02  0.78230078356E+02  0.00000000000E+00 0.  1.
</event>
<event>
 8    1  0.5900800E-006  0.1142268E+03  0.7561462E-02  0.1252937E+00
          2   -1    0    0  501    0  0.00000000000E+00  0.00000000000E+00  0.62731750847E+03  0.62731750847E+03  0.00000000000E+00 0. -1.
         -2   -1    0    0    0  501 -0.00000000000E+00 -0.00000000000E+00 -0.25271090035E+02  0.25271090035E+02  0.00000000000E+00 0.  1.
         23    2    1    2    0    0  0.34549496107E+02 -0.29638736178E+02  0.14618179779E+03  0.17768524624E+03  0.90170984032E+02 0.  0.
         23    2    1    2    0    0 -0.34549496107E+02  0.29638736178E+02  0.45586462065E+03  0.47490335227E+03  0.12509404173E+03 0.  0.
          5    1    4    4  502    0 -0.15946232790E+02  0.77496695725E+02  0.23089364534E+03  0.24410933626E+03  0.41800000000E+01 0.  1.
         -5    1    4    4    0  502 -0.18603263317E+02 -0.47857959547E+02  0.22497097530E+03  0.23079401601E+03  0.41800000000E+01 0.  1.
        -11    1    3    3    0    0 -0.28819935503E+02 -0.30350231545E+01  0.65984977570E+02  0.72068143537E+02  0.00000000000E+00 0.  1.
         11    1    3    3    0    0  0.63369431610E+02 -0.26603713024E+02  0.80196820220E+02  0.10561710270E+03  0.00000000000E+00 0. -1.
</event>
<event>
 8    1  0.5900800E-006  0.3469905E+03  0.7561462E-02  0.1063857E+00
          2   -1    0    0  501    0  0.00000000000E+00  0.00000000000E+00  0.30182926915E+04  0.30182926915E+04  0.00000000000E+00 0. -1.
         -2   -1    0    0    0  501 -0.00000000000E+00 -0.00000000000E+00 -0.40647032711E+02  0.40647032711E+02  0.00000000000E+00 0.  1.
         23    2    1    2    0    0  0.13454874026E+03 -0.30452461883E+03  0.15234581792E+04  0.15618935478E+04  0.88022859960E+02 0.  0.
         23    2    1    2    0    0 -0.13454874026E+03  0.30452461883E+03  0.14541874795E+04  0.14970461764E+04  0.12508965409E+03 0.  0.
          5    1    4    4  502    0 -0.96106709673E+02  0.30087968093E+03  0.13258419276E+04  0.13629524465E+04  0.41800000000E+01 0. -1.
         -5    1    4    4    0  502 -0.38442030583E+02  0.36449379026E+01  0.12834555188E+03  0.13409372981E+03  0.41800000000E+01 0. -1.
        -11    1    3    3    0    0  0.88975407602E+02 -0.26285437213E+03  0.13363297114E+04  0.13648392366E+04  0.00000000000E+00 0.  1.
         11    1    3    3    0    0  0.45573332654E+02 -0.41670246705E+02  0.18712846778E+03  0.19705431120E+03  0.00000000000E+00 0. -1.
</event>
<event>
 8    1  0.5900800E-006  0.8814297E+02  0.7561462E-02  0.1307412E+00
          1   -1    0    0  501    0  0.00000000000E+00  0.00000000000E+00  0.80604087069E+03  0.80604087069E+03  0.00000000000E+00 0. -1.
         -1   -1    0    0    0  501 -0.00000000000E+00 -0.00000000000E+00 -0.22020898885E+02  0.22020898885E+02  0.00000000000E+00 0.  1.
         23    2    1    2    0    0  0.63266075360E+02 -0.37600656237E+02  0.29342486415E+03  0.31644878983E+03  0.92872385787E+02 0.  0.
         23    2    1    2    0    0 -0.63266075360E+02  0.37600656237E+02  0.49059510765E+03  0.51161297974E+03  0.12509146953E+03 0.  0.
          5    1    4    4  502    0 -0.73182818647E+02  0.11635836008E+02  0.12823759108E+03  0.14816703342E+03  0.41800000000E+01 0.  1.
         -5    1    4    4    0  502  0.99167432871E+01  0.25964820230E+02  0.36235751657E+03  0.36344594633E+03  0.41800000000E+01 0.  1.
        -11    1    3    3    0    0  0.97722291239E+01 -0.28890097840E+01 -0.49547028704E+01  0.11331015847E+02  0.00000000000E+00 0.  1.
         11    1    3    3    0    0  0.53493846236E+02 -0.34711646453E+02  0.29837956702E+03  0.30511777398E+03  0.00000000000E+00 0. -1.
</event>
<event>
 8    1  0.5900800E-006  0.1106233E+03  0.7561462E-02  0.1259420E+00
         -1   -1    0    0    0  501 -0.00000000000E+00  0.00000000000E+00  0.44372090784E+03  0.44372090784E+03  0.00000000000E+00 0.  1.
          1   -1    0    0  501    0  0.00000000000E+00 -0.00000000000E+00 -0.37698617942E+02  0.37698617942E+02  0.00000000000E+00 0. -1.
         23    2    1    2    0    0 -0.36568125250E+01 -0.56361729456E+02  0.24752459255E+03  0.27175626355E+03  0.96917625017E+02 0.  0.
         23    2    1    2    0    0  0.36568125250E+01  0.56361729456E+02  0.15849769735E+03  0.20966326223E+03  0.12508855519E+03 0.  0.
          5    1    4    4  502    0  0.48693740472E+02  0.15823651723E+02  0.13516458928E+03  0.14459739593E+03  0.41800000000E+01 0. -1.
         -5    1    4    4    0  502 -0.45036927947E+02  0.40538077733E+02  0.23333108073E+02  0.65065866301E+02  0.41800000000E+01 0. -1.
        -11    1    3    3    0    0 -0.12715853652E+02  0.24588622459E+02  0.38481630450E+02  0.47403894045E+02  0.00000000000E+00 0. -1.
         11    1    3    3    0    0  0.90590411267E+01 -0.80950351914E+02  0.20904296210E+03  0.22435236951E+03  0.00000000000E+00 0.  1.
</event>
<event>
 8    1  0.5900800E-006  0.1071998E+03  0.7561462E-02  0.1265845E+00
          2   -1    0    0  501    0  0.00000000000E+00  0.00000000000E+00  0.10948815166E+04  0.10948815166E+04  0.00000000000E+00 0. -1.
         -2   -1    0    0    0  501 -0.00000000000E+00 -0.00000000000E+00 -0.14570715498E+02  0.14570715498E+02  0.00000000000E+00 0.  1.
         23    2    1    2    0    0 -0.12794128573E+02 -0.50044143974E+02  0.31206837269E+03  0.32938056140E+03  0.91851940221E+02 0.  0.
         23    2    1    2    0    0  0.12794128573E+02  0.50044143974E+02  0.76824242841E+03  0.78007167069E+03  0.12508907444E+03 0.  0.
          5    1    4    4  502    0  0.60300342244E+01 -0.36811661892E+02  0.39475142897E+03  0.39653199473E+03  0.41800000000E+01 0.  1.
         -5    1    4    4    0  502  0.67640943491E+01  0.86855805866E+02  0.37349099943E+03  0.38353967597E+03  0.41800000000E+01 0.  1.
        -11    1    3    3    0    0  0.22106590494E+02 -0.50082051676E+02  0.26605405038E+03  0.27162781699E+03  0.00000000000E+00 0.  1.
         11    1    3    3    0    0 -0.34900719067E+02  0.37907701995E-01  0.46014322318E+02  0.57752744409E+02  0.00000000000E+00 0. -1.
</event>
<event>
 8    1  0.5900800E-006  0.9128636E+02  0.7561462E-02  0.1299766E+00
         -2   -1    0    0    0  501 -0.00000000000E+00  0.00000000000E+00  0.42697718271E+02  0.42697718271E+02  0.00000000000E+00 0.  1.
          2   -1    0    0  501    0  0.00000000000E+00 -0.00000000000E+00 -0.27878276705E+03  0.27878276705E+03  0.00000000000E+00 0. -1.
         23    2    1    2    0    0  0.13741272647E+02  0.27282064309E+01 -0.97333538732E+02  0.13413600742E+03  0.91227106931E+02 0.  0.
         23    2    1    2    0    0 -0.13741272647E+02 -0.27282064309E+01 -0.13875151004E+03  0.18734447790E+03  0.12509878567E+03 0.  0.
          5    1    4    4  502    0 -0.30264467411E+02  0.52059285928E+02 -0.37783280768E+02  0.71212049153E+02  0.41800000000E+01 0.  1.
         -5    1    4    4    0  502  0.16523194764E+02 -0.54787492359E+02 -0.10096822928E+03  0.11613242875E+03  0.41800000000E+01 0.  1.
        -11    1    3    3    0    0 -0.19886245398E+02  0.18975106953E+02 -0.92476354552E+02  0.96474833979E+02  0.00000000000E+00 0. -1.
         11    1    3    3    0    0  0.33627518045E+02 -0.16246900522E+02 -0.48571841796E+01  0.37661173436E+02  0.00000000000E+00 0.  1.
</event>
<event>
 7    1  0.5900800E-006  0.1251384E+03  0.7561462E-02  0.1234853E+00
         -2   -1    0    0    0  501 -0.00000000000E+00  0.00000000000E+00  0.74624676375E+02  0.74624676375E+02  0.00000000000E+00 0.  1.
          2   -1    0    0  501    0  0.00000000000E+00 -0.00000000000E+00 -0.37843830599E+03  0.37843830599E+03  0.00000000000E+00 0. -1.
         23    2    1    2    0    0  0.78047465233E+01 -0.31750149594E+02 -0.49309852969E+02  0.10921739715E+03  0.91804096713E+02 0.  0.
          5    1    1    2  502    0  0.37926349514E+02  0.78585495910E+02 -0.26353270272E+03  0.27763473478E+03  0.41800000000E+01 0. -1.
         -5    1    1    2    0  502 -0.45731096037E+02 -0.46835346316E+02  0.90289260700E+01  0.66210850434E+02  0.41800000000E+01 0.  1.
        -11    1    3    3    0    0  0.49899728169E+02 -0.17794995519E+02 -0.29609210451E+02  0.60690609492E+02  0.00000000000E+00 0.  1.
         11    1    3    3    0    0 -0.42094981646E+02 -0.13955154075E+02 -0.19700642518E+02  0.48526787661E+02  0.00000000000E+00 0. -1.
</event>
<event>
 8    1  0.5900800E-006  0.1183647E+03  0.7561462E-02  0.1245819E+00
         -2   -1    0    0    0  501 -0.00000000000E+00  0.00000000000E+00  0.19021148360E+03  0.19021148360E+03  0.00000000000E+00 0.  1.
          2   -1    0    0  501    0  0.00000000000E+00 -0.00000000000E+00 -0.76677377479E+02  0.76677377479E+02  0.00000000000E+00 0. -1.
         23    2    1    2    0    0 -0.26044524553E+02 -0.46354510668E+02  0.59966101521E+02  0.12079223315E+03  0.90375728704E+02 0.  0.
         23    2    1    2    0    0  0.26044524553E+02  0.46354510668E+02  0.53568004597E+02  0.14609662793E+03  0.12509050986E+03 0.  0.
          5    1    4    4  502    0  0.73669548114E+02  0.41589850008E+02  0.18724003252E+02  0.86746634752E+02  0.41800000000E+01 0.  1.
         -5    1    4    4    0  502 -0.47625023561E+02  0.47646606602E+01  0.34844001346E+02  0.59349993178E+02  0.41800000000E+01 0.  1.
        -11    1    3    3    0    0 -0.32548711087E+02 -0.71206852007E+02  0.38169371572E+02  0.87101867330E+02  0.00000000000E+00 0.  1.
         11    1    3    3    0    0  0.65041865340E+01  0.24852341339E+02  0.21796729949E+02  0.33690365818E+02  0.00000000000E+00 0. -1.
</event>
<event>
 8    1  0.5900800E-006  0.8876111E+02  0.7561462E-02  0.1305880E+00
         -1   -1    0    0    0  501 -0.00000000000E+00  0.00000000000E+00  0.28441444813E+02  0.28441444813E+02  0.00000000000E+00 0.  1.
          1   -1    0    0  501    0  0.00000000000E+00 -0.00000000000E+00 -0.43661189253E+03  0.43661189253E+03  0.00000000000E+00 0. -1.
         23    2    1    2    0    0 -0.28660196752E+01 -0.21977513302E+02 -0.15756559765E+03  0.18407784577E+03  0.92555445995E+02 0.  0.
         23    2    1    2    0    0  0.28660196752E+01  0.21977513302E+02 -0.25060485007E+03  0.28097549157E+03  0.12511279241E+03 0.  0.
          5    1    4    4  502    0 -0.10020233173E+02 -0.48754254283E+02 -0.65626735313E+02  0.82472560112E+02  0.41800000000E+01 0.  1.
         -5    1    4    4    0  502  0.12886252849E+02  0.70731767585E+02 -0.18497811476E+03  0.19850293146E+03  0.41800000000E+01 0.  1.
        -11    1    3    3    0    0  0.98366237001E+01  0.14165582423E+02  0.42723647709E+01  0.17767273059E+02  0.00000000000E+00 0.  1.
         11    1    3    3    0    0 -0.12702643375E+02 -0.36143095726E+02 -0.16183796242E+03  0.16631057272E+03  0.00000000000E+00 0. -1.
</event>
<event>
 8    1  0.5900800E-006  0.8410354E+02  0.7561462E-02  0.1317794E+00
          1   -1    0    0  501    0  0.00000000000E+00  0.00000000000E+00  0.49850166305E+02  0.49850166305E+02  0.00000000000E+00 0. -1.
         -1   -1    0    0    0  501 -0.00000000000E+00 -0.00000000000E+00 -0.27031142071E+03  0.27031142071E+03  0.00000000000E+00 0.  1.
         23    2    1    2    0    0  0.13105686208E+02 -0.44219110666E+02 -0.90295621830E+02  0.13383467163E+03  0.87357491089E+02 0.  0.
         23    2    1    2    0    0 -0.13105686208E+02  0.44219110666E+02 -0.13016563258E+03  0.18632691539E+03  0.12509012245E+03 0.  0.
          5    1    4    4  502    0 -0.40224215786E+02  0.68263511947E+01  0.69337791802E+01  0.41594907140E+02  0.41800000000E+01 0.  1.
         -5    1    4    4    0  502  0.27118529578E+02  0.37392759472E+02 -0.13709941176E+03  0.14473200825E+03  0.41800000000E+01 0.  1.
        -11    1    3    3    0    0  0.34251290238E+02 -0.28693254161E+01 -0.78830042619E+02  0.85997439094E+02  0.00000000000E+00 0.  1.
         11    1    3    3    0    0 -0.21145604030E+02 -0.41349785250E+02 -0.11465579211E+02  0.47837232536E+02  0.00000000000E+00 0. -1.
</event>
<event>
 7    1  0.5900800E-006  0.9493166E+02  0.7561462E-02  0.1291330E+00
          2   -1    0    0  501    0  0.00000000000E+00  0.00000000000E+00  0.11488385007E+04  0.11488385007E+04  0.00000000000E+00 0. -1.
         -2   -1    0    0    0  501 -0.00000000000E+00 -0.00000000000E+00 -0.75781592082E+02  0.75781592082E+02  0.00000000000E+00 0.  1.
         23    2    1    2    0    0 -0.21485437419E+02 -0.47851103586E+02 -0.48685668394E+01  0.10674683154E+03  0.92843044789E+02 0.  0.
          5    1    1    2  502    0 -0.20353178561E+02  0.35144288450E+02  0.10728832877E+04  0.10736598131E+04  0.41800000000E+01 0. -1.
         -5    1    1    2    0  502  0.41838615980E+02  0.12706815136E+02  0.50421877700E+01  0.44213448130E+02  0.41800000000E+01 0.  1.
        -11    1    3    3    0    0 -0.12574202297E+02  0.26972214696E+02  0.67208342006E+01  0.30508696160E+02  0.00000000000E+00 0. -1.
         11    1    3    3    0    0 -0.89112351217E+01 -0.74823318282E+02 -0.11589401040E+02  0.76238135382E+02  0.00000000000E+00 0.  1.
</event>
<event>
 8    1  0.5900800E-006  0.8708786E+02  0.7561462E-02  0.1310061E+00
          1   -1    0    0  501    0  0.00000000000E+00  0.00000000000E+00  0.57716048381E+03  0.57716048381E+03  0.00000000000E+00 0. -1.
         -1   -1    0    0    0  501 -0.00000000000E+00 -0.00000000000E+00 -0.27784049716E+02  0.27784049716E+02  0.00000000000E+00 0.  1.
         23    2    1    2    0    0  0.41426800830E+02 -0.10779465598E+02  0.12241911605E+03  0.15798314926E+03  0.90221165865E+02 0.  0.
         23    2    1    2    0    0 -0.41426800830E+02  0.10779465598E+02  0.42695731804E+03  0.44696138426E+03  0.12509816501E+03 0.  0.
          5    1    4    4  502    0  0.23311394093E+02 -0.39450426331E+02  0.21064285798E+03  0.21560993309E+03  0.41800000000E+01 0. -1.
         -5    1    4    4    0  502 -0.64738194924E+02  0.50229891929E+02  0.21631446006E+03  0.23135145117E+03  0.41800000000E+01 0. -1.
        -11    1    3    3    0    0  0.19663667357E+02 -0.13969481868E+02 -0.82371417960E+01  0.25488364846E+02  0.00000000000E+00 0.  1.
         11    1    3    3    0    0  0.21763133474E+02  0.31900162695E+01  0.13065625785E+03  0.13249478441E+03  0.00000000000E+00 0. -1.
</event>
<event>
 8    1  0.5900800E-006  0.1177792E+03  0.7561462E-02  0.1246806E+00
         -2   -1    0    0    0  501 -0.00000000000E+00  0.00000000000E+00  0.19093133600E+02  0.19093133600E+02  0.00000000000E+00 0.  1.
          2   -1    0    0  501    0  0.00000000000E+00 -0.00000000000E+00 -0.73273619254E+03  0.73273619254E+03  0.00000000000E+00 0. -1.
         23    2    1    2    0    0  0.31014302427E+02 -0.44538733977E+02 -0.29479066195E+03  0.31133993616E+03  0.84175030107E+02 0.  0.
         23    2    1    2    0    0 -0.31014302427E+02  0.44538733977E+02 -0.41885239699E+03  0.44048938998E+03  0.12509191199E+03 0.  0.
          5    1    4    4  502    0  0.31615916934E+02  0.62727280149E+02 -0.19583093559E+03  0.20809013819E+03  0.41800000000E+01 0. -1.
         -5    1    4    4    0  502 -0.62630219361E+02 -0.18188546172E+02 -0.22302146140E+03  0.23239925179E+03  0.41800000000E+01 0. -1.
        -11    1    3    3    0    0  0.52634768361E+02 -0.54732747796E+02 -0.21315175082E+03  0.22627364274E+03  0.00000000000E+00 0.  1.
         11    1    3    3    0    0 -0.21620465934E+02  0.10194013818E+02 -0.81638911132E+02  0.85066293417E+02  0.00000000000E+00 0. -1.
</event>
<event>
 8    1  0.5900800E-006  0.1975460E+03  0.7561462E-02  0.1151826E+00
         -2   -1    0    0    0  501 -0.00000000000E+00  0.00000000000E+00  0.25247938462E+03  0.25247938462E+03  0.00000000000E+00 0.  1.
          2   -1    0    0  501    0  0.00000000000E+00 -0.00000000000E+00 -0.17589043354E+03  0.17589043354E+03  0.00000000000E+00 0. -1.
         23    2    1    2    0    0 -0.88560875517E+01 -0.16630667057E+03  0.10447058807E+03  0.21822344517E+03  0.94715517668E+02 0.  0.
         23    2    1    2    0    0  0.88560875517E+01  0.16630667057E+03 -0.27881636984E+02  0.21014637300E+03  0.12509106060E+03 0.  0.
          5    1    4    4  502    0 -0.15004023800E+01  0.18418579720E+03 -0.13717645045E+02  0.18474930387E+03  0.41800000000E+01 0.  1.
         -5    1    4    4    0  502  0.10356489932E+02 -0.17879126626E+02 -0.14163991939E+02  0.25397069128E+02  0.41800000000E+01 0.  1.
        -11    1    3    3    0    0  0.47836791818E+01 -0.17403115880E+03  0.10345403921E+03  0.20251534768E+03  0.00000000000E+00 0.  1.
         11    1    3    3    0    0 -0.13639766734E+02  0.77244882283E+01  0.10165488557E+01  0.15708097482E+02  0.00000000000E+00 0. -1.
</event>
<event>
 8    1  0.5900800E-006  0.1558608E+03  0.7561462E-02  0.1193451E+00
          2   -1    0    0  501    0  0.00000000000E+00  0.00000000000E+00  0.56746593265E+03  0.56746593265E+03  0.00000000000E+00 0. -1.
         -2   -1    0    0    0  501 -0.00000000000E+00 -0.00000000000E+00 -0.73252714922E+02  0.73252714922E+02  0.00000000000E+00 0.  1.
         23    2    1    2    0    0  0.12188149989E+03  0.63609242960E+02  0.69811729098E+02  0.17739868018E+03  0.87723305939E+02 0.  0.
         23    2    1    2    0    0 -0.12188149989E+03 -0.63609242960E+02  0.42440148863E+03  0.46331996739E+03  0.12509009885E+03 0.  0.
          5    1    4    4  502    0 -0.79824182407E+02  0.56303543376E+01  0.96001588505E+02  0.12504950373E+03  0.41800000000E+01 0.  1.
         -5    1    4    4    0  502 -0.42057317478E+02 -0.69239597298E+02  0.32839990012E+03  0.33827046367E+03  0.41800000000E+01 0.  1.
        -11    1    3    3    0    0  0.94800233728E+02  0.75208127863E+02  0.24677399719E+02  0.12350028692E+03  0.00000000000E+00 0.  1.
         11    1    3    3    0    0  0.27081266157E+02 -0.11598884902E+02  0.45134329379E+02  0.53898393261E+02  0.00000000000E+00 0. -1.
</event>
<event>
 7    1  0.5900800E-006  0.1744100E+03  0.7561462E-02  0.1173325E+00
          2   -1    0    0  501    0  0.00000000000E+00  0.00000000000E+00  0.12156601445E+04  0.12156601445E+04  0.00000000000E+00 0. -1.
         -2   -1    0    0    0  501 -0.00000000000E+00 -0.00000000000E+00 -0.30072903193E+02  0.30072903193E+02  0.00000000000E+00 0.  1.
         23    2    1    2    0    0 -0.18293717567E+02 -0.13267626258E+03  0.43800697928E+03  0.47323795844E+03  0.11902268970E+03 0.  0.
          5    1    1    2  502    0 -0.22504930061E+02 -0.71252316091E+01  0.31757549958E+03  0.31847905918E+03  0.41800000000E+01 0. -1.
         -5    1    1    2    0  502  0.40798647628E+02  0.13980149419E+03  0.43000476242E+03  0.45401603004E+03  0.41800000000E+01 0.  1.
        -11    1    3    3    0    0  0.40452158509E+01  0.22255301057E+02  0.52861946659E+02  0.57498239981E+02  0.00000000000E+00 0.  1.
         11    1    3    3    0    0 -0.22338933418E+02 -0.15493156364E+03  0.38514503262E+03  0.41573971846E+03  0.00000000000E+00 0. -1.
</event>
<event>
 8    1  0.5900800E-006  0.1199632E+03  0.7561462E-02  0.1243158E+00
          1   -1    0    0  501    0  0.00000000000E+00  0.00000000000E+00  0.23436964943E+03  0.23436964943E+03  0.00000000000E+00 0. -1.
         -1   -1    0    0    0  501 -0.00000000000E+00 -0.00000000000E+00 -0.83966874678E+02  0.83966874678E+02  0.00000000000E+00 0.  1.
         23    2    1    2    0    0  0.49697982824E+02  0.58139510564E+02  0.16475088408E+02  0.11976497096E+03  0.90675948000E+02 0.  0.
         23    2    1    2    0    0 -0.49697982824E+02 -0.58139510564E+02  0.13392768635E+03  0.19857155315E+03  0.12507575451E+03 0.  0.
          5    1    4    4  502    0 -0.52732790544E+02  0.22545383696E+02  0.24471534606E+02  0.62492959047E+02  0.41800000000E+01 0. -1.
         -5    1    4    4    0  502  0.30348077196E+01 -0.80684894260E+02  0.10945615174E+03  0.13607859410E+03  0.41800000000E+01 0. -1.
        -11    1    3    3    0    0  0.71564347013E+01  0.58594664459E+02 -0.21414853746E+02  0.62794468082E+02  0.00000000000E+00 0.  1.
         11    1    3    3    0    0  0.42541548123E+02 -0.45515389517E+00  0.37889942154E+02  0.56970502878E+02  0.00000000000E+00 0. -1.
</event>
<event>
 8    1  0.5900800E-006  0.1069024E+03  0.7561462E-02  0.1266416E+00
          1   -1    0    0  501    0  0.00000000000E+00  0.00000000000E+00  0.43185021837E+02  0.43185021837E+02  0.00000000000E+00 0. -1.
         -1   -1    0    0    0  501 -0.00000000000E+00 -0.00000000000E+00 -0.39029340898E+03  0.39029340898E+03  0.00000000000E+00 0.  1.
         23    2    1    2    0    0 -0.54669026143E+02 -0.45351633134E+02 -0.14516913194E+03  0.18554097598E+03  0.91136731625E+02 0.  0.
         23    2    1    2    0    0  0.54669026143E+02  0.45351633134E+02 -0.20193925520E+03  0.24793745484E+03  0.12509214872E+03 0.  0.
          5    1    4    4  502    0  0.59317570489E+02 -0.30273597758E+02 -0.11082018134E+03  0.12935860962E+03  0.41800000000E+01 0.  1.
         -5    1    4    4    0  502 -0.46485443465E+01  0.75625230892E+02 -0.91119073862E+02  0.11857884522E+03  0.41800000000E+01 0.  1.
        -11    1    3    3    0    0 -0.31227279303E+02 -0.22790403730E+02 -0.14792141151E+03  0.15288979514E+03  0.00000000000E+00 0.  1.
         11    1    3    3    0    0 -0.23441746840E+02 -0.22561229404E+02  0.27522795732E+01  0.32651180836E+02  0.00000000000E+00 0. -1.
</event>
<event>
 8    1  0.5900800E-006  0.1138468E+03  0.7561462E-02  0.1253608E+00
         -2   -1    0    0    0  501 -0.00000000000E+00  0.00000000000E+00  0.11881490855E+02  0.11881490855E+02  0.00000000000E+00 0.  1.
          2   -1    0    0  501    0  0.00000000000E+00 -0.00000000000E+00 -0.11563072109E+04  0.11563072109E+04  0.00000000000E+00 0. -1.
         23    2    1    2    0    0  0.50443726518E+01 -0.34399126069E+02 -0.36047572544E+03  0.37356075482E+03  0.91630471692E+02 0.  0.
         23    2    1    2    0    0 -0.50443726518E+01  0.34399126069E+02 -0.78394999464E+03  0.79462794697E+03  0.12508890613E+03 0.  0.
          5    1    4    4  502    0 -0.97644832133E+01 -0.46999978243E+02 -0.28860858219E+03  0.29260336499E+03  0.41800000000E+01 0.  1.
         -5    1    4    4    0  502  0.47201105615E+01  0.81399104312E+02 -0.49534141244E+03  0.50202458198E+03  0.41800000000E+01 0.  1.
        -11    1    3    3    0    0  0.18138444161E+02  0.28409672822E+02 -0.11485702503E+03  0.11970066359E+03  0.00000000000E+00 0.  1.
         11    1    3    3    0    0 -0.13094071509E+02 -0.62808798891E+02 -0.24561870041E+03  0.25386009123E+03  0.00000000000E+00 0. -1.
</event>
<event>
 8    1  0.5900800E-006  0.1198132E+03  0.7561462E-02  0.1243406E+00
         -1   -1    0    0    0  501 -0.00000000000E+00  0.00000000000E+00  0.45041211666E+02  0.45041211666E+02  0.00000000000E+00 0.  1.
          1   -1    0    0  501    0  0.00000000000E+00 -0.00000000000E+00 -0.47796706139E+03  0.47796706139E+03  0.00000000000E+00 0. -1.
         23    2    1    2    0    0  0.28360388886E+02  0.51783850582E+02 -0.64401172270E+02  0.12937928509E+03  0.95423317816E+02 0.  0.
         23    2    1    2    0    0 -0.28360388886E+02 -0.51783850582E+02 -0.36852467745E+03  0.39362898796E+03  0.12508982146E+03 0.  0.
          5    1    4    4  502    0  0.28162860987E+02  0.23606586890E+02 -0.55430265667E+02  0.66636359710E+02  0.41800000000E+01 0. -1.
         -5    1    4    4    0  502 -0.56523249873E+02 -0.75390437472E+02 -0.31309441178E+03  0.32699262825E+03  0.41800000000E+01 0. -1.
        -11    1    3    3    0    0 -0.32232686775E+02  0.70216238197E+01 -0.48346347060E+01  0.33341010641E+02  0.00000000000E+00 0.  1.
         11    1    3    3    0    0  0.60593075661E+02  0.44762226762E+02 -0.59566537564E+02  0.96038274454E+02  0.00000000000E+00 0. -1.
</event>
<event>
 8    1  0.5900800E-006  0.1735818E+03  0.7561462E-02  0.1174163E+00
          2   -1    0    0  501    0  0.00000000000E+00  0.00000000000E+00  0.14352404772E+04  0.14352404772E+04  0.00000000000E+00 0. -1.
         -2   -1    0    0    0  501 -0.00000000000E+00 -0.00000000000E+00 -0.27358098999E+02  0.27358098999E+02  0.00000000000E+00 0.  1.
         23    2    1    2    0    0 -0.16424323546E+03  0.20270291297E+02  0.64345596586E+03  0.67052532773E+03  0.90453911013E+02 0.  0.
         23    2    1    2    0    0  0.16424323546E+03 -0.20270291297E+02  0.76442641229E+03  0.79207324842E+03  0.12508223676E+03 0.  0.
          5    1    4    4  502    0  0.78154576430E+02 -0.16424846614E+02  0.60966814156E+03  0.61489074528E+03  0.41800000000E+01 0.  1.
         -5    1    4    4    0  502  0.86088659031E+02 -0.38454446821E+01  0.15475827073E+03  0.17718250314E+03  0.41800000000E+01 0.  1.
        -11    1    3    3    0    0 -0.10702054694E+03  0.48044057739E+02  0.50038773691E+03  0.51395478031E+03  0.00000000000E+00 0.  1.
         11    1    3    3    0    0 -0.57222688523E+02 -0.27773766442E+02  0.14306822895E+03  0.15657054742E+03  0.00000000000E+00 0. -1.
</event>
<event>
 8    1  0.5900800E-006  0.9007864E+02  0.7561462E-02  0.1302661E+00
          1   -1    0    0  501    0  0.00000000000E+00  0.00000000000E+00  0.23590272218E+03  0.23590272218E+03  0.00000000000E+00 0. -1.
         -1   -1    0    0    0  501 -0.00000000000E+00 -0.00000000000E+00 -0.59108067209E+02  0.59108067209E+02  0.00000000000E+00 0.  1.
         23    2    1    2    0    0 -0.16426196955E+02 -0.41972540747E+02  0.54423126283E+02  0.11430657105E+03  0.89847656545E+02 0.  0.
         23    2    1    2    0    0  0.16426196955E+02  0.41972540747E+02  0.12237152869E+03  0.18070421835E+03  0.12509080450E+03 0.  0.
          5    1    4    4  502    0  0.74008862648E+01  0.60662457390E+02  0.14021815257E+03  0.15301408290E+03  0.41800000000E+01 0.  1.
         -5    1    4    4    0  502  0.90253106900E+01 -0.18689916643E+02 -0.17846623883E+02  0.27690135449E+02  0.41800000000E+01 0.  1.
        -11    1    3    3    0    0 -0.41529615448E+02  0.75485681196E+01  0.10456988766E+02  0.43486071954E+02  0.00000000000E+00 0. -1.
         11    1    3    3    0    0  0.25103418493E+02 -0.49521108867E+02  0.43966137517E+02  0.70820499091E+02  0.00000000000E+00 0.  1.
</event>
<event>
 8    1  0.5900800E-006  0.1132223E+03  0.7561462E-02  0.1254716E+00
          2   -1    0    0  501    0  0.00000000000E+00  0.00000000000E+00  0.50692087665E+03  0.50692087665E+03  0.00000000000E+00 0. -1.
         -2   -1    0    0    0  501 -0.00000000000E+00 -0.00000000000E+00 -0.41445360403E+02  0.41445360403E+02  0.00000000000E+00 0.  1.
         23    2    1    2    0    0  0.51018793167E+02  0.29275210438E+02  0.69158299393E+02  0.12863407859E+03  0.91125740585E+02 0.  0.
         23    2    1    2    0    0 -0.51018793167E+02 -0.29275210438E+02  0.39631721686E+03  0.41973215847E+03  0.12509113986E+03 0.  0.
          5    1    4    4  502    0 -0.85066505899E+02 -0.39808872253E+02  0.34157643995E+03  0.35427813010E+03  0.41800000000E+01 0. -1.
         -5    1    4    4    0  502  0.34047712732E+02  0.10533661815E+02  0.54740776906E+02  0.65454028369E+02  0.41800000000E+01 0. -1.
        -11    1    3    3    0    0  0.69786849336E+02  0.11558477526E+02  0.20655024742E+02  0.73691470266E+02  0.00000000000E+00 0.  1.
         11    1    3    3    0    0 -0.18768056169E+02  0.17716732912E+02  0.48503274652E+02  0.54942608323E+02  0.00000000000E+00 0. -1.
</event>
<event>
 8    1  0.5900800E-006  0.1183364E+03  0.7561462E-02  0.1245867E+00
          1   -1    0    0  501    0  0.00000000000E+00  0.00000000000E+00  0.87496604479E+03  0.87496604479E+03  0.00000000000E+00 0. -1.
         -1   -1    0    0    0  501 -0.00000000000E+00 -0.00000000000E+00 -0.42773629815E+02  0.42773629815E+02  0.00000000000E+00 0.  1.
         23    2    1    2    0    0 -0.42108224180E+02  0.85718696159E+02  0.89021254309E+02  0.16026943629E+03  0.92955425200E+02 0.  0.
         23    2    1    2    0    0  0.42108224180E+02 -0.85718696159E+02  0.74317116066E+03  0.75747023832E+03  0.11107200582E+03 0.  0.
          5    1    4    4  502    0  0.25620451317E+02 -0.83688871934E+02  0.73152993584E+03  0.73675895261E+03  0.41800000000E+01 0. -1.
         -5    1    4    4    0  502  0.16487772864E+02 -0.20298242256E+01  0.11641224820E+02  0.20711285708E+02  0.41800000000E+01 0.  1.
        -11    1    3    3    0    0 -0.16773067732E+02  0.10096670477E+03  0.59033377859E+02  0.11815477550E+03  0.00000000000E+00 0.  1.
         11    1    3    3    0    0 -0.25335156449E+02 -0.15248008610E+02  0.29987876449E+02  0.42114660782E+02  0.00000000000E+00 0. -1.
</event>
<event>
 8    1  0.5900800E-006  0.2039447E+03  0.7561462E-02  0.1146453E+00
         -1   -1    0    0    0  501 -0.00000000000E+00  0.00000000000E+00  0.49224925491E+02  0.49224925491E+02  0.00000000000E+00 0.  1.
          1   -1    0    0  501    0  0.00000000000E+00 -0.00000000000E+00 -0.14046371319E+04  0.14046371319E+04  0.00000000000E+00 0. -1.
         23    2    1    2    0    0  0.31358698365E+01  0.19121999293E+03 -0.26089400954E+03  0.33635573174E+03  0.92166016973E+02 0.  0.
         23    2    1    2    0    0 -0.31358698365E+01 -0.19121999293E+03 -0.10945181969E+04  0.11175063257E+04  0.11947964351E+03 0.  0.
          5    1    4    4  502    0  0.17709851290E+02 -0.12589205656E+03 -0.93785451724E+03  0.94644123782E+03  0.41800000000E+01 0. -1.
         -5    1    4    4    0  502 -0.20845721126E+02 -0.65327936374E+02 -0.15666367965E+03  0.17106508785E+03  0.41800000000E+01 0.  1.
        -11    1    3    3    0    0  0.43292707076E+02  0.14206943053E+03 -0.19091766804E+03  0.24188331391E+03  0.00000000000E+00 0. -1.
         11    1    3    3    0    0 -0.40156837240E+02  0.49150562402E+02 -0.69976341498E+02  0.94472417832E+02  0.00000000000E+00 0.  1.
</event>
<event>
 8    1  0.5900800E-006  0.1749347E+03  0.7561462E-02  0.1172797E+00
         -2   -1    0    0    0  501 -0.00000000000E+00  0.00000000000E+00  0.18693935924E+03  0.18693935924E+03  0.00000000000E+00 0.  1.
          2   -1    0    0  501    0  0.00000000000E+00 -0.00000000000E+00 -0.24746310816E+03  0.24746310816E+03  0.00000000000E+00 0. -1.
         23    2    1    2    0    0 -0.29947350040E+02  0.15142674175E+03  0.75226855339E+02  0.19376969442E+03  0.89781472582E+02 0.  0.
         23    2    1    2    0    0  0.29947350040E+02 -0.15142674175E+03 -0.13575060426E+03  0.24063277298E+03  0.12509597509E+03 0.  0.
          5    1    4    4  502    0  0.55286078966E+02 -0.10831734071E+03 -0.32677232564E+02  0.12599393142E+03  0.41800000000E+01 0.  1.
         -5    1    4    4    0  502 -0.25338728927E+02 -0.43109401033E+02 -0.10307337169E+03  0.11463884156E+03  0.41800000000E+01 0.  1.
        -11    1    3    3    0    0 -0.61756736958E+02  0.98644020344E+02  0.41791155518E+02  0.12365693668E+03  0.00000000000E+00 0.  1.
         11    1    3    3    0    0  0.31809386919E+02  0.52782721403E+02  0.33435699821E+02  0.70112757736E+02  0.00000000000E+00 0. -1.
</event>
<event>
 8    1  0.5900800E-006  0.1231327E+03  0.7561462E-02  0.1238017E+00
          2   -1    0    0  501    0  0.00000000000E+00  0.00000000000E+00  0.24486804783E+03  0.24486804783E+03  0.00000000000E+00 0. -1.
         -2   -1    0    0    0  501 -0.00000000000E+00 -0.00000000000E+00 -0.88577579948E+02  0.88577579948E+02  0.00000000000E+00 0.  1.
         23    2    1    2    0    0  0.46664436836E+02 -0.32012830996E+02 -0.18820678700E+02  0.11092843897E+03  0.93533467876E+02 0.  0.
         23    2    1    2    0    0 -0.46664436836E+02  0.32012830996E+02  0.17511114659E+03  0.22251718881E+03  0.12509034592E+03 0.  0.
          5    1    4    4  502    0 -0.33289829106E+02 -0.46573691641E+02  0.76739252431E+02  0.95831658331E+02  0.41800000000E+01 0.  1.
         -5    1    4    4    0  502 -0.13374607730E+02  0.78586522636E+02  0.98371894155E+02  0.12668553047E+03  0.41800000000E+01 0.  1.
        -11    1    3    3    0    0  0.45773630359E+02  0.24907711568E+02 -0.50260837054E+01  0.52353422517E+02  0.00000000000E+00 0. -1.
         11    1    3    3    0    0  0.89080647713E+00 -0.56920542564E+02 -0.13794594995E+02  0.58575016458E+02  0.00000000000E+00 0.  1.
</event>
<event>
 8    1  0.5900800E-006  0.1123020E+03  0.7561462E-02  0.1256365E+00
          2   -1    0    0  501    0  0.00000000000E+00  0.00000000000E+00  0.11273531778E+04  0.11273531778E+04  0.00000000000E+00 0. -1.
         -2   -1    0    0    0  501 -0.00000000000E+00 -0.00000000000E+00 -0.13032860067E+02  0.13032860067E+02  0.00000000000E+00 0.  1.
         23    2    1    2    0    0  0.27776740880E+01  0.33624034865E+02  0.29141532996E+03  0.30734311913E+03  0.91643914975E+02 0.  0.
         23    2    1    2    0    0 -0.27776740880E+01 -0.33624034865E+02  0.82290498775E+03  0.83304291871E+03  0.12509833871E+03 0.  0.
          5    1    4    4  502    0  0.60660257277E+02 -0.22846758571E+02  0.43166608146E+03  0.43652573747E+03  0.41800000000E+01 0.  1.
         -5    1    4    4    0  502 -0.63437931365E+02 -0.10777276294E+02  0.39123890629E+03  0.39651718124E+03  0.41800000000E+01 0.  1.
        -11    1    3    3    0    0 -0.23044196165E+02  0.56279836803E+02  0.21737605633E+03  0.22572284969E+03  0.00000000000E+00 0.  1.
         11    1    3    3    0    0  0.25821870253E+02 -0.22655801938E+02  0.74039273629E+02  0.81620269446E+02  0.00000000000E+00 0. -1.
</event>
<event>
 8    1  0.5900800E-006  0.1470033E+03  0.7561462E-02  0.1204204E+00
          1   -1    0    0  501    0  0.00000000000E+00  0.00000000000E+00  0.76519550340E+03  0.76519550340E+03  0.00000000000E+00 0. -1.
         -1   -1    0    0    0  501 -0.00000000000E+00 -0.00000000000E+00 -0.45101023908E+02  0.45101023908E+02  0.00000000000E+00 0.  1.
         23    2    1    2    0    0  0.11652111188E+03 -0.54427690079E+02  0.16809352910E+03  0.22987236586E+03  0.89701321613E+02 0.  0.
         23    2    1    2    0    0 -0.11652111188E+03  0.54427690079E+02  0.55200095039E+03  0.58042416145E+03  0.12509042728E+03 0.  0.
          5    1    4    4  502    0 -0.12139236725E+03  0.48025111072E+02  0.55554289308E+03  0.57069071885E+03  0.41800000000E+01 0. -1.
         -5    1    4    4    0  502  0.48712553725E+01  0.64025790065E+01 -0.35419426927E+01  0.97334426015E+01  0.41800000000E+01 0. -1.
        -11    1    3    3    0    0  0.92628214710E+02  0.24221139951E+01  0.80468933497E+02  0.12272368172E+03  0.00000000000E+00 0.  1.
         11    1    3    3    0    0  0.23892897172E+02 -0.56849804074E+02  0.87624595600E+02  0.10714868414E+03  0.00000000000E+00 0. -1.
</event>
<event>
 8    1  0.5900800E-006  0.8698447E+02  0.7561462E-02  0.1310323E+00
         -1   -1    0    0    0  501 -0.00000000000E+00  0.00000000000E+00  0.58495721476E+02  0.58495721476E+02  0.00000000000E+00 0.  1.
          1   -1    0    0  501    0  0.00000000000E+00 -0.00000000000E+00 -0.28427740160E+03  0.28427740160E+03  0.00000000000E+00 0. -1.
         23    2    1    2    0    0 -0.67553308239E+01 -0.40642544595E+01 -0.21286403793E+01  0.89875843960E+02  0.89504098001E+02 0.  0.
         23    2    1    2    0    0  0.67553308239E+01  0.40642544595E+01 -0.22365303974E+03  0.25289727911E+03  0.11778878953E+03 0.  0.
          5    1    4    4  502    0 -0.32350270934E+02  0.24133281643E+02 -0.19740379946E+03  0.20153086054E+03  0.41800000000E+01 0. -1.
         -5    1    4    4    0  502  0.39105601758E+02 -0.20069027184E+02 -0.26249240286E+02  0.51366418569E+02  0.41800000000E+01 0.  1.
        -11    1    3    3    0    0  0.31170407028E+02 -0.30025390041E+02 -0.62616758861E+01  0.43730160145E+02  0.00000000000E+00 0.  1.
         11    1    3    3    0    0 -0.37925737852E+02  0.25961135582E+02  0.41330355067E+01  0.46145683815E+02  0.00000000000E+00 0. -1.
</event>
<event>
 7    1  0.5900800E-006  0.8621616E+02  0.7561462E-02  0.1312282E+00
          2   -1    0    0  501    0  0.00000000000E+00  0.00000000000E+00  0.16138370124E+03  0.16138370124E+03  0.00000000000E+00 0. -1.
         -2   -1    0    0    0  501 -0.00000000000E+00 -0.00000000000E+00 -0.12057009815E+03  0.12057009815E+03  0.00000000000E+00 0.  1.
         23    2    1    2    0    0  0.26121710531E+02  0.90539388016E+01 -0.25667638892E+02  0.99409318134E+02  0.91973187814E+02 0.  0.
          5    1    1    2  502    0 -0.49674538694E+02  0.39899329809E+02  0.99947437579E+02  0.11860218797E+03  0.41800000000E+01 0. -1.
         -5    1    1    2    0  502  0.23552828163E+02 -0.48953268610E+02 -0.33466195600E+02  0.63942293281E+02  0.41800000000E+01 0.  1.
        -11    1    3    3    0    0  0.39713175105E+02  0.75095760627E+01 -0.54292147442E+02  0.67684320809E+02  0.00000000000E+00 0.  1.
         11    1    3    3    0    0 -0.13591464574E+02  0.15443627388E+01  0.28624508550E+02  0.31724997325E+02  0.00000000000E+00 0. -1.
</event>
<event>
 8    1  0.5900800E-006  0.1076642E+03  0.7561462E-02  0.1264957E+00
          2   -1    0    0  501    0  0.00000000000E+00  0.00000000000E+00  0.10982592399E+04  0.10982592399E+04  0.00000000000E+00 0. -1.
         -2   -1    0    0    0  501 -0.00000000000E+00 -0.00000000000E+00 -0.14685652260E+02  0.14685652260E+02  0.00000000000E+00 0.  1.
         23    2    1    2    0    0  0.62537854871E+02  0.15297985890E+02  0.40306721398E+03  0.41804805163E+03  0.90310480125E+02 0.  0.
         23    2    1    2    0    0 -0.62537854871E+02 -0.15297985890E+02  0.68050637370E+03  0.69489684057E+03  0.12509069800E+03 0.  0.
          5    1    4    4  502    0  0.13980462908E+01  0.29010396031E+02  0.46179417850E+03  0.46272550536E+03  0.41800000000E+01 0. -1.
         -5    1    4    4    0  502 -0.63935901162E+02 -0.44308381921E+02  0.21871219520E+03  0.23217133521E+03  0.41800000000E+01 0. -1.
        -11    1    3    3    0    0  0.76730259199E+02 -0.11667498770E+02  0.24257591593E+03  0.25468949368E+03  0.00000000000E+00 0.  1.
         11    1    3    3    0    0 -0.14192404327E+02  0.26965484660E+02  0.16049129806E+03  0.16335855795E+03  0.00000000000E+00 0. -1.
</event>
<event>
 7    1  0.5900800E-006  0.1080109E+03  0.7561462E-02  0.1264298E+00
         -1   -1    0    0    0  501 -0.00000000000E+00  0.00000000000E+00  0.16282848779E+03  0.16282848779E+03  0.00000000000E+00 0.  1.
          1   -1    0    0  501    0  0.00000000000E+00 -0.00000000000E+00 -0.12907645771E+03  0.12907645771E+03  0.00000000000E+00 0. -1.
         23    2    1    2    0    0 -0.37633277065E+02  0.14156631339E+02  0.30888708717E+02  0.10502573199E+03  0.91976183336E+02 0.  0.
          5    1    1    2  502    0 -0.38258558613E+02 -0.18392086021E+02 -0.69696386066E+02  0.81713185998E+02  0.41800000000E+01 0. -1.
         -5    1    1    2    0  502  0.75891835678E+02  0.42354546820E+01  0.72559707431E+02  0.10516602751E+03  0.41800000000E+01 0.  1.
        -11    1    3    3    0    0 -0.13280824691E+02 -0.37689720609E+02  0.25696649791E+02  0.47510137387E+02  0.00000000000E+00 0.  1.
         11    1    3    3    0    0 -0.24352452374E+02  0.51846351949E+02  0.51920589261E+01  0.57515594606E+02  0.00000000000E+00 0. -1.
</event>
<event>
 8    1  0.5900800E-006  0.1004656E+03  0.7561462E-02  0.1279320E+00
         -1   -1    0    0    0  501 -0.00000000000E+00  0.00000000000E+00  0.72910827775E+01  0.72910827775E+01  0.00000000000E+00 0. -1.
          1   -1    0    0  501    0  0.00000000000E+00 -0.00000000000E+00 -0.22550061924E+04  0.22550061924E+04  0.00000000000E+00 0.  1.
         23    2    1    2    0    0 -0.39995332166E+02 -0.17592074274E+02 -0.53553305897E+03  0.54499581777E+03  0.91190330981E+02 0.  0.
         23    2    1    2    0    0  0.39995332166E+02  0.17592074274E+02 -0.17121820506E+04  0.17173014574E+04  0.12509122018E+03 0.  0.
          5    1    4    4  502    0  0.28045750405E+01 -0.34999388104E+02 -0.16373147070E+03  0.16750608857E+03  0.41800000000E+01 0.  1.
         -5    1    4    4    0  502  0.37190757125E+02  0.52591462378E+02 -0.15484505799E+04  0.15497953688E+04  0.41800000000E+01 0.  1.
        -11    1    3    3    0    0 -0.61849898827E+02 -0.36763998645E+02 -0.37055658543E+03  0.37747739613E+03  0.00000000000E+00 0. -1.
         11    1    3    3    0    0  0.21854566661E+02  0.19171924371E+02 -0.16497647354E+03  0.16751842164E+03  0.00000000000E+00 0.  1.
</event>
<event>
 8    1  0.5900800E-006  0.1028637E+03  0.7561462E-02  0.1274387E+00
          1   -1    0    0  501    0  0.00000000000E+00  0.00000000000E+00  0.38138646927E+02  0.38138646927E+02  0.00000000000E+00 0. -1.
         -1   -1    0    0    0  501 -0.00000000000E+00 -0.00000000000E+00 -0.59765589917E+03  0.59765589917E+03  0.00000000000E+00 0.  1.
         23    2    1    2    0    0 -0.72904561434E+02 -0.27118159197E+02 -0.39915911332E+03  0.41804995240E+03  0.96888055626E+02 0.  0.
         23    2    1    2    0    0  0.72904561434E+02  0.27118159197E+02 -0.16035813892E+03  0.21774459369E+03  0.12508999052E+03 0.  0.
          5    1    4    4  502    0  0.10012536151E+02 -0.55864892992E+01 -0.14446223759E+03  0.14497679204E+03  0.41800000000E+01 0.  1.
         -5    1    4    4    0  502  0.62892025283E+02  0.32704648496E+02 -0.15895901335E+02  0.72767801648E+02  0.41800000000E+01 0.  1.
        -11    1    3    3    0    0 -0.52712160955E+02  0.30886429498E+02 -0.16425198947E+03  0.17524628237E+03  0.00000000000E+00 0. -1.
         11    1    3    3    0    0 -0.20192400479E+02 -0.58004588695E+02 -0.23490712385E+03  0.24280367004E+03  0.00000000000E+00 0.  1.
</event>
<event>
 8    1  0.5900800E-006  0.9228543E+02  0.7561462E-02  0.1297410E+00
         -2   -1    0    0    0  501 -0.00000000000E+00  0.00000000000E+00  0.32350967899E+02  0.32350967899E+02  0.00000000000E+00 0.  1.
          2   -1    0    0  501    0  0.00000000000E+00 -0.00000000000E+00 -0.41044615080E+03  0.41044615080E+03  0.00000000000E+00 0. -1.
         23    2    1    2    0    0 -0.18682265044E+02 -0.93475281499E+01 -0.10158443662E+03  0.13860707102E+03  0.91957158845E+02 0.  0.
         23    2    1    2    0    0  0.18682265044E+02  0.93475281499E+01 -0.27651074628E+03  0.30419004768E+03  0.12504794677E+03 0.  0.
          5    1    4    4  502    0  0.30548700155E+02 -0.50862996948E+02 -0.90703657203E+02  0.10846609318E+03  0.41800000000E+01 0. -1.
         -5    1    4    4    0  502 -0.11866435111E+02  0.60210525098E+02 -0.18580708908E+03  0.19572395450E+03  0.41800000000E+01 0. -1.
        -11    1    3    3    0    0 -0.34211271402E+02 -0.24347454658E+02 -0.82312980430E+01  0.42789764042E+02  0.00000000000E+00 0.  1.
         11    1    3    3    0    0  0.15529006358E+02  0.14999926508E+02 -0.93353138580E+02  0.95817306978E+02  0.00000000000E+00 0. -1.
</event>
<event>
 8    1  0.5900800E-006  0.1155762E+03  0.7561462E-02  0.1250579E+00
          1   -1    0    0  501    0  0.00000000000E+00  0.00000000000E+00  0.64337073046E+03  0.64337073046E+03  0.00000000000E+00 0. -1.
         -1   -1    0    0    0  501 -0.00000000000E+00 -0.00000000000E+00 -0.23816554343E+02  0.23816554343E+02  0.00000000000E+00 0.  1.
         23    2    1    2    0    0 -0.43728222330E+02  0.36660077948E+02  0.22513795495E+03  0.24949336339E+03  0.91124754454E+02 0.  0.
         23    2    1    2    0    0  0.43728222330E+02 -0.36660077948E+02  0.39441622117E+03  0.41769392141E+03  0.12509171723E+03 0.  0.
          5    1    4    4  502    0  0.43588271780E+02  0.33934972907E+02  0.25971032694E+03  0.26555309477E+03  0.41800000000E+01 0. -1.
         -5    1    4    4    0  502  0.13995055019E+00 -0.70595050855E+02  0.13470589423E+03  0.15214082664E+03  0.41800000000E+01 0. -1.
        -11    1    3    3    0    0 -0.69707507692E+02  0.15216447934E+02  0.17605042331E+03  0.18995901785E+03  0.00000000000E+00 0.  1.
         11    1    3    3    0    0  0.25979285362E+02  0.21443630015E+02  0.49087531635E+02  0.59534345534E+02  0.00000000000E+00 0. -1.
</event>
<event>
 8    1  0.5900800E-006  0.1457594E+03  0.7561462E-02  0.1205783E+00
          2   -1    0    0  501    0  0.00000000000E+00  0.00000000000E+00  0.10427640128E+04  0.10427640128E+04  0.00000000000E+00 0. -1.
         -2   -1    0    0    0  501 -0.00000000000E+00 -0.00000000000E+00 -0.31251850858E+02  0.31251850858E+02  0.00000000000E+00 0.  1.
         23    2    1    2    0    0 -0.22211024723E+02 -0.13990755281E+03  0.39466770296E+03  0.42886849792E+03  0.89989664928E+02 0.  0.
         23    2    1    2    0    0  0.22211024723E+02  0.13990755281E+03  0.61684445899E+03  0.64514736575E+03  0.12510229411E+03 0.  0.
          5    1    4    4  502    0 -0.56505058092E+01  0.10376517379E+03  0.19662433356E+03  0.22243592438E+03  0.41800000000E+01 0. -1.
         -5    1    4    4    0  502  0.27861530532E+02  0.36142379022E+02  0.42022012543E+03  0.42271144137E+03  0.41800000000E+01 0. -1.
        -11    1    3    3    0    0 -0.14802004909E+02 -0.84077632131E+02  0.11298800961E+03  0.14161369245E+03  0.00000000000E+00 0.  1.
         11    1    3    3    0    0 -0.74090198137E+01 -0.55829920681E+02  0.28167969335E+03  0.28725480547E+03  0.00000000000E+00 0. -1.
</event>
<event>
 8    1  0.5900800E-006  0.1709789E+03  0.7561462E-02  0.1176831E+00
         -1   -1    0    0    0  501 -0.00000000000E+00  0.00000000000E+00  0.20898819428E+03  0.20898819428E+03  0.00000000000E+00 0.  1.
          1   -1    0    0  501    0  0.00000000000E+00 -0.00000000000E+00 -0.24117157209E+03  0.24117157209E+03  0.00000000000E+00 0. -1.
         23    2    1    2    0    0  0.75588960173E+01  0.15064181320E+03  0.11131136484E+03  0.20728674961E+03  0.88473068380E+02 0.  0.
         23    2    1    2    0    0 -0.75588960173E+01 -0.15064181320E+03 -0.14349474266E+03  0.24287301676E+03  0.12508584376E+03 0.  0.
          5    1    4    4  502    0 -0.12893231530E+02  0.53694147042E+01 -0.67774575459E+02  0.69324826089E+02  0.41800000000E+01 0.  1.
         -5    1    4    4    0  502  0.53343355124E+01 -0.15601122790E+03 -0.75720167197E+02  0.17354819068E+03  0.41800000000E+01 0.  1.
        -11    1    3    3    0    0  0.38062960491E+02  0.12713385176E+03  0.10274480096E+03  0.16783414238E+03  0.00000000000E+00 0.  1.
         11    1    3    3    0    0 -0.30504064474E+02  0.23507961440E+02  0.85665638819E+01  0.39452607230E+02  0.00000000000E+00 0. -1.
</event>
<event>
 8    1  0.5900800E-006  0.1255110E+03  0.7561462E-02  0.1234273E+00
         -2   -1    0    0    0  501 -0.00000000000E+00  0.00000000000E+00  0.17184041750E+02  0.17184041750E+02  0.00000000000E+00 0.  1.
          2   -1    0    0  501    0  0.00000000000E+00 -0.00000000000E+00 -0.10210960738E+04  0.10210960738E+04  0.00000000000E+00 0. -1.
         23    2    1    2    0    0  0.76114151821E+02 -0.73066604728E+01 -0.42189602393E+03  0.43808261211E+03  0.89851926112E+02 0.  0.
         23    2    1    2    0    0 -0.76114151821E+02  0.73066604728E+01 -0.58201600807E+03  0.60019750340E+03  0.12509059931E+03 0.  0.
          5    1    4    4  502    0 -0.62265783755E+02  0.55924129385E+02 -0.23499168642E+03  0.24948567326E+03  0.41800000000E+01 0. -1.
         -5    1    4    4    0  502 -0.13848368066E+02 -0.48617468912E+02 -0.34702432165E+03  0.35071183014E+03  0.41800000000E+01 0. -1.
        -11    1    3    3    0    0  0.95175684617E+02 -0.14203975419E+02 -0.37154020921E+03  0.38379980578E+03  0.00000000000E+00 0. -1.
         11    1    3    3    0    0 -0.19061532796E+02  0.68973149460E+01 -0.50355814727E+02  0.54282806328E+02  0.00000000000E+00 0.  1.
</event>
<event>
 8    1  0.5900800E-006  0.1073765E+03  0.7561462E-02  0.1265507E+00
         -2   -1    0    0    0  501 -0.00000000000E+00  0.00000000000E+00  0.22086917334E+02  0.22086917334E+02  0.00000000000E+00 0.  1.
          2   -1    0    0  501    0  0.00000000000E+00 -0.00000000000E+00 -0.78225855032E+03  0.78225855032E+03  0.00000000000E+00 0. -1.
         23    2    1    2    0    0  0.41942591942E+02 -0.28360463172E+01 -0.15363274851E+03  0.18361674618E+03  0.91350226526E+02 0.  0.
         23    2    1    2    0    0 -0.41942591942E+02  0.28360463172E+01 -0.60653888448E+03  0.62072872147E+03  0.12508998001E+03 0.  0.
          5    1    4    4  502    0 -0.65957262998E+02  0.40224026314E+02 -0.25820442328E+03  0.26954652555E+03  0.41800000000E+01 0. -1.
         -5    1    4    4    0  502  0.24014671056E+02 -0.37387979997E+02 -0.34833446120E+03  0.35118219593E+03  0.41800000000E+01 0. -1.
        -11    1    3    3    0    0  0.66391494180E+02  0.62161164587E+01 -0.72985766118E+02  0.98860470660E+02  0.00000000000E+00 0.  1.
         11    1    3    3    0    0 -0.24448902238E+02 -0.90521627759E+01 -0.80646982388E+02  0.84756275519E+02  0.00000000000E+00 0. -1.
</event>
<event>
 8    1  0.5900800E-006  0.1390957E+03  0.7561462E-02  0.1214551E+00
         -2   -1    0    0    0  501 -0.00000000000E+00  0.00000000000E+00  0.29027467182E+02  0.29027467182E+02  0.00000000000E+00 0.  1.
          2   -1    0    0  501    0  0.00000000000E+00 -0.00000000000E+00 -0.75261838027E+03  0.75261838027E+03  0.00000000000E+00 0. -1.
         23    2    1    2    0    0 -0.93162472812E+02  0.38674771757E+02 -0.31578895443E+03  0.34332491146E+03  0.89299198083E+02 0.  0.
         23    2    1    2    0    0  0.93162472812E+02 -0.38674771757E+02 -0.40780195865E+03  0.43832093599E+03  0.12509125122E+03 0.  0.
          5    1    4    4  502    0  0.11164745173E+03 -0.12106278935E+02 -0.37719130389E+03  0.39357650794E+03  0.41800000000E+01 0.  1.
         -5    1    4    4    0  502 -0.18484978923E+02 -0.26568492822E+02 -0.30610654762E+02  0.44744428050E+02  0.41800000000E+01 0.  1.
        -11    1    3    3    0    0 -0.71016574917E+02  0.66720011973E+02 -0.25241612799E+03  0.27057127634E+03  0.00000000000E+00 0. -1.
         11    1    3    3    0    0 -0.22145897894E+02 -0.28045240216E+02 -0.63372826447E+02  0.72753635127E+02  0.00000000000E+00 0.  1.
</event>
<event>
 8    1  0.5900800E-006  0.1293833E+03  0.7561462E-02  0.1228374E+00
         -4   -1    0    0    0  501 -0.00000000000E+00  0.00000000000E+00  0.72982680155E+02  0.72982680155E+02  0.00000000000E+00 0.  1.
          4   -1    0    0  501    0  0.00000000000E+00 -0.00000000000E+00 -0.27288889889E+03  0.27288889889E+03  0.00000000000E+00 0. -1.
         23    2    1    2    0    0 -0.13853501804E+02 -0.93756290553E+02 -0.59857876890E+02  0.14393917441E+03  0.90295952151E+02 0.  0.
         23    2    1    2    0    0  0.13853501804E+02  0.93756290553E+02 -0.14004834185E+03  0.20193240463E+03  0.11036755165E+03 0.  0.
          5    1    4    4  502    0  0.55233776896E+02  0.65225605654E+02 -0.12060360577E+03  0.14787782750E+03  0.41800000000E+01 0. -1.
         -5    1    4    4    0  502 -0.41380275092E+02  0.28530684898E+02 -0.19444736083E+02  0.54054577131E+02  0.41800000000E+01 0.  1.
        -11    1    3    3    0    0  0.19280949397E+02 -0.86781388960E+02 -0.64403079865E+02  0.10977486586E+03  0.00000000000E+00 0. -1.
         11    1    3    3    0    0 -0.33134451201E+02 -0.69749015928E+01  0.45452029751E+01  0.34164308550E+02  0.00000000000E+00 0.  1.
</event>
<event>
 7    1  0.5900800E-006  0.2164178E+03  0.7561462E-02  0.1136582E+00
          3   -1    0    0  501    0  0.00000000000E+00  0.00000000000E+00  0.24751780586E+03  0.24751780586E+03  0.00000000000E+00 0. -1.
         -3   -1    0    0    0  501 -0.00000000000E+00 -0.00000000000E+00 -0.28499947942E+03  0.28499947942E+03  0.00000000000E+00 0.  1.
         23    2    1    2    0    0  0.14123421019E+03 -0.98262337892E+02 -0.16811824974E+03  0.25697746079E+03  0.90394027903E+02 0.  0.
          5    1    1    2  502    0 -0.17427953621E+03  0.45506105253E+02  0.99227665937E+02  0.20568851315E+03  0.41800000000E+01 0. -1.
         -5    1    1    2    0  502  0.33045326015E+02  0.52756232639E+02  0.31408910236E+02  0.69851311340E+02  0.41800000000E+01 0.  1.
        -11    1    3    3    0    0  0.12057506499E+03 -0.11271969422E+03 -0.12508098644E+03  0.20709738997E+03  0.00000000000E+00 0.  1.
         11    1    3    3    0    0  0.20659145201E+02  0.14457356331E+02 -0.43037263297E+02  0.49880070816E+02  0.00000000000E+00 0. -1.
</event>
<event>
 8    1  0.5900800E-006  0.1030335E+03  0.7561462E-02  0.1274043E+00
          1   -1    0    0  501    0  0.00000000000E+00  0.00000000000E+00  0.35240200265E+02  0.35240200265E+02  0.00000000000E+00 0. -1.
         -1   -1    0    0    0  501 -0.00000000000E+00 -0.00000000000E+00 -0.47606852716E+03  0.47606852716E+03  0.00000000000E+00 0.  1.
         23    2    1    2    0    0  0.40456213473E+02 -0.16044903459E+02 -0.30248146592E+03  0.31978587943E+03  0.94200994289E+02 0.  0.
         23    2    1    2    0    0 -0.40456213473E+02  0.16044903459E+02 -0.13834686098E+03  0.19152284800E+03  0.12508798194E+03 0.  0.
          5    1    4    4  502    0 -0.36861039257E+02  0.58481130147E+02 -0.30838339701E+02  0.75810648289E+02  0.41800000000E+01 0.  1.
         -5    1    4    4    0  502 -0.35951742160E+01 -0.42436226689E+02 -0.10750852128E+03  0.11571219971E+03  0.41800000000E+01 0.  1.
        -11    1    3    3    0    0  0.64629773111E+02 -0.23425305835E+02 -0.27008408896E+03  0.27869547473E+03  0.00000000000E+00 0.  1.
         11    1    3    3    0    0 -0.24173559638E+02  0.73804023758E+01 -0.32397376956E+02  0.41090404700E+02  0.00000000000E+00 0. -1.
</event>
<event>
 8    1  0.5900800E-006  0.1202327E+03  0.7561462E-02  0.1242714E+00
         -2   -1    0    0    0  501 -0.00000000000E+00  0.00000000000E+00  0.36843102750E+02  0.36843102750E+02  0.00000000000E+00 0.  1.
          2   -1    0    0  501    0  0.00000000000E+00 -0.00000000000E+00 -0.61464820104E+03  0.61464820104E+03  0.00000000000E+00 0. -1.
         23    2    1    2    0    0 -0.82425837939E+02 -0.62312537752E+02 -0.24302304914E+03  0.27946476961E+03  0.91452085396E+02 0.  0.
         23    2    1    2    0    0  0.82425837939E+02  0.62312537752E+02 -0.33478204916E+03  0.37202653418E+03  0.12509136890E+03 0.  0.
          5    1    4    4  502    0  0.75145221891E+01 -0.79794598223E+01 -0.21008059231E+03  0.21040785986E+03  0.41800000000E+01 0.  1.
         -5    1    4    4    0  502  0.74911315750E+02  0.70291997575E+02 -0.12470145684E+03  0.16161867432E+03  0.41800000000E+01 0.  1.
        -11    1    3    3    0    0 -0.63312248415E+01 -0.48097486129E+02 -0.42417535686E+02  0.64441445620E+02  0.00000000000E+00 0.  1.
         11    1    3    3    0    0 -0.76094613097E+02 -0.14215051623E+02 -0.20060551345E+03  0.21502332399E+03  0.00000000000E+00 0. -1.
</event>
<event>
 8    1  0.5900800E-006  0.1088761E+03  0.7561462E-02  0.1262666E+00
          2   -1    0    0  501    0  0.00000000000E+00  0.00000000000E+00  0.39598434745E+03  0.39598434745E+03  0.00000000000E+00 0. -1.
         -2   -1    0    0    0  501 -0.00000000000E+00 -0.00000000000E+00 -0.32802698873E+02  0.32802698873E+02  0.00000000000E+00 0.  1.
         23    2    1    2    0    0  0.17744881709E+02  0.25958333586E+02  0.18028265950E+03  0.20498093122E+03  0.92339747331E+02 0.  0.
         23    2    1    2    0    0 -0.17744881709E+02 -0.25958333586E+02  0.18289898908E+03  0.22380611511E+03  0.12509364909E+03 0.  0.
          5    1    4    4  502    0  0.53523099939E+02 -0.20168294775E+02  0.79893577151E+02  0.98346013703E+02  0.41800000000E+01 0. -1.
         -5    1    4    4    0  502 -0.71267981648E+02 -0.57900388108E+01  0.10300541193E+03  0.12546010140E+03  0.41800000000E+01 0. -1.
        -11    1    3    3    0    0 -0.18979829552E+02 -0.21558752684E+02  0.10400986866E+03  0.10790304225E+03  0.00000000000E+00 0. -1.
         11    1    3    3    0    0  0.36724711261E+02  0.47517086270E+02  0.76272790839E+02  0.97077888971E+02  0.00000000000E+00 0.  1.
</event>
<event>
 8    1  0.5900800E-006  0.1944514E+03  0.7561462E-02  0.1154507E+00
          2   -1    0    0  501    0  0.00000000000E+00  0.00000000000E+00  0.87626680136E+02  0.87626680136E+02  0.00000000000E+00 0.  1.
         -2   -1    0    0    0  501 -0.00000000000E+00 -0.00000000000E+00 -0.48788776796E+03  0.48788776796E+03  0.00000000000E+00 0. -1.
         23    2    1    2    0    0 -0.51613204458E+02  0.16728729904E+03 -0.17061784548E+03  0.26081670541E+03  0.90917222414E+02 0.  0.
         23    2    1    2    0    0  0.51613204458E+02 -0.16728729904E+03 -0.22964324234E+03  0.31469774268E+03  0.12509870982E+03 0.  0.
          5    1    4    4  502    0 -0.11786546674E+01 -0.14753626872E+03 -0.11583038649E+03  0.18762326788E+03  0.41800000000E+01 0. -1.
         -5    1    4    4    0  502  0.52791859126E+02 -0.19751030324E+02 -0.11381285586E+03  0.12707447480E+03  0.41800000000E+01 0. -1.
        -11    1    3    3    0    0  0.58526356483E+01  0.80387513447E+02 -0.30425039951E+02  0.86151545071E+02  0.00000000000E+00 0. -1.
         11    1    3    3    0    0 -0.57465840107E+02  0.86899785597E+02 -0.14019280553E+03  0.17466516034E+03  0.00000000000E+00 0.  1.
</event>
<event>
 8    1  0.5900800E-006  0.9668408E+02  0.7561462E-02  0.1287428E+00
          1   -1    0    0  501    0  0.00000000000E+00  0.00000000000E+00  0.33686278785E+03  0.33686278785E+03  0.00000000000E+00 0. -1.
         -1   -1    0    0    0  501 -0.00000000000E+00 -0.00000000000E+00 -0.39232628475E+02  0.39232628475E+02  0.00000000000E+00 0.  1.
         23    2    1    2    0    0 -0.31242250409E+02 -0.18915239441E+02  0.11373565237E+03  0.15071038736E+03  0.91891010149E+02 0.  0.
         23    2    1    2    0    0  0.31242250409E+02  0.18915239441E+02  0.18389450700E+03  0.22538502896E+03  0.12508939635E+03 0.  0.
          5    1    4    4  502    0 -0.43322951361E+01 -0.43817287311E+02  0.24916809419E+02  0.50764586476E+02  0.41800000000E+01 0. -1.
         -5    1    4    4    0  502  0.35574545545E+02  0.62732526752E+02  0.15897769758E+03  0.17462044248E+03  0.41800000000E+01 0. -1.
        -11    1    3    3    0    0  0.19918399360E+02  0.48340007500E+01 -0.33296788818E+01  0.20765282512E+02  0.00000000000E+00 0.  1.
         11    1    3    3    0    0 -0.51160649769E+02 -0.23749240191E+02  0.11706533125E+03  0.12994510485E+03  0.00000000000E+00 0. -1.
</event>
<event>
 8    1  0.5900800E-006  0.2703131E+03  0.7561462E-02  0.1101101E+00
          2   -1    0    0  501    0  0.00000000000E+00  0.00000000000E+00  0.52913601155E+03  0.52913601155E+03  0.00000000000E+00 0. -1.
         -2   -1    0    0    0  501 -0.00000000000E+00 -0.00000000000E+00 -0.18393145905E+03  0.18393145905E+03  0.00000000000E+00 0.  1.
         23    2    1    2    0    0  0.13731723464E+03  0.21780216738E+03  0.10588856450E+02  0.27271725358E+03  0.89267964457E+02 0.  0.
         23    2    1    2    0    0 -0.13731723464E+03 -0.21780216738E+03  0.33461569605E+03  0.44035021702E+03  0.12508733964E+03 0.  0.
          5    1    4    4  502    0 -0.15538801168E+03 -0.20839023954E+03  0.32797278538E+03  0.41851588555E+03  0.41800000000E+01 0.  1.
         -5    1    4    4    0  502  0.18070777039E+02 -0.94119278338E+01  0.66429106779E+01  0.21834331467E+02  0.41800000000E+01 0.  1.
        -11    1    3    3    0    0  0.45601920730E+02  0.10492865110E+03 -0.36098855086E+02  0.11996951419E+03  0.00000000000E+00 0.  1.
         11    1    3    3    0    0  0.91715313908E+02  0.11287351628E+03  0.46687711536E+02  0.15274773940E+03  0.00000000000E+00 0. -1.
</event>
<event>
 8    1  0.5900800E-006  0.9745439E+02  0.7561462E-02  0.1285742E+00
         -1   -1    0    0    0  501 -0.00000000000E+00  0.00000000000E+00  0.25019931051E+02  0.25019931051E+02  0.00000000000E+00 0.  1.
          1   -1    0    0  501    0  0.00000000000E+00 -0.00000000000E+00 -0.47383786188E+03  0.47383786188E+03  0.00000000000E+00 0. -1.
         23    2    1    2    0    0 -0.16744042072E+02 -0.14060799715E+01 -0.16379360107E+03  0.18713864443E+03  0.88939240393E+02 0.  0.
         23    2    1    2    0    0  0.16744042072E+02  0.14060799715E+01 -0.28502432977E+03  0.31171914851E+03  0.12509044321E+03 0.  0.
          5    1    4    4  502    0  0.34118133849E+02 -0.46913054323E+02 -0.22605108364E+03  0.23341261007E+03  0.41800000000E+01 0. -1.
         -5    1    4    4    0  502 -0.17374091777E+02  0.48319134294E+02 -0.58973246126E+02  0.78306538441E+02  0.41800000000E+01 0. -1.
        -11    1    3    3    0    0  0.26874492036E+02 -0.24070171873E+02 -0.39595516015E+02  0.53566933687E+02  0.00000000000E+00 0.  1.
         11    1    3    3    0    0 -0.43618534107E+02  0.22664091901E+02 -0.12419808505E+03  0.13357171074E+03  0.00000000000E+00 0. -1.
</event>
<event>
 7    1  0.5900800E-006  0.1681161E+03  0.7561462E-02  0.1179827E+00
         -1   -1    0    0    0  501 -0.00000000000E+00  0.00000000000E+00  0.15475418696E+03  0.15475418696E+03  0.00000000000E+00 0.  1.
          1   -1    0    0  501    0  0.00000000000E+00 -0.00000000000E+00 -0.30529857864E+03  0.30529857864E+03  0.00000000000E+00 0. -1.
         23    2    1    2    0    0  0.32994351453E+02 -0.62359083264E+02  0.39604863470E+02  0.12257967406E+03  0.92086637407E+02 0.  0.
          5    1    1    2  502    0 -0.12395904242E+03  0.40232233935E+02 -0.20463795576E+03  0.24264921632E+03  0.41800000000E+01 0. -1.
         -5    1    1    2    0  502  0.90964690972E+02  0.22126849329E+02  0.14488700604E+02  0.94823875211E+02  0.41800000000E+01 0.  1.
        -11    1    3    3    0    0  0.92735226646E+00 -0.76910518949E+02  0.41342051654E+02  0.87322695459E+02  0.00000000000E+00 0.  1.
         11    1    3    3    0    0  0.32066999186E+02  0.14551435686E+02 -0.17371881837E+01  0.35256978602E+02  0.00000000000E+00 0. -1.
</event>
<event>
 8    1  0.5900800E-006  0.1215527E+03  0.7561462E-02  0.1240557E+00
          4   -1    0    0  501    0  0.00000000000E+00  0.00000000000E+00  0.31054778979E+02  0.31054778979E+02  0.00000000000E+00 0. -1.
         -4   -1    0    0    0  501 -0.00000000000E+00 -0.00000000000E+00 -0.76409793422E+03  0.76409793422E+03  0.00000000000E+00 0.  1.
         23    2    1    2    0    0 -0.10577462967E+03 -0.58793651062E+00 -0.41178495651E+03  0.43453777851E+03  0.89819889746E+02 0.  0.
         23    2    1    2    0    0  0.10577462967E+03  0.58793651062E+00 -0.32125819874E+03  0.36061493469E+03  0.12509069876E+03 0.  0.
          5    1    4    4  502    0  0.88098977671E+02 -0.69745338031E+01 -0.32807318212E+03  0.33979340667E+03  0.41800000000E+01 0. -1.
         -5    1    4    4    0  502  0.17675652003E+02  0.75624703138E+01  0.68149833795E+01  0.20821528028E+02  0.41800000000E+01 0. -1.
        -11    1    3    3    0    0  0.43666760641E+01  0.22079889906E+02 -0.11460806723E+03  0.11679725370E+03  0.00000000000E+00 0.  1.
         11    1    3    3    0    0 -0.11014130574E+03 -0.22667826417E+02 -0.29717688927E+03  0.31774052480E+03  0.00000000000E+00 0. -1.
</event>
<event>
 8    1  0.5900800E-006  0.1006143E+03  0.7561462E-02  0.1279010E+00
          1   -1    0    0  501    0  0.00000000000E+00  0.00000000000E+00  0.16972417869E+03  0.16972417869E+03  0.00000000000E+00 0. -1.
         -1   -1    0    0    0  501 -0.00000000000E+00 -0.00000000000E+00 -0.92391188157E+02  0.92391188157E+02  0.00000000000E+00 0.  1.
         23    2    1    2    0    0  0.55521154193E+02  0.27826804489E+02  0.32300165394E+02  0.11537847315E+03  0.91716747490E+02 0.  0.
         23    2    1    2    0    0 -0.55521154193E+02 -0.27826804489E+02  0.45032825144E+02  0.14673689370E+03  0.12508729361E+03 0.  0.
          5    1    4    4  502    0  0.31380523487E+02 -0.21375794351E+02 -0.14782788842E+02  0.40959310106E+02  0.41800000000E+01 0.  1.
         -5    1    4    4    0  502 -0.86901677680E+02 -0.64510101383E+01  0.59815613986E+02  0.10577758360E+03  0.41800000000E+01 0.  1.
        -11    1    3    3    0    0  0.36426420815E+02  0.39241646205E+02 -0.21084238647E+02  0.57544209522E+02  0.00000000000E+00 0.  1.
         11    1    3    3    0    0  0.19094733378E+02 -0.11414841716E+02  0.53384404040E+02  0.57834263624E+02  0.00000000000E+00 0. -1.
</event>
<event>
 8    1  0.5900800E-006  0.1398176E+03  0.7561462E-02  0.1213575E+00
          2   -1    0    0  501    0  0.00000000000E+00  0.00000000000E+00  0.32327580950E+03  0.32327580950E+03  0.00000000000E+00 0. -1.
         -2   -1    0    0    0  501 -0.00000000000E+00 -0.00000000000E+00 -0.12211733581E+03  0.12211733581E+03  0.00000000000E+00 0.  1.
         23    2    1    2    0    0  0.41470730733E+02 -0.10307029103E+03 -0.42630458744E+02  0.14971848697E+03  0.90856826533E+02 0.  0.
         23    2    1    2    0    0 -0.41470730733E+02  0.10307029103E+03  0.24378893243E+03  0.29567465834E+03  0.12508858305E+03 0.  0.
          5    1    4    4  502    0  0.16940215295E+02 -0.24141451381E+01  0.12543584296E+03  0.12666657843E+03  0.41800000000E+01 0. -1.
         -5    1    4    4    0  502 -0.58410946028E+02  0.10548443616E+03  0.11835308947E+03  0.16900807991E+03  0.41800000000E+01 0. -1.
        -11    1    3    3    0    0 -0.47660523510E+01 -0.94164011977E+02 -0.40409878249E+02  0.10257940664E+03  0.00000000000E+00 0. -1.
         11    1    3    3    0    0  0.46236783084E+02 -0.89062790500E+01 -0.22205804949E+01  0.47139080329E+02  0.00000000000E+00 0.  1.
</event>
<event>
 8    1  0.5900800E-006  0.1068024E+03  0.7561462E-02  0.1266609E+00
         -2   -1    0    0    0  501 -0.00000000000E+00  0.00000000000E+00  0.14239271980E+03  0.14239271980E+03  0.00000000000E+00 0. -1.
          2   -1    0    0  501    0  0.00000000000E+00 -0.00000000000E+00 -0.97842872284E+02  0.97842872284E+02  0.00000000000E+00 0.  1.
         23    2    1    2    0    0 -0.37172484637E+02 -0.25834718581E+02  0.56217381424E+01  0.10163169819E+03  0.90819446365E+02 0.  0.
         23    2    1    2    0    0  0.37172484637E+02  0.25834718581E+02  0.38928109375E+02  0.13860389390E+03  0.12508563229E+03 0.  0.
          5    1    4    4  502    0  0.27816229154E+02  0.66869045861E+02 -0.10776035030E+02  0.73340351987E+02  0.41800000000E+01 0.  1.
         -5    1    4    4    0  502  0.93562554834E+01 -0.41034327280E+02  0.49704144405E+02  0.65263541913E+02  0.41800000000E+01 0.  1.
        -11    1    3    3    0    0 -0.50339360414E+02 -0.50186333887E+02  0.14526092434E+02  0.72551544969E+02  0.00000000000E+00 0.  1.
         11    1    3    3    0    0  0.13166875777E+02  0.24351615307E+02 -0.89043542913E+01  0.29080153217E+02  0.00000000000E+00 0. -1.
</event>
<event>
 8    1  0.5900800E-006  0.1109214E+03  0.7561462E-02  0.1258873E+00
         -1   -1    0    0    0  501 -0.00000000000E+00  0.00000000000E+00  0.16107647721E+03  0.16107647721E+03  0.00000000000E+00 0.  1.
          1   -1    0    0  501    0  0.00000000000E+00 -0.00000000000E+00 -0.20994134790E+03  0.20994134790E+03  0.00000000000E+00 0. -1.
         23    2    1    2    0    0 -0.22380749359E+02  0.79561788717E+02  0.10124349901E+03  0.15886361104E+03  0.90312926288E+02 0.  0.
         23    2    1    2    0    0  0.22380749359E+02 -0.79561788717E+02 -0.15010836970E+03  0.21215421406E+03  0.12508361894E+03 0.  0.
          5    1    4    4  502    0 -0.34111399828E+02 -0.44192210736E+02 -0.98960272889E+01  0.56850178927E+02  0.41800000000E+01 0.  1.
         -5    1    4    4    0  502  0.56492149186E+02 -0.35369577981E+02 -0.14021234241E+03  0.15530403514E+03  0.41800000000E+01 0.  1.
        -11    1    3    3    0    0 -0.30560412294E+02  0.15077482279E+02  0.85416776836E+02  0.91963552762E+02  0.00000000000E+00 0.  1.
         11    1    3    3    0    0  0.81796629358E+01  0.64484306438E+02  0.15826722172E+02  0.66900058275E+02  0.00000000000E+00 0. -1.
</event>
<event>
 8    1  0.5900800E-006  0.9979744E+02  0.7561462E-02  0.1280722E+00
         -3   -1    0    0    0  501 -0.00000000000E+00  0.00000000000E+00  0.48978074934E+03  0.48978074934E+03  0.00000000000E+00 0.  1.
          3   -1    0    0  501    0  0.00000000000E+00 -0.00000000000E+00 -0.37182298675E+02  0.37182298675E+02  0.00000000000E+00 0. -1.
         23    2    1    2    0    0 -0.62571532338E+02  0.32131932837E+02  0.27439640165E+03  0.29815979279E+03  0.93049551509E+02 0.  0.
         23    2    1    2    0    0  0.62571532338E+02 -0.32131932837E+02  0.17820204902E+03  0.22880325522E+03  0.12508917442E+03 0.  0.
          5    1    4    4  502    0  0.39791633327E+02  0.34260930530E+02  0.13821466940E+03  0.14791197612E+03  0.41800000000E+01 0.  1.
         -5    1    4    4    0  502  0.22779899010E+02 -0.66392863367E+02  0.39987379621E+02  0.80891279097E+02  0.41800000000E+01 0.  1.
        -11    1    3    3    0    0 -0.25212375131E+02 -0.29126301670E+01  0.76042126723E+01  0.26494741452E+02  0.00000000000E+00 0. -1.
         11    1    3    3    0    0 -0.37359157206E+02  0.35044563004E+02  0.26679218897E+03  0.27166505134E+03  0.00000000000E+00 0.  1.
</event>
<event>
 8    1  0.5900800E-006  0.1256049E+03  0.7561462E-02  0.1234127E+00
          1   -1    0    0  501    0  0.00000000000E+00  0.00000000000E+00  0.15438086225E+04  0.15438086225E+04  0.00000000000E+00 0. -1.
         -1   -1    0    0    0  501 -0.00000000000E+00 -0.00000000000E+00 -0.13658176650E+02  0.13658176650E+02  0.00000000000E+00 0.  1.
         23    2    1    2    0    0 -0.42940708285E+02 -0.63875858063E+02  0.40284721666E+03  0.42063863164E+03  0.93418139477E+02 0.  0.
         23    2    1    2    0    0  0.42940708285E+02  0.63875858063E+02  0.11273032292E+04  0.11368281675E+04  0.12506671116E+03 0.  0.
          5    1    4    4  502    0  0.79071489299E+02  0.34027684904E+02  0.93032477787E+03  0.93430821921E+03  0.41800000000E+01 0.  1.
         -5    1    4    4    0  502 -0.36130781013E+02  0.29848173159E+02  0.19697845132E+03  0.20251994831E+03  0.41800000000E+01 0.  1.
        -11    1    3    3    0    0 -0.68154735828E+02 -0.27011231231E+02  0.20218688215E+03  0.21506791937E+03  0.00000000000E+00 0.  1.
         11    1    3    3    0    0  0.25214027543E+02 -0.36864626832E+02  0.20066033451E+03  0.20557071227E+03  0.00000000000E+00 0. -1.
</event>
<event>
 8    1  0.5900800E-006  0.8879438E+02  0.7561462E-02  0.1305798E+00
          1   -1    0    0  501    0  0.00000000000E+00  0.00000000000E+00  0.62545107715E+03  0.62545107715E+03  0.00000000000E+00 0. -1.
         -1   -1    0    0    0  501 -0.00000000000E+00 -0.00000000000E+00 -0.31441797558E+02  0.31441797558E+02  0.00000000000E+00 0.  1.
         23    2    1    2    0    0  0.17868055501E+01  0.28144926319E+02  0.82602697199E+02  0.12965554814E+03  0.95875054252E+02 0.  0.
         23    2    1    2    0    0 -0.17868055501E+01 -0.28144926319E+02  0.51140658240E+03  0.52723732657E+03  0.12508867438E+03 0.  0.
          5    1    4    4  502    0  0.34761422155E+02 -0.21900849579E+02  0.46874493138E+03  0.47056060904E+03  0.41800000000E+01 0.  1.
         -5    1    4    4    0  502 -0.36548227705E+02 -0.62440767400E+01  0.42661651013E+02  0.56676717529E+02  0.41800000000E+01 0.  1.
        -11    1    3    3    0    0  0.22591901425E+02  0.58196670606E+02  0.43243643495E+02  0.75942472848E+02  0.00000000000E+00 0.  1.
         11    1    3    3    0    0 -0.20805095875E+02 -0.30051744287E+02  0.39359053704E+02  0.53713075294E+02  0.00000000000E+00 0. -1.
</event>
<event>
 7    1  0.5900800E-006  0.1328253E+03  0.7561462E-02  0.1223323E+00
          1   -1    0    0  501    0  0.00000000000E+00  0.00000000000E+00  0.20115955800E+03  0.20115955800E+03  0.00000000000E+00 0. -1.
         -1   -1    0    0    0  501 -0.00000000000E+00 -0.00000000000E+00 -0.19654249645E+03  0.19654249645E+03  0.00000000000E+00 0.  1.
         23    2    1    2    0    0  0.70402595014E+02 -0.55389516970E+02 -0.12081080951E+03  0.17558820948E+03  0.90617016289E+02 0.  0.
          5    1    1    2  502    0 -0.79421983448E+02  0.89356587666E+02  0.13973011252E+03  0.18394137098E+03  0.41800000000E+01 0. -1.
         -5    1    1    2    0  502  0.90193884337E+01 -0.33967070697E+02 -0.14302241466E+02  0.38172473988E+02  0.41800000000E+01 0.  1.
        -11    1    3    3    0    0  0.75648162740E+02 -0.64965901372E+02 -0.12819226199E+03  0.16240833999E+03  0.00000000000E+00 0.  1.
         11    1    3    3    0    0 -0.52455677265E+01  0.95763844019E+01  0.73814524801E+01  0.13179869487E+02  0.00000000000E+00 0. -1.
</event>
<event>
 8    1  0.5900800E-006  0.8781773E+02  0.7561462E-02  0.1308224E+00
          2   -1    0    0  501    0  0.00000000000E+00  0.00000000000E+00  0.25561034509E+03  0.25561034509E+03  0.00000000000E+00 0. -1.
         -2   -1    0    0    0  501 -0.00000000000E+00 -0.00000000000E+00 -0.55316240735E+02  0.55316240735E+02  0.00000000000E+00 0.  1.
         23    2    1    2    0    0 -0.34282466749E+02  0.31038584951E+02  0.65600787947E+02  0.12137827572E+03  0.91052408837E+02 0.  0.
         23    2    1    2    0    0  0.34282466749E+02 -0.31038584951E+02  0.13469331641E+03  0.18954831011E+03  0.12509033175E+03 0.  0.
          5    1    4    4  502    0 -0.14784324922E+02 -0.26365731043E+02  0.13667766835E+03  0.14004279868E+03  0.41800000000E+01 0. -1.
         -5    1    4    4    0  502  0.49066791671E+02 -0.46728539082E+01 -0.19843519440E+01  0.49505511423E+02  0.41800000000E+01 0. -1.
        -11    1    3    3    0    0 -0.31580285017E+02  0.59342066228E+02  0.64133869037E+02  0.92908279414E+02  0.00000000000E+00 0. -1.
         11    1    3    3    0    0 -0.27021817325E+01 -0.28303481277E+02  0.14669189102E+01  0.28469996305E+02  0.00000000000E+00 0.  1.
</event>
<event>
 8    1  0.5900800E-006  0.1654527E+03  0.7561462E-02  0.1182675E+00
          2   -1    0    0  501    0  0.00000000000E+00  0.00000000000E+00  0.46289343058E+03  0.46289343058E+03  0.00000000000E+00 0. -1.
         -2   -1    0    0    0  501 -0.00000000000E+00 -0.00000000000E+00 -0.80692332203E+02  0.80692332203E+02  0.00000000000E+00 0.  1.
         23    2    1    2    0    0  0.11333484766E+03  0.64748779458E+02  0.52790277193E+02  0.16782669156E+03  0.91333416100E+02 0.  0.
         23    2    1    2    0    0 -0.11333484766E+03 -0.64748779458E+02  0.32941082118E+03  0.37575907122E+03  0.12508476470E+03 0.  0.
          5    1    4    4  502    0  0.33395790497E+01 -0.61803157172E+02  0.14169175425E+03  0.15467646442E+03  0.41800000000E+01 0. -1.
         -5    1    4    4    0  502 -0.11667442671E+03 -0.29456222856E+01  0.18771906693E+03  0.22108260680E+03  0.41800000000E+01 0. -1.
        -11    1    3    3    0    0  0.12342726510E+03  0.47802448895E+02  0.26545377732E+02  0.13499637391E+03  0.00000000000E+00 0.  1.
         11    1    3    3    0    0 -0.10092417433E+02  0.16946330562E+02  0.26244899460E+02  0.32830317648E+02  0.00000000000E+00 0. -1.
</event>
<event>
 8    1  0.5900800E-006  0.1092312E+03  0.7561462E-02  0.1262000E+00
          1   -1    0    0  501    0  0.00000000000E+00  0.00000000000E+00  0.39292858585E+03  0.39292858585E+03  0.00000000000E+00 0. -1.
         -1   -1    0    0    0  501 -0.00000000000E+00 -0.00000000000E+00 -0.52885792902E+02  0.52885792902E+02  0.00000000000E+00 0.  1.
         23    2    1    2    0    0  0.95266244714E+01 -0.57795502185E+02  0.41236678495E+02  0.11663322594E+03  0.92042213652E+02 0.  0.
         23    2    1    2    0    0 -0.95266244714E+01  0.57795502185E+02  0.29880611445E+03  0.32918115281E+03  0.12507621950E+03 0.  0.
          5    1    4    4  502    0 -0.45691543199E+02  0.52536566010E+01  0.23264649548E+03  0.23718596561E+03  0.41800000000E+01 0. -1.
         -5    1    4    4    0  502  0.36164918727E+02  0.52541845584E+02  0.66159618979E+02  0.91995187196E+02  0.41800000000E+01 0. -1.
        -11    1    3    3    0    0 -0.40750971261E+02 -0.32218697707E+02  0.26565146717E+02  0.58347177830E+02  0.00000000000E+00 0.  1.
         11    1    3    3    0    0  0.50277595732E+02 -0.25576804478E+02  0.14671531778E+02  0.58286048113E+02  0.00000000000E+00 0. -1.
</event>
<event>
 8    1  0.5900800E-006  0.1436522E+03  0.7561462E-02  0.1208497E+00
          2   -1    0    0  501    0  0.00000000000E+00  0.00000000000E+00  0.67704471007E+02  0.67704471007E+02  0.00000000000E+00 0. -1.
         -2   -1    0    0    0  501 -0.00000000000E+00 -0.00000000000E+00 -0.36957511262E+03  0.36957511262E+03  0.00000000000E+00 0.  1.
         23    2    1    2    0    0 -0.99776877062E+02 -0.15623582640E+02 -0.21819968737E+03  0.25603875646E+03  0.88006929881E+02 0.  0.
         23    2    1    2    0    0  0.99776877062E+02  0.15623582640E+02 -0.83670954237E+02  0.18124082717E+03  0.12509151578E+03 0.  0.
          5    1    4    4  502    0  0.12209373447E+03  0.38943886530E+02 -0.67017480156E+02  0.14468006546E+03  0.41800000000E+01 0. -1.
         -5    1    4    4    0  502 -0.22316857405E+02 -0.23320303890E+02 -0.16653474081E+02  0.36560761711E+02  0.41800000000E+01 0. -1.
        -11    1    3    3    0    0 -0.11267106328E+03 -0.14165226457E+02 -0.21423410368E+03  0.24246994313E+03  0.00000000000E+00 0. -1.
         11    1    3    3    0    0  0.12894186223E+02 -0.14583561836E+01 -0.39655836979E+01  0.13568813329E+02  0.00000000000E+00 0.  1.
</event>
<event>
 8    1  0.5900800E-006  0.2380186E+03  0.7561462E-02  0.1121120E+00
          2   -1    0    0  501    0  0.00000000000E+00  0.00000000000E+00  0.20641848843E+04  0.20641848843E+04  0.00000000000E+00 0.  1.
         -2   -1    0    0    0  501 -0.00000000000E+00 -0.00000000000E+00 -0.47504923092E+02  0.47504923092E+02  0.00000000000E+00 0. -1.
         23    2    1    2    0    0  0.14154224289E+03 -0.17287437860E+03  0.34868242121E+03  0.42415235433E+03  0.91684412681E+02 0.  0.
         23    2    1    2    0    0 -0.14154224289E+03  0.17287437860E+03  0.16679975400E+04  0.16875374530E+04  0.12508838767E+03 0.  0.
          5    1    4    4  502    0 -0.15605806359E+03  0.11913400863E+03  0.14068760106E+04  0.14205156151E+04  0.41800000000E+01 0.  1.
         -5    1    4    4    0  502  0.14515820699E+02  0.53740369975E+02  0.26112152943E+03  0.26702183796E+03  0.41800000000E+01 0.  1.
        -11    1    3    3    0    0  0.55672697362E+02 -0.57766959435E+02  0.55094967742E+02  0.97323821876E+02  0.00000000000E+00 0. -1.
         11    1    3    3    0    0  0.85869545525E+02 -0.11510741917E+03  0.29358745347E+03  0.32682853246E+03  0.00000000000E+00 0.  1.
</event>
<event>
 8    1  0.5900800E-006  0.1196862E+03  0.7561462E-02  0.1243616E+00
         -1   -1    0    0    0  501 -0.00000000000E+00  0.00000000000E+00  0.37773095093E+02  0.37773095093E+02  0.00000000000E+00 0.  1.
          1   -1    0    0  501    0  0.00000000000E+00 -0.00000000000E+00 -0.46172552473E+03  0.46172552473E+03  0.00000000000E+00 0. -1.
         23    2    1    2    0    0  0.48566256290E+02 -0.55149551284E+02 -0.17103472174E+03  0.20792694046E+03  0.92631432410E+02 0.  0.
         23    2    1    2    0    0 -0.48566256290E+02  0.55149551284E+02 -0.25291770790E+03  0.29157167937E+03  0.12508606231E+03 0.  0.
          5    1    4    4  502    0 -0.28097483383E+02  0.93433006813E+02 -0.14154404008E+03  0.17196331881E+03  0.41800000000E+01 0.  1.
         -5    1    4    4    0  502 -0.20468772907E+02 -0.38283455529E+02 -0.11137366782E+03  0.11960836055E+03  0.41800000000E+01 0.  1.
        -11    1    3    3    0    0  0.63382720530E+02 -0.33008707614E+02 -0.58712069703E+02  0.92488113663E+02  0.00000000000E+00 0.  1.
         11    1    3    3    0    0 -0.14816464240E+02 -0.22140843671E+02 -0.11232265204E+03  0.11543882679E+03  0.00000000000E+00 0. -1.
</event>
<event>
 8    1  0.5900800E-006  0.8422841E+02  0.7561462E-02  0.1317463E+00
         -1   -1    0    0    0  501 -0.00000000000E+00  0.00000000000E+00  0.32826965117E+02  0.32826965117E+02  0.00000000000E+00 0.  1.
          1   -1    0    0  501    0  0.00000000000E+00 -0.00000000000E+00 -0.43500319657E+03  0.43500319657E+03  0.00000000000E+00 0. -1.
         23    2    1    2    0    0 -0.35233951355E+02  0.10666782559E+02 -0.11248931384E+03  0.15014964540E+03  0.92389711047E+02 0.  0.
         23    2    1    2    0    0  0.35233951355E+02 -0.10666782559E+02 -0.28968691762E+03  0.31768051629E+03  0.12508872297E+03 0.  0.
          5    1    4    4  502    0 -0.22427270454E+02 -0.96730698703E+01 -0.24048658208E+03  0.24175983806E+03  0.41800000000E+01 0. -1.
         -5    1    4    4    0  502  0.57661221809E+02 -0.99371268835E+00 -0.49200335542E+02  0.75920678230E+02  0.41800000000E+01 0. -1.
        -11    1    3    3    0    0 -0.60009113958E+02  0.11343630015E+02 -0.10924086767E+03  0.12515326152E+03  0.00000000000E+00 0. -1.
         11    1    3    3    0    0  0.24775162603E+02 -0.67684745676E+00 -0.32484461685E+01  0.24996383879E+02  0.00000000000E+00 0.  1.
</event>
<event>
 8    1  0.5900800E-006  0.1027823E+03  0.7561462E-02  0.1274552E+00
          2   -1    0    0  501    0  0.00000000000E+00  0.00000000000E+00  0.29519880244E+02  0.29519880244E+02  0.00000000000E+00 0. -1.
         -2   -1    0    0    0  501 -0.00000000000E+00 -0.00000000000E+00 -0.48388400292E+03  0.48388400292E+03  0.00000000000E+00 0.  1.
         23    2    1    2    0    0  0.38542397785E+01 -0.51577890149E+02 -0.19918776000E+03  0.22454732268E+03  0.89836531950E+02 0.  0.
         23    2    1    2    0    0 -0.38542397785E+01  0.51577890149E+02 -0.25517636267E+03  0.28885656048E+03  0.12509197636E+03 0.  0.
          5    1    4    4  502    0 -0.41282288809E+02 -0.49636308563E+01 -0.19059585544E+03  0.19512333923E+03  0.41800000000E+01 0. -1.
         -5    1    4    4    0  502  0.37428049031E+02  0.56541521005E+02 -0.64580507230E+02  0.93733221250E+02  0.41800000000E+01 0. -1.
        -11    1    3    3    0    0  0.29955157221E+02  0.78207265311E+01 -0.10989279727E+03  0.11417049575E+03  0.00000000000E+00 0.  1.
         11    1    3    3    0    0 -0.26100917443E+02 -0.59398616680E+02 -0.89294962737E+02  0.11037682694E+03  0.00000000000E+00 0. -1.
</event>
<event>
 8    1  0.7774704E-006  0.1089984E+03  0.7561462E-02  0.1262436E+00
         -4   -1    0    0    0  501 -0.00000000000E+00  0.00000000000E+00  0.44923889837E+03  0.44923889837E+03  0.00000000000E+00 0.  1.
          4   -1    0    0  501    0  0.00000000000E+00 -0.00000000000E+00 -0.29934768760E+02  0.29934768760E+02  0.00000000000E+00 0. -1.
         23    2    1    2    0    0  0.17158575789E+02 -0.15112221703E+02  0.25620539795E+03  0.27236051286E+03  0.89533496841E+02 0.  0.
         23    2    1    2    0    0 -0.17158575789E+02  0.15112221703E+02  0.16309873165E+03  0.20681315427E+03  0.12509072125E+03 0.  0.
          5    1    4    4  502    0  0.53901225640E+02  0.43441587295E+01  0.82630176188E+02  0.98840438371E+02  0.41800000000E+01 0.  1.
         -5    1    4    4    0  502 -0.71059801429E+02  0.10768062974E+02  0.80468555464E+02  0.10797271590E+03  0.41800000000E+01 0.  1.
        -11    1    3    3    0    0 -0.35717923462E+02 -0.15383250321E+02  0.12466149422E+03  0.13058676268E+03  0.00000000000E+00 0. -1.
         11    1    3    3    0    0  0.52876499251E+02  0.27102861820E+00  0.13154390374E+03  0.14177375018E+03  0.00000000000E+00 0.  1.
</event>
<event>
 8    1  0.5900800E-006  0.4817035E+03  0.7561462E-02  0.1018668E+00
          1   -1    0    0  501    0  0.00000000000E+00  0.00000000000E+00  0.77132380716E+03  0.77132380716E+03  0.00000000000E+00 0. -1.
         -1   -1    0    0    0  501 -0.00000000000E+00 -0.00000000000E+00 -0.41265968355E+03  0.41265968355E+03  0.00000000000E+00 0.  1.
         23    2    1    2    0    0 -0.47671498633E+03  0.97648662114E+00 -0.11649864269E+03  0.49937642176E+03  0.92448608109E+02 0.  0.
         23    2    1    2    0    0  0.47671498633E+03 -0.97648662114E+00  0.47516276631E+03  0.68460706895E+03  0.12509617361E+03 0.  0.
          5    1    4    4  502    0  0.15336144208E+02 -0.16832050553E+02  0.15422347751E+01  0.23202718226E+02  0.41800000000E+01 0.  1.
         -5    1    4    4    0  502  0.46137884212E+03  0.15855563932E+02  0.47362053153E+03  0.66140435072E+03  0.41800000000E+01 0.  1.
        -11    1    3    3    0    0 -0.33189581775E+03 -0.18770715893E+02 -0.11931468218E+03  0.35318998712E+03  0.00000000000E+00 0.  1.
         11    1    3    3    0    0 -0.14481916857E+03  0.19747202514E+02  0.28160394861E+01  0.14618643464E+03  0.00000000000E+00 0. -1.
</event>
<event>
 8    1  0.5900800E-006  0.1270298E+03  0.7561462E-02  0.1231931E+00
          1   -1    0    0  501    0  0.00000000000E+00  0.00000000000E+00  0.50069294497E+03  0.50069294497E+03  0.00000000000E+00 0. -1.
         -1   -1    0    0    0  501 -0.00000000000E+00 -0.00000000000E+00 -0.50178065273E+02  0.50178065273E+02  0.00000000000E+00 0.  1.
         23    2    1    2    0    0  0.91587462636E+02 -0.53388285934E+02  0.12959268550E+03  0.19048649976E+03  0.90842006083E+02 0.  0.
         23    2    1    2    0    0 -0.91587462636E+02  0.53388285934E+02  0.32092219419E+03  0.36038451048E+03  0.12508944111E+03 0.  0.
          5    1    4    4  502    0 -0.40645434565E+02  0.48272455419E+02  0.29710747471E+03  0.30376406179E+03  0.41800000000E+01 0.  1.
         -5    1    4    4    0  502 -0.50942028072E+02  0.51158305143E+01  0.23814719482E+02  0.56620448691E+02  0.41800000000E+01 0.  1.
        -11    1    3    3    0    0  0.94625639923E+02 -0.91078652766E+01  0.92565917251E+02  0.13268539474E+03  0.00000000000E+00 0.  1.
         11    1    3    3    0    0 -0.30381772864E+01 -0.44280420657E+02  0.37026768248E+02  0.57801105021E+02  0.00000000000E+00 0. -1.
</event>
<event>
 7    1  0.5900800E-006  0.1396240E+03  0.7561462E-02  0.1213836E+00
          2   -1    0    0  501    0  0.00000000000E+00  0.00000000000E+00  0.24617934708E+03  0.24617934708E+03  0.00000000000E+00 0. -1.
         -2   -1    0    0    0  501 -0.00000000000E+00 -0.00000000000E+00 -0.18444900456E+03  0.18444900456E+03  0.00000000000E+00 0.  1.
         23    2    1    2    0    0  0.86198142165E+02  0.19349388720E+02 -0.13147145909E+03  0.18162307455E+03  0.88868881486E+02 0.  0.
          5    1    1    2  502    0 -0.73146118287E+02  0.46723082144E+02  0.85470490301E+02  0.12188551242E+03  0.41800000000E+01 0. -1.
         -5    1    1    2    0  502 -0.13052023878E+02 -0.66072470864E+02  0.10773131131E+03  0.12711976467E+03  0.41800000000E+01 0.  1.
        -11    1    3    3    0    0  0.32986643871E+02  0.52628788110E+02 -0.57835905484E+02  0.84869900289E+02  0.00000000000E+00 0. -1.
         11    1    3    3    0    0  0.53211498294E+02 -0.33279399390E+02 -0.73635553610E+02  0.96753174262E+02  0.00000000000E+00 0.  1.
</event>
<event>
 8    1  0.5900800E-006  0.8977335E+02  0.7561462E-02  0.1303401E+00
          4   -1    0    0  501    0  0.00000000000E+00  0.00000000000E+00  0.34162709723E+02  0.34162709723E+02  0.00000000000E+00 0. -1.
         -4   -1    0    0    0  501 -0.00000000000E+00 -0.00000000000E+00 -0.45395396005E+03  0.45395396005E+03  0.00000000000E+00 0.  1.
         23    2    1    2    0    0  0.25205462640E+02  0.53289907754E+02 -0.18556913874E+03  0.21611886349E+03  0.93788742861E+02 0.  0.
         23    2    1    2    0    0 -0.25205462640E+02 -0.53289907754E+02 -0.23422211159E+03  0.27199780629E+03  0.12509068491E+03 0.  0.
          5    1    4    4  502    0 -0.24299831743E+02  0.16906500589E+01 -0.21053255996E+03  0.21197823314E+03  0.41800000000E+01 0.  1.
         -5    1    4    4    0  502 -0.90563089679E+00 -0.54980557813E+02 -0.23689551629E+02  0.60019573150E+02  0.41800000000E+01 0.  1.
        -11    1    3    3    0    0 -0.91234481173E+01  0.63278521657E+02 -0.68445850046E+02  0.93660253028E+02  0.00000000000E+00 0. -1.
         11    1    3    3    0    0  0.34328910757E+02 -0.99886139034E+01 -0.11712328869E+03  0.12245861046E+03  0.00000000000E+00 0.  1.
</event>
<event>
 8    1  0.5900800E-006  0.1318811E+03  0.7561462E-02  0.1224691E+00
          1   -1    0    0  501    0  0.00000000000E+00  0.00000000000E+00  0.45402781026E+02  0.45402781026E+02  0.00000000000E+00 0. -1.
         -1   -1    0    0    0  501 -0.00000000000E+00 -0.00000000000E+00 -0.53455164775E+03  0.53455164775E+03  0.00000000000E+00 0.  1.
         23    2    1    2    0    0 -0.91836395349E+02 -0.38141430950E+02 -0.32039020623E+03  0.34754266478E+03  0.90814796830E+02 0.  0.
         23    2    1    2    0    0  0.91836395349E+02  0.38141430950E+02 -0.16875866049E+03  0.23241176400E+03  0.12508817006E+03 0.  0.
          5    1    4    4  502    0  0.10756823743E+03  0.38329167600E+02 -0.17958798158E+03  0.21285996881E+03  0.41800000000E+01 0. -1.
         -5    1    4    4    0  502 -0.15731842076E+02 -0.18773664980E+00  0.10829321089E+02  0.19551795196E+02  0.41800000000E+01 0. -1.
        -11    1    3    3    0    0  0.58464888604E+01  0.19113828878E+02 -0.68873187438E+02  0.71714962416E+02  0.00000000000E+00 0. -1.
         11    1    3    3    0    0 -0.97682884210E+02 -0.57255259828E+02 -0.25151701880E+03  0.27582770236E+03  0.00000000000E+00 0.  1.
</event>
<event>
 8    1  0.5900800E-006  0.7928106E+02  0.7561462E-02  0.1331104E+00
          1   -1    0    0  501    0  0.00000000000E+00  0.00000000000E+00  0.58897336056E+03  0.58897336056E+03  0.00000000000E+00 0. -1.
         -1   -1    0    0    0  501 -0.00000000000E+00 -0.00000000000E+00 -0.31423080070E+02  0.31423080070E+02  0.00000000000E+00 0.  1.
         23    2    1    2    0    0  0.18451379822E+02  0.19323635708E+02  0.85536857740E+02  0.13135824041E+03  0.96044661373E+02 0.  0.
         23    2    1    2    0    0 -0.18451379822E+02 -0.19323635708E+02  0.47201342275E+03  0.48903820021E+03  0.12509130145E+03 0.  0.
          5    1    4    4  502    0 -0.20478377250E+02  0.23044202220E+02  0.42276187768E+03  0.42390503277E+03  0.41800000000E+01 0. -1.
         -5    1    4    4    0  502  0.20269974282E+01 -0.42367837928E+02  0.49251545070E+02  0.65133167442E+02  0.41800000000E+01 0. -1.
        -11    1    3    3    0    0 -0.14626760880E+02 -0.25335472345E+02 -0.11661977833E+00  0.29254775559E+02  0.00000000000E+00 0.  1.
         11    1    3    3    0    0  0.33078140702E+02  0.44659108054E+02  0.85653477518E+02  0.10210346485E+03  0.00000000000E+00 0. -1.
</event>
<event>
 8    1  0.5900800E-006  0.1251989E+03  0.7561462E-02  0.1234759E+00
         -2   -1    0    0    0  501 -0.00000000000E+00  0.00000000000E+00  0.56125206388E+02  0.56125206388E+02  0.00000000000E+00 0.  1.
          2   -1    0    0  501    0  0.00000000000E+00 -0.00000000000E+00 -0.54074863739E+03  0.54074863739E+03  0.00000000000E+00 0. -1.
         23    2    1    2    0    0  0.51918680465E+01 -0.96696554073E+02 -0.59693828249E+02  0.14345300705E+03  0.87396985293E+02 0.  0.
         23    2    1    2    0    0 -0.51918680465E+01  0.96696554073E+02 -0.42492960276E+03  0.45342083673E+03  0.12509240112E+03 0.  0.
          5    1    4    4  502    0 -0.10955735924E+01  0.12477016046E+03 -0.29438699992E+03  0.31976549430E+03  0.41800000000E+01 0.  1.
         -5    1    4    4    0  502 -0.40962944541E+01 -0.28073606390E+02 -0.13054260284E+03  0.13365534243E+03  0.41800000000E+01 0.  1.
        -11    1    3    3    0    0  0.52009150678E+01 -0.75375737404E+02 -0.82747071013E+02  0.11205190346E+03  0.00000000000E+00 0. -1.
         11    1    3    3    0    0 -0.90470213346E-02 -0.21320816669E+02  0.23053242764E+02  0.31401103598E+02  0.00000000000E+00 0.  1.
</event>
<event>
 8    1  0.5900800E-006  0.2027132E+03  0.7561462E-02  0.1147470E+00
         -2   -1    0    0    0  501 -0.00000000000E+00  0.00000000000E+00  0.77529005940E+02  0.77529005940E+02  0.00000000000E+00 0. -1.
          2   -1    0    0  501    0  0.00000000000E+00 -0.00000000000E+00 -0.57715846048E+03  0.57715846048E+03  0.00000000000E+00 0.  1.
         23    2    1    2    0    0 -0.82977375185E+02 -0.15782483572E+03 -0.28925187949E+03  0.35186682715E+03  0.91376641973E+02 0.  0.
         23    2    1    2    0    0  0.82977375185E+02  0.15782483572E+03 -0.21037757505E+03  0.30282063927E+03  0.12509073475E+03 0.  0.
          5    1    4    4  502    0  0.81340162684E+02  0.38491046830E+02 -0.13260453586E+03  0.16030975667E+03  0.41800000000E+01 0. -1.
         -5    1    4    4    0  502  0.16372125008E+01  0.11933378889E+03 -0.77773039190E+02  0.14251088260E+03  0.41800000000E+01 0. -1.
        -11    1    3    3    0    0 -0.63593694219E+02 -0.16374132197E+03 -0.27754818793E+03  0.32846365871E+03  0.00000000000E+00 0.  1.
         11    1    3    3    0    0 -0.19383680965E+02  0.59164862486E+01 -0.11703691558E+02  0.23403168447E+02  0.00000000000E+00 0. -1.
</event>
<event>
 8    1  0.5900800E-006  0.1290456E+03  0.7561462E-02  0.1228879E+00
          2   -1    0    0  501    0  0.00000000000E+00  0.00000000000E+00  0.24322294259E+03  0.24322294259E+03  0.00000000000E+00 0. -1.
         -2   -1    0    0    0  501 -0.00000000000E+00 -0.00000000000E+00 -0.73478654695E+02  0.73478654695E+02  0.00000000000E+00 0.  1.
         23    2    1    2    0    0  0.77795571472E+01  0.49340481092E+02  0.49983954906E+02  0.13646474502E+03  0.11674427739E+03 0.  0.
         23    2    1    2    0    0 -0.77795571472E+01 -0.49340481092E+02  0.11976033299E+03  0.18023685226E+03  0.12509109070E+03 0.  0.
          5    1    4    4  502    0 -0.39168446166E+02  0.28365338003E+02  0.60224354739E+02  0.77351178910E+02  0.41800000000E+01 0. -1.
         -5    1    4    4    0  502  0.31388889019E+02 -0.77705819095E+02  0.59535978253E+02  0.10288567335E+03  0.41800000000E+01 0. -1.
        -11    1    3    3    0    0 -0.51555858427E+02  0.54649981615E+01  0.10975432186E+02  0.52993705802E+02  0.00000000000E+00 0. -1.
         11    1    3    3    0    0  0.59335415574E+02  0.43875482930E+02  0.39008522721E+02  0.83471039220E+02  0.00000000000E+00 0.  1.
</event>
<event>
 8    1  0.5900800E-006  0.8806750E+02  0.7561462E-02  0.1307600E+00
          2   -1    0    0  501    0  0.00000000000E+00  0.00000000000E+00  0.36579402115E+03  0.36579402115E+03  0.00000000000E+00 0.  1.
         -2   -1    0    0    0  501 -0.00000000000E+00 -0.00000000000E+00 -0.62265393819E+02  0.62265393819E+02  0.00000000000E+00 0. -1.
         23    2    1    2    0    0  0.30565011491E+02  0.74801806447E+02  0.44836966795E+02  0.12957048154E+03  0.90821946251E+02 0.  0.
         23    2    1    2    0    0 -0.30565011491E+02 -0.74801806447E+02  0.25869166053E+03  0.29848893342E+03  0.12507892697E+03 0.  0.
          5    1    4    4  502    0 -0.37405963121E+01 -0.64113523066E+02  0.26138207195E+03  0.26918877361E+03  0.41800000000E+01 0.  1.
         -5    1    4    4    0  502 -0.26824415179E+02 -0.10688283381E+02 -0.26904114190E+01  0.29300159811E+02  0.41800000000E+01 0.  1.
        -11    1    3    3    0    0  0.13694966409E+02  0.14340049352E+02 -0.27431066907E+02  0.33847489597E+02  0.00000000000E+00 0. -1.
         11    1    3    3    0    0  0.16870045082E+02  0.60461757094E+02  0.72268033702E+02  0.95722991946E+02  0.00000000000E+00 0.  1.
</event>
<event>
 8    1  0.5900800E-006  0.1087639E+03  0.7561462E-02  0.1262876E+00
         -3   -1    0    0    0  501 -0.00000000000E+00  0.00000000000E+00  0.51882177118E+02  0.51882177118E+02  0.00000000000E+00 0.  1.
          3   -1    0    0  501    0  0.00000000000E+00 -0.00000000000E+00 -0.32657853154E+03  0.32657853154E+03  0.00000000000E+00 0. -1.
         23    2    1    2    0    0 -0.39414569574E+02 -0.59724736114E+02 -0.94893499789E+02  0.14799257125E+03  0.88184309513E+02 0.  0.
         23    2    1    2    0    0  0.39414569574E+02  0.59724736114E+02 -0.17980285463E+03  0.23046813741E+03  0.12516366656E+03 0.  0.
          5    1    4    4  502    0  0.43954641054E+02  0.93923402425E+02 -0.10324332251E+03  0.14639081951E+03  0.41800000000E+01 0.  1.
         -5    1    4    4    0  502 -0.45400714798E+01 -0.34198666311E+02 -0.76559532124E+02  0.84077317902E+02  0.41800000000E+01 0.  1.
        -11    1    3    3    0    0 -0.29311054189E+02 -0.62050567375E+02 -0.11001161189E+03  0.12966096391E+03  0.00000000000E+00 0. -1.
         11    1    3    3    0    0 -0.10103515385E+02  0.23258312610E+01  0.15118112106E+02  0.18331607344E+02  0.00000000000E+00 0.  1.
</event>
<event>
 8    1  0.5900800E-006  0.1027019E+03  0.7561462E-02  0.1274715E+00
         -3   -1    0    0    0  501 -0.00000000000E+00  0.00000000000E+00  0.21679451935E+02  0.21679451935E+02  0.00000000000E+00 0.  1.
          3   -1    0    0  501    0  0.00000000000E+00 -0.00000000000E+00 -0.56335544572E+03  0.56335544572E+03  0.00000000000E+00 0. -1.
         23    2    1    2    0    0 -0.16179543507E+01 -0.10827326207E+02 -0.17929206308E+03  0.20151283613E+03  0.91334169257E+02 0.  0.
         23    2    1    2    0    0  0.16179543507E+01  0.10827326207E+02 -0.36238393070E+03  0.38352206152E+03  0.12508880714E+03 0.  0.
          5    1    4    4  502    0 -0.42526785514E+02 -0.30998495342E+02 -0.89468974972E+02  0.10388264572E+03  0.41800000000E+01 0. -1.
         -5    1    4    4    0  502  0.44144739865E+02  0.41825821548E+02 -0.27291495573E+03  0.27963941580E+03  0.41800000000E+01 0. -1.
        -11    1    3    3    0    0  0.41073185299E+02 -0.23247067699E+02 -0.10084017927E+03  0.11133810876E+03  0.00000000000E+00 0.  1.
         11    1    3    3    0    0 -0.42691139650E+02  0.12419741492E+02 -0.78451883807E+02  0.90174727370E+02  0.00000000000E+00 0. -1.
</event>
<event>
 7    1  0.5900800E-006  0.1107810E+03  0.7561462E-02  0.1259130E+00
         -1   -1    0    0    0  501 -0.00000000000E+00  0.00000000000E+00  0.41611960987E+02  0.41611960987E+02  0.00000000000E+00 0.  1.
          1   -1    0    0  501    0  0.00000000000E+00 -0.00000000000E+00 -0.40428305031E+03  0.40428305031E+03  0.00000000000E+00 0. -1.
         23    2    1    2    0    0 -0.30975286299E+02 -0.26202344314E+02 -0.94468738212E+02  0.13757306087E+03  0.91411013389E+02 0.  0.
          5    1    1    2  502    0  0.72946509161E+02  0.57181309541E+02 -0.12365570123E+03  0.15459333817E+03  0.41800000000E+01 0. -1.
         -5    1    1    2    0  502 -0.41971222862E+02 -0.30978965227E+02 -0.14454664988E+03  0.15372861226E+03  0.41800000000E+01 0.  1.
        -11    1    3    3    0    0  0.40638336811E+01 -0.38950172299E+02 -0.35696717005E+01  0.39323952273E+02  0.00000000000E+00 0.  1.
         11    1    3    3    0    0 -0.35039119980E+02  0.12747827985E+02 -0.90899066511E+02  0.98249108596E+02  0.00000000000E+00 0. -1.
</event>
<event>
 8    1  0.5900800E-006  0.8500471E+02  0.7561462E-02  0.1315420E+00
          3   -1    0    0  501    0  0.00000000000E+00  0.00000000000E+00  0.13614899863E+03  0.13614899863E+03  0.00000000000E+00 0. -1.
         -3   -1    0    0    0  501 -0.00000000000E+00 -0.00000000000E+00 -0.10249001005E+03  0.10249001005E+03  0.00000000000E+00 0.  1.
         23    2    1    2    0    0 -0.36817896163E+00 -0.28995120360E+02 -0.26207844896E+02  0.98328074223E+02  0.90225863730E+02 0.  0.
         23    2    1    2    0    0  0.36817896163E+00  0.28995120360E+02  0.59866833472E+02  0.14031093446E+03  0.12354055212E+03 0.  0.
          5    1    4    4  502    0  0.77626830974E+01  0.51072279258E+02  0.88873678431E+02  0.10288167998E+03  0.41800000000E+01 0. -1.
         -5    1    4    4    0  502 -0.73945041357E+01 -0.22077158898E+02 -0.29006844959E+02  0.37429254480E+02  0.41800000000E+01 0.  1.
        -11    1    3    3    0    0  0.19843081500E+02  0.27849742454E+02 -0.12889918958E+02  0.36544576190E+02  0.00000000000E+00 0. -1.
         11    1    3    3    0    0 -0.20211260462E+02 -0.56844862814E+02 -0.13317925939E+02  0.61783498032E+02  0.00000000000E+00 0.  1.
</event>
<event>
 8    1  0.5900800E-006  0.1237988E+03  0.7561462E-02  0.1236959E+00
          1   -1    0    0  501    0  0.00000000000E+00  0.00000000000E+00  0.48498125049E+03  0.48498125049E+03  0.00000000000E+00 0. -1.
         -1   -1    0    0    0  501 -0.00000000000E+00 -0.00000000000E+00 -0.50297532173E+02  0.50297532173E+02  0.00000000000E+00 0.  1.
         23    2    1    2    0    0 -0.96230103773E+02  0.36446406491E+02  0.20180697524E+03  0.25160911401E+03  0.10951035374E+03 0.  0.
         23    2    1    2    0    0  0.96230103773E+02 -0.36446406491E+02  0.23287674307E+03  0.28366966865E+03  0.12509328532E+03 0.  0.
          5    1    4    4  502    0  0.54938190535E+02 -0.28185158216E+02  0.23328098336E+03  0.24135056975E+03  0.41800000000E+01 0. -1.
         -5    1    4    4    0  502  0.41291913238E+02 -0.82612482746E+01 -0.40424028355E+00  0.42319098905E+02  0.41800000000E+01 0. -1.
        -11    1    3    3    0    0 -0.74435430464E+02  0.70786843313E+02  0.10639407896E+03  0.14788884519E+03  0.00000000000E+00 0.  1.
         11    1    3    3    0    0 -0.21794673308E+02 -0.34340436823E+02  0.95412896287E+02  0.10372026882E+03  0.00000000000E+00 0. -1.
</event>
<event>
 8    1  0.5900800E-006  0.9284217E+02  0.7561462E-02  0.1296111E+00
          2   -1    0    0  501    0  0.00000000000E+00  0.00000000000E+00  0.19956667825E+03  0.19956667825E+03  0.00000000000E+00 0. -1.
         -2   -1    0    0    0  501 -0.00000000000E+00 -0.00000000000E+00 -0.81886772874E+02  0.81886772874E+02  0.00000000000E+00 0.  1.
         23    2    1    2    0    0  0.34044298969E+02 -0.39760430349E+02  0.14565502098E+01  0.10288418398E+03  0.88561434390E+02 0.  0.
         23    2    1    2    0    0 -0.34044298969E+02  0.39760430349E+02  0.11622335516E+03  0.17856926714E+03  0.12505682216E+03 0.  0.
          5    1    4    4  502    0 -0.16804231415E+02  0.64096514327E+02  0.12959958782E+03  0.14561686339E+03  0.41800000000E+01 0. -1.
         -5    1    4    4    0  502 -0.17240067554E+02 -0.24336083978E+02 -0.13376232654E+02  0.32952403746E+02  0.41800000000E+01 0. -1.
        -11    1    3    3    0    0 -0.21334434618E+02 -0.58938554882E+00  0.23323478168E+02  0.31614713499E+02  0.00000000000E+00 0. -1.
         11    1    3    3    0    0  0.55378733587E+02 -0.39171044800E+02 -0.21866927958E+02  0.71269470482E+02  0.00000000000E+00 0.  1.
</event>
<event>
 8    1  0.5900800E-006  0.9002546E+02  0.7561462E-02  0.1302790E+00
          2   -1    0    0  501    0  0.00000000000E+00  0.00000000000E+00  0.41154731865E+03  0.41154731865E+03  0.00000000000E+00 0. -1.
         -2   -1    0    0    0  501 -0.00000000000E+00 -0.00000000000E+00 -0.35690985016E+02  0.35690985016E+02  0.00000000000E+00 0.  1.
         23    2    1    2    0    0  0.34003842971E+02 -0.17030734893E+01  0.90739026797E+02  0.13403141996E+03  0.92583415128E+02 0.  0.
         23    2    1    2    0    0 -0.34003842971E+02  0.17030734893E+01  0.28511730684E+03  0.31320688371E+03  0.12509001377E+03 0.  0.
          5    1    4    4  502    0  0.40729893217E+02  0.20802762546E+02  0.15722568492E+03  0.16379581047E+03  0.41800000000E+01 0.  1.
         -5    1    4    4    0  502 -0.74733736188E+02 -0.19099689057E+02  0.12789162192E+03  0.14941107323E+03  0.41800000000E+01 0.  1.
        -11    1    3    3    0    0  0.18741536082E+02 -0.23630511082E+02  0.10100419811E+03  0.10541107278E+03  0.00000000000E+00 0. -1.
         11    1    3    3    0    0  0.15262306889E+02  0.21927437592E+02 -0.10265171311E+02  0.28620347185E+02  0.00000000000E+00 0.  1.
</event>
<event>
 8    1  0.5900800E-006  0.6935312E+02  0.7561462E-02  0.1362307E+00
         -1   -1    0    0    0  501 -0.00000000000E+00  0.00000000000E+00  0.76967545047E+01  0.76967545047E+01  0.00000000000E+00 0.  1.
          1   -1    0    0  501    0  0.00000000000E+00 -0.00000000000E+00 -0.16586423444E+04  0.16586423444E+04  0.00000000000E+00 0. -1.
         23    2    1    2    0    0  0.45991466631E+01  0.19435846998E+02 -0.51654393145E+03  0.52488632430E+03  0.91044582599E+02 0.  0.
         23    2    1    2    0    0 -0.45991466631E+01 -0.19435846998E+02 -0.11344016585E+04  0.11414527746E+04  0.12509360364E+03 0.  0.
          5    1    4    4  502    0  0.12903761094E+02  0.55921280515E+01 -0.12925366332E+02  0.19552913884E+02  0.41800000000E+01 0.  1.
         -5    1    4    4    0  502 -0.17502907757E+02 -0.25027975050E+02 -0.11214762921E+04  0.11218998608E+04  0.41800000000E+01 0.  1.
        -11    1    3    3    0    0 -0.11819759026E+02 -0.34689668507E+02 -0.20229769997E+03  0.20559046480E+03  0.00000000000E+00 0. -1.
         11    1    3    3    0    0  0.16418905689E+02  0.54125515505E+02 -0.31424623148E+03  0.31929585950E+03  0.00000000000E+00 0.  1.
</event>
<event>
 8    1  0.5900800E-006  0.9663203E+02  0.7561462E-02  0.1287542E+00
         -1   -1    0    0    0  501 -0.00000000000E+00  0.00000000000E+00  0.27261541636E+02  0.27261541636E+02  0.00000000000E+00 0.  1.
          1   -1    0    0  501    0  0.00000000000E+00 -0.00000000000E+00 -0.64040011184E+03  0.64040011184E+03  0.00000000000E+00 0. -1.
         23    2    1    2    0    0 -0.18655904450E+02  0.39230391593E+02 -0.11871725963E+03  0.15581616354E+03  0.91092385473E+02 0.  0.
         23    2    1    2    0    0  0.18655904450E+02 -0.39230391593E+02 -0.49442131057E+03  0.51184548993E+03  0.12508519825E+03 0.  0.
          5    1    4    4  502    0  0.67679687980E+02 -0.77239570874E+01 -0.33909281924E+03  0.34589248639E+03  0.41800000000E+01 0.  1.
         -5    1    4    4    0  502 -0.49023783529E+02 -0.31506434506E+02 -0.15532849133E+03  0.16595300354E+03  0.41800000000E+01 0.  1.
        -11    1    3    3    0    0 -0.22600856591E+02 -0.41958494940E+01  0.59486349502E+01  0.23744265190E+02  0.00000000000E+00 0.  1.
         11    1    3    3    0    0  0.39449521411E+01  0.43426241087E+02 -0.12466589458E+03  0.13207189835E+03  0.00000000000E+00 0. -1.
</event>
<event>
 8    1  0.5900800E-006  0.1135741E+03  0.7561462E-02  0.1254091E+00
          3   -1    0    0  501    0  0.00000000000E+00  0.00000000000E+00  0.15690794894E+03  0.15690794894E+03  0.00000000000E+00 0. -1.
         -3   -1    0    0    0  501 -0.00000000000E+00 -0.00000000000E+00 -0.14839456293E+03  0.14839456293E+03  0.00000000000E+00 0.  1.
         23    2    1    2    0    0 -0.30542487601E+02 -0.92407990162E+02 -0.40358924511E+02  0.13944940598E+03  0.91352141986E+02 0.  0.
         23    2    1    2    0    0  0.30542487601E+02  0.92407990162E+02  0.48872310519E+02  0.16585310589E+03  0.12508664917E+03 0.  0.
          5    1    4    4  502    0  0.29493255576E+02 -0.58293761197E+01  0.59653835104E+02  0.66931951959E+02  0.41800000000E+01 0. -1.
         -5    1    4    4    0  502  0.10492320252E+01  0.98237366282E+02 -0.10781524585E+02  0.98921153926E+02  0.41800000000E+01 0. -1.
        -11    1    3    3    0    0 -0.28156906957E+02 -0.63567473592E+02 -0.69553121021E+02  0.98342624289E+02  0.00000000000E+00 0.  1.
         11    1    3    3    0    0 -0.23855806443E+01 -0.28840516569E+02  0.29194196510E+02  0.41106781689E+02  0.00000000000E+00 0. -1.
</event>
<event>
 8    1  0.5900800E-006  0.1242208E+03  0.7561462E-02  0.1236292E+00
         -1   -1    0    0    0  501 -0.00000000000E+00  0.00000000000E+00  0.28384377465E+03  0.28384377465E+03  0.00000000000E+00 0.  1.
          1   -1    0    0  501    0  0.00000000000E+00 -0.00000000000E+00 -0.91706167117E+02  0.91706167117E+02  0.00000000000E+00 0. -1.
         23    2    1    2    0    0  0.26321878994E+02 -0.67479994447E+02  0.20312565009E+03  0.23058394124E+03  0.81624342372E+02 0.  0.
         23    2    1    2    0    0 -0.26321878994E+02  0.67479994447E+02 -0.10988042562E+02  0.14496600052E+03  0.12509201919E+03 0.  0.
          5    1    4    4  502    0 -0.10408933640E+01  0.99756772922E+02 -0.22134490805E+02  0.10227367836E+03  0.41800000000E+01 0. -1.
         -5    1    4    4    0  502 -0.25280985630E+02 -0.32276778475E+02  0.11146448243E+02  0.42692322161E+02  0.41800000000E+01 0. -1.
        -11    1    3    3    0    0  0.12167020028E+02  0.17453235488E+02  0.58726052123E+02  0.62461195981E+02  0.00000000000E+00 0. -1.
         11    1    3    3    0    0  0.14154858966E+02 -0.84933229935E+02  0.14439959797E+03  0.16812274526E+03  0.00000000000E+00 0.  1.
</event>
<event>
 8    1  0.5900800E-006  0.1045141E+03  0.7561462E-02  0.1271080E+00
         -1   -1    0    0    0  501 -0.00000000000E+00  0.00000000000E+00  0.80370300541E+02  0.80370300541E+02  0.00000000000E+00 0. -1.
          1   -1    0    0  501    0  0.00000000000E+00 -0.00000000000E+00 -0.24355586413E+03  0.24355586413E+03  0.00000000000E+00 0.  1.
         23    2    1    2    0    0  0.30709546104E+02 -0.28020638054E+02  0.12890631289E+02  0.10397552066E+03  0.94427263765E+02 0.  0.
         23    2    1    2    0    0 -0.30709546104E+02  0.28020638054E+02 -0.17607619488E+03  0.21995064402E+03  0.12508887649E+03 0.  0.
          5    1    4    4  502    0  0.21809895089E+02 -0.36355316087E+02 -0.30890944693E+02  0.52622270908E+02  0.41800000000E+01 0. -1.
         -5    1    4    4    0  502 -0.52519441193E+02  0.64375954141E+02 -0.14518525019E+03  0.16732837311E+03  0.41800000000E+01 0. -1.
        -11    1    3    3    0    0  0.35721300135E+01 -0.48881286360E+02 -0.23208255493E+02  0.54228805925E+02  0.00000000000E+00 0.  1.
         11    1    3    3    0    0  0.27137416091E+02  0.20860648305E+02  0.36098886782E+02  0.49746714733E+02  0.00000000000E+00 0. -1.
</event>
<event>
 8    1  0.5900800E-006  0.2704468E+03  0.7561462E-02  0.1101024E+00
         -2   -1    0    0    0  501 -0.00000000000E+00  0.00000000000E+00  0.25161382173E+03  0.25161382173E+03  0.00000000000E+00 0.  1.
          2   -1    0    0  501    0  0.00000000000E+00 -0.00000000000E+00 -0.33666735607E+03  0.33666735607E+03  0.00000000000E+00 0. -1.
         23    2    1    2    0    0  0.25166616879E+03  0.53130453147E+02 -0.11257768415E+03  0.30094232637E+03  0.10832286585E+03 0.  0.
         23    2    1    2    0    0 -0.25166616879E+03 -0.53130453147E+02  0.27524149811E+02  0.28733885144E+03  0.12508929275E+03 0.  0.
          5    1    4    4  502    0 -0.26264926580E+03 -0.39668704444E+02  0.16139117895E+02  0.26615068376E+03  0.41800000000E+01 0.  1.
         -5    1    4    4    0  502  0.10983097012E+02 -0.13461748703E+02  0.11385031916E+02  0.21188167685E+02  0.41800000000E+01 0.  1.
        -11    1    3    3    0    0  0.46048942774E+02  0.62717324728E+01  0.21326113547E+02  0.51133578770E+02  0.00000000000E+00 0.  1.
         11    1    3    3    0    0  0.20561722601E+03  0.46858720674E+02 -0.13390379770E+03  0.24980874760E+03  0.00000000000E+00 0. -1.
</event>
<event>
 8    1  0.5900800E-006  0.8334140E+02  0.7561462E-02  0.1319828E+00
         -1   -1    0    0    0  501 -0.00000000000E+00  0.00000000000E+00  0.57314315492E+03  0.57314315492E+03  0.00000000000E+00 0.  1.
          1   -1    0    0  501    0  0.00000000000E+00 -0.00000000000E+00 -0.23782671473E+02  0.23782671473E+02  0.00000000000E+00 0. -1.
         23    2    1    2    0    0  0.42974698733E+01 -0.30213652050E+02  0.32298018817E+03  0.33649035763E+03  0.89320914758E+02 0.  0.
         23    2    1    2    0    0 -0.42974698733E+01  0.30213652050E+02  0.22638029528E+03  0.26043546876E+03  0.12508901743E+03 0.  0.
          5    1    4    4  502    0 -0.13455297839E+02  0.51807174312E+02  0.27853171576E+02  0.60483881464E+02  0.41800000000E+01 0.  1.
         -5    1    4    4    0  502  0.91578279654E+01 -0.21593522261E+02  0.19852712371E+03  0.19995158730E+03  0.41800000000E+01 0.  1.
        -11    1    3    3    0    0  0.18103606856E+01 -0.59625166361E+02  0.26249068265E+03  0.26918357369E+03  0.00000000000E+00 0. -1.
         11    1    3    3    0    0  0.24871091877E+01  0.29411514311E+02  0.60489505517E+02  0.67306783937E+02  0.00000000000E+00 0.  1.
</event>
<event>
 8    1  0.5900800E-006  0.1090387E+03  0.7561462E-02  0.1262360E+00
         -4   -1    0    0    0  501 -0.00000000000E+00  0.00000000000E+00  0.14984740679E+03  0.14984740679E+03  0.00000000000E+00 0.  1.
          4   -1    0    0  501    0  0.00000000000E+00 -0.00000000000E+00 -0.11217911834E+03  0.11217911834E+03  0.00000000000E+00 0. -1.
         23    2    1    2    0    0  0.50938549034E+02  0.18334998882E+01  0.67991773208E+02  0.12358418071E+03  0.89733332703E+02 0.  0.
         23    2    1    2    0    0 -0.50938549034E+02 -0.18334998882E+01 -0.30323484759E+02  0.13844234442E+03  0.12509465016E+03 0.  0.
          5    1    4    4  502    0 -0.78286514634E+02  0.18524879200E+02 -0.53770332295E+02  0.96853861864E+02  0.41800000000E+01 0. -1.
         -5    1    4    4    0  502  0.27347965600E+02 -0.20358379088E+02  0.23446847536E+02  0.41588482551E+02  0.41800000000E+01 0. -1.
        -11    1    3    3    0    0  0.75576410556E+02 -0.92783843637E+01  0.51439296420E+02  0.91890605968E+02  0.00000000000E+00 0.  1.
         11    1    3    3    0    0 -0.24637861523E+02  0.11111884252E+02  0.16552476788E+02  0.31693574741E+02  0.00000000000E+00 0. -1.
</event>
<event>
 8    1  0.5900800E-006  0.9902428E+02  0.7561462E-02  0.1282361E+00
          1   -1    0    0  501    0  0.00000000000E+00  0.00000000000E+00  0.13009667126E+03  0.13009667126E+03  0.00000000000E+00 0. -1.
         -1   -1    0    0    0  501 -0.00000000000E+00 -0.00000000000E+00 -0.14845609387E+03  0.14845609387E+03  0.00000000000E+00 0.  1.
         23    2    1    2    0    0 -0.39344765904E+02  0.16091852959E+02 -0.79383053337E+02  0.13303002345E+03  0.97920169762E+02 0.  0.
         23    2    1    2    0    0  0.39344765904E+02 -0.16091852959E+02  0.61023630729E+02  0.14552274169E+03  0.12508407774E+03 0.  0.
          5    1    4    4  502    0  0.70346505764E+02 -0.25923659229E+02  0.78278012371E+02  0.10846928875E+03  0.41800000000E+01 0. -1.
         -5    1    4    4    0  502 -0.31001739859E+02  0.98318062703E+01 -0.17254381642E+02  0.37053452939E+02  0.41800000000E+01 0. -1.
        -11    1    3    3    0    0 -0.43238105014E+02 -0.24294886849E+02 -0.77999933571E+02  0.92432488278E+02  0.00000000000E+00 0.  1.
         11    1    3    3    0    0  0.38933391092E+01  0.40386739808E+02 -0.13831197667E+01  0.40597535172E+02  0.00000000000E+00 0. -1.
</event>
<event>
 8    1  0.5900800E-006  0.6103220E+02  0.7561462E-02  0.1393550E+00
          2   -1    0    0  501    0  0.00000000000E+00  0.00000000000E+00  0.12381172248E+03  0.12381172248E+03  0.00000000000E+00 0.  1.
         -2   -1    0    0    0  501 -0.00000000000E+00 -0.00000000000E+00 -0.10264605895E+03  0.10264605895E+03  0.00000000000E+00 0. -1.
         23    2    1    2    0    0  0.80190988660E+01 -0.14355194572E+02 -0.24908433097E+02  0.92143181875E+02  0.87175445906E+02 0.  0.
         23    2    1    2    0    0 -0.80190988660E+01  0.14355194572E+02  0.46074096632E+02  0.13431459956E+03  0.12508881531E+03 0.  0.
          5    1    4    4  502    0 -0.42175847356E+02  0.25690800349E+02 -0.24273020654E+02  0.55185788519E+02  0.41800000000E+01 0. -1.
         -5    1    4    4    0  502  0.34156748490E+02 -0.11335605777E+02  0.70347117285E+02  0.79128811037E+02  0.41800000000E+01 0. -1.
        -11    1    3    3    0    0  0.20282811652E+02 -0.51152061398E+01  0.29188095867E+02  0.35909646653E+02  0.00000000000E+00 0.  1.
         11    1    3    3    0    0 -0.12263712786E+02 -0.92399884324E+01 -0.54096528965E+02  0.56233535222E+02  0.00000000000E+00 0. -1.
</event>
<event>
 8    1  0.5900800E-006  0.9196531E+02  0.7561462E-02  0.1298161E+00
         -2   -1    0    0    0  501 -0.00000000000E+00  0.00000000000E+00  0.75772024144E+02  0.75772024144E+02  0.00000000000E+00 0.  1.
          2   -1    0    0  501    0  0.00000000000E+00 -0.00000000000E+00 -0.16495028021E+03  0.16495028021E+03  0.00000000000E+00 0. -1.
         23    2    1    2    0    0  0.12771186255E+02  0.17898125910E+01 -0.15769136919E+01  0.87471681498E+02  0.86501455362E+02 0.  0.
         23    2    1    2    0    0 -0.12771186255E+02 -0.17898125910E+01 -0.87601342370E+02  0.15325062285E+03  0.12508177962E+03 0.  0.
          5    1    4    4  502    0 -0.38754231493E+02 -0.52106889979E+02 -0.65464737339E+02  0.92304510598E+02  0.41800000000E+01 0. -1.
         -5    1    4    4    0  502  0.25983045238E+02  0.50317077388E+02 -0.22136605031E+02  0.60946112255E+02  0.41800000000E+01 0. -1.
        -11    1    3    3    0    0  0.36560874999E+02  0.81297874013E+01  0.29605305892E+02  0.47741650169E+02  0.00000000000E+00 0.  1.
         11    1    3    3    0    0 -0.23789688744E+02 -0.63399748103E+01 -0.31182219584E+02  0.39730031328E+02  0.00000000000E+00 0. -1.
</event>
<event>
 8    1  0.5900800E-006  0.1751903E+03  0.7561462E-02  0.1172541E+00
          2   -1    0    0  501    0  0.00000000000E+00  0.00000000000E+00  0.80604661856E+03  0.80604661856E+03  0.00000000000E+00 0.  1.
         -2   -1    0    0    0  501 -0.00000000000E+00 -0.00000000000E+00 -0.62500068054E+02  0.62500068054E+02  0.00000000000E+00 0. -1.
         23    2    1    2    0    0  0.51413861454E+01  0.16612141442E+03  0.15429406999E+03  0.24365573134E+03  0.89099366996E+02 0.  0.
         23    2    1    2    0    0 -0.51413861454E+01 -0.16612141442E+03  0.58925248052E+03  0.62489095528E+03  0.12508981577E+03 0.  0.
          5    1    4    4  502    0 -0.93964390761E+00 -0.46995809807E+02  0.38867958844E+03  0.39153388607E+03  0.41800000000E+01 0.  1.
         -5    1    4    4    0  502 -0.42017422378E+01 -0.11912560461E+03  0.20057289207E+03  0.23335706920E+03  0.41800000000E+01 0.  1.
        -11    1    3    3    0    0 -0.22173043212E+02  0.15115192423E+03  0.14624386589E+03  0.21148478989E+03  0.00000000000E+00 0. -1.
         11    1    3    3    0    0  0.27314429358E+02  0.14969490188E+02  0.80502041026E+01  0.32170941449E+02  0.00000000000E+00 0.  1.
</event>
<event>
 8    1  0.5900800E-006  0.2037441E+03  0.7561462E-02  0.1146618E+00
         -2   -1    0    0    0  501 -0.00000000000E+00  0.00000000000E+00  0.25398049288E+02  0.25398049288E+02  0.00000000000E+00 0.  1.
          2   -1    0    0  501    0  0.00000000000E+00 -0.00000000000E+00 -0.19698554735E+04  0.19698554735E+04  0.00000000000E+00 0. -1.
         23    2    1    2    0    0 -0.14024752699E+02  0.19384475795E+03 -0.10608920954E+04  0.10819586798E+04  0.85849069848E+02 0.  0.
         23    2    1    2    0    0  0.14024752699E+02 -0.19384475795E+03 -0.88356532876E+03  0.91329484296E+03  0.12508915265E+03 0.  0.
          5    1    4    4  502    0  0.20124310283E+02 -0.29684065457E+02 -0.40050550205E+02  0.53922635118E+02  0.41800000000E+01 0. -1.
         -5    1    4    4    0  502 -0.60995575831E+01 -0.16416069250E+03 -0.84351477856E+03  0.85937220784E+03  0.41800000000E+01 0. -1.
        -11    1    3    3    0    0  0.22053416816E+02  0.20885993534E+02 -0.86502490424E+02  0.91680198346E+02  0.00000000000E+00 0. -1.
         11    1    3    3    0    0 -0.36078169516E+02  0.17295876442E+03 -0.97438960500E+03  0.99027848146E+03  0.00000000000E+00 0.  1.
</event>
<event>
 7    1  0.5900800E-006  0.7276671E+02  0.7561462E-02  0.1350930E+00
         -1   -1    0    0    0  501 -0.00000000000E+00  0.00000000000E+00  0.11261164855E+03  0.11261164855E+03  0.00000000000E+00 0.  1.
          1   -1    0    0  501    0  0.00000000000E+00 -0.00000000000E+00 -0.16468227910E+03  0.16468227910E+03  0.00000000000E+00 0. -1.
         23    2    1    2    0    0 -0.20733171719E+02  0.22975518717E+02  0.27585921031E+02  0.99311659199E+02  0.90244577365E+02 0.  0.
          5    1    1    2  502    0  0.39695113422E+02 -0.49284268286E+02 -0.11406808809E+03  0.13051299648E+03  0.41800000000E+01 0. -1.
         -5    1    1    2    0  502 -0.18961941703E+02  0.26308749568E+02  0.34411536507E+02  0.47469271974E+02  0.41800000000E+01 0.  1.
        -11    1    3    3    0    0  0.11435664671E+02  0.78278847744E+01  0.53530779192E+02  0.55295519958E+02  0.00000000000E+00 0.  1.
         11    1    3    3    0    0 -0.32168836389E+02  0.15147633943E+02 -0.25944858161E+02  0.44016139241E+02  0.00000000000E+00 0. -1.
</event>
<event>
 8    1  0.5900800E-006  0.9650196E+02  0.7561462E-02  0.1287829E+00
         -1   -1    0    0    0  501 -0.00000000000E+00  0.00000000000E+00  0.58124311629E+02  0.58124311629E+02  0.00000000000E+00 0.  1.
          1   -1    0    0  501    0  0.00000000000E+00 -0.00000000000E+00 -0.23694632626E+03  0.23694632626E+03  0.00000000000E+00 0. -1.
         23    2    1    2    0    0  0.26534649492E+02 -0.54972143181E+01 -0.39935988870E+02  0.10620262847E+03  0.94603425400E+02 0.  0.
         23    2    1    2    0    0 -0.26534649492E+02  0.54972143181E+01 -0.13888602576E+03  0.18886800942E+03  0.12508992702E+03 0.  0.
          5    1    4    4  502    0  0.43855286815E+02 -0.13652798468E+02 -0.22184269800E+02  0.51179090596E+02  0.41800000000E+01 0. -1.
         -5    1    4    4    0  502 -0.70389936307E+02  0.19150012786E+02 -0.11670175596E+03  0.13768891883E+03  0.41800000000E+01 0. -1.
        -11    1    3    3    0    0 -0.50244964925E+01  0.27617136188E+02  0.17268777464E+02  0.32956978795E+02  0.00000000000E+00 0.  1.
         11    1    3    3    0    0  0.31559145984E+02 -0.33114350506E+02 -0.57204766333E+02  0.73245649672E+02  0.00000000000E+00 0. -1.
</event>
<event>
 8    1  0.5900800E-006  0.1654598E+03  0.7561462E-02  0.1182667E+00
         -1   -1    0    0    0  501 -0.00000000000E+00  0.00000000000E+00  0.54011055243E+02  0.54011055243E+02  0.00000000000E+00 0.  1.
          1   -1    0    0  501    0  0.00000000000E+00 -0.00000000000E+00 -0.60759872248E+03  0.60759872248E+03  0.00000000000E+00 0. -1.
         23    2    1    2    0    0 -0.92434419543E+02 -0.99819436488E+02 -0.17075779226E+03  0.23650429632E+03  0.90928635433E+02 0.  0.
         23    2    1    2    0    0  0.92434419543E+02  0.99819436488E+02 -0.38282987497E+03  0.42510548140E+03  0.12509162773E+03 0.  0.
          5    1    4    4  502    0  0.11389233135E+03  0.42703092632E+02 -0.22437285668E+03  0.25525608411E+03  0.41800000000E+01 0.  1.
         -5    1    4    4    0  502 -0.21457911804E+02  0.57116343856E+02 -0.15845701829E+03  0.16984939729E+03  0.41800000000E+01 0.  1.
        -11    1    3    3    0    0 -0.10944441146E+02 -0.52907158469E+02 -0.17666034015E+02  0.56842211138E+02  0.00000000000E+00 0.  1.
         11    1    3    3    0    0 -0.81489978397E+02 -0.46912278019E+02 -0.15309175825E+03  0.17966208518E+03  0.00000000000E+00 0. -1.
</event>
<event>
 8    1  0.5900800E-006  0.3547581E+03  0.7561462E-02  0.1060679E+00
          1   -1    0    0  501    0  0.00000000000E+00  0.00000000000E+00  0.22449058837E+04  0.22449058837E+04  0.00000000000E+00 0. -1.
         -1   -1    0    0    0  501 -0.00000000000E+00 -0.00000000000E+00 -0.57692993748E+02  0.57692993748E+02  0.00000000000E+00 0.  1.
         23    2    1    2    0    0 -0.22142340212E+03  0.26015256113E+03  0.11711367368E+04  0.12233617934E+04  0.91351755387E+02 0.  0.
         23    2    1    2    0    0  0.22142340212E+03 -0.26015256113E+03  0.10160761532E+04  0.10792370841E+04  0.12503702056E+03 0.  0.
          5    1    4    4  502    0  0.16326627184E+03 -0.24956330660E+03  0.91127091267E+03  0.95883776949E+03  0.41800000000E+01 0.  1.
         -5    1    4    4    0  502  0.58157130281E+02 -0.10589254529E+02  0.10480524052E+03  0.12039931459E+03  0.41800000000E+01 0.  1.
        -11    1    3    3    0    0 -0.88064582615E+02  0.16868523743E+03  0.57426563232E+03  0.60497197993E+03  0.00000000000E+00 0.  1.
         11    1    3    3    0    0 -0.13335881950E+03  0.91467323695E+02  0.59687110449E+03  0.61838981348E+03  0.00000000000E+00 0. -1.
</event>
<event>
 8    1  0.5900800E-006  0.6296271E+02  0.7561462E-02  0.1385803E+00
         -1   -1    0    0    0  501 -0.00000000000E+00  0.00000000000E+00  0.80137561237E+02  0.80137561237E+02  0.00000000000E+00 0.  1.
          1   -1    0    0  501    0  0.00000000000E+00 -0.00000000000E+00 -0.17991249624E+03  0.17991249624E+03  0.00000000000E+00 0. -1.
         23    2    1    2    0    0  0.15538525136E+02  0.13992122344E+02  0.43569403724E+01  0.95954601895E+02  0.93547193674E+02 0.  0.
         23    2    1    2    0    0 -0.15538525136E+02 -0.13992122344E+02 -0.10413187537E+03  0.16409545558E+03  0.12508655332E+03 0.  0.
          5    1    4    4  502    0 -0.16854783229E+02 -0.28262464435E+02 -0.13003469807E+03  0.13419890356E+03  0.41800000000E+01 0. -1.
         -5    1    4    4    0  502  0.13162580926E+01  0.14270342091E+02  0.25902822701E+02  0.29896552020E+02  0.41800000000E+01 0. -1.
        -11    1    3    3    0    0 -0.23503500719E+02  0.27809461742E+02  0.30056215844E+02  0.47213947296E+02  0.00000000000E+00 0.  1.
         11    1    3    3    0    0  0.39042025855E+02 -0.13817339399E+02 -0.25699275472E+02  0.48740654599E+02  0.00000000000E+00 0. -1.
</event>
<event>
 8    1  0.5900800E-006  0.1016658E+03  0.7561462E-02  0.1276831E+00
         -1   -1    0    0    0  501 -0.00000000000E+00  0.00000000000E+00  0.67974604771E+02  0.67974604771E+02  0.00000000000E+00 0.  1.
          1   -1    0    0  501    0  0.00000000000E+00 -0.00000000000E+00 -0.26465372623E+03  0.26465372623E+03  0.00000000000E+00 0. -1.
         23    2    1    2    0    0 -0.31275259759E+02  0.68701420000E+02 -0.63608550234E+02  0.13501489790E+03  0.92113777523E+02 0.  0.
         23    2    1    2    0    0  0.31275259759E+02 -0.68701420000E+02 -0.13307057122E+03  0.19761343310E+03  0.12508103386E+03 0.  0.
          5    1    4    4  502    0 -0.24953513168E+02 -0.50799710062E+02 -0.55293567221E+01  0.57020474810E+02  0.41800000000E+01 0. -1.
         -5    1    4    4    0  502  0.56228772927E+02 -0.17901709938E+02 -0.12754121450E+03  0.14059295829E+03  0.41800000000E+01 0. -1.
        -11    1    3    3    0    0 -0.10830214224E+01  0.53695902814E+02 -0.80915212514E+02  0.97116911662E+02  0.00000000000E+00 0. -1.
         11    1    3    3    0    0 -0.30192238337E+02  0.15005517185E+02  0.17306662280E+02  0.37897986240E+02  0.00000000000E+00 0.  1.
</event>
<event>
 7    1  0.5900800E-006  0.1127095E+03  0.7561462E-02  0.1255633E+00
          1   -1    0    0  501    0  0.00000000000E+00  0.00000000000E+00  0.40072290162E+03  0.40072290162E+03  0.00000000000E+00 0. -1.
         -1   -1    0    0    0  501 -0.00000000000E+00 -0.00000000000E+00 -0.38231062879E+02  0.38231062879E+02  0.00000000000E+00 0.  1.
         23    2    1    2    0    0  0.17819102065E+02 -0.45384368392E+02  0.11439655797E+03  0.15429050536E+03  0.91333051399E+02 0.  0.
          5    1    1    2  502    0  0.26973699971E+02  0.67742425243E+02  0.20780514917E+03  0.22026590542E+03  0.41800000000E+01 0. -1.
         -5    1    1    2    0  502 -0.44792802035E+02 -0.22358056850E+02  0.40290131604E+02  0.64397553719E+02  0.41800000000E+01 0.  1.
        -11    1    3    3    0    0 -0.20781271011E+00  0.27279680393E+02  0.42430576513E+02  0.50443810044E+02  0.00000000000E+00 0.  1.
         11    1    3    3    0    0  0.18026914775E+02 -0.72664048785E+02  0.71965981452E+02  0.10384669532E+03  0.00000000000E+00 0. -1.
</event>
<event>
 8    1  0.5900800E-006  0.9726304E+02  0.7561462E-02  0.1286159E+00
         -2   -1    0    0    0  501 -0.00000000000E+00  0.00000000000E+00  0.22748389215E+02  0.22748389215E+02  0.00000000000E+00 0.  1.
          2   -1    0    0  501    0  0.00000000000E+00 -0.00000000000E+00 -0.57743678193E+03  0.57743678193E+03  0.00000000000E+00 0. -1.
         23    2    1    2    0    0 -0.66528197318E-01  0.25409292735E+02 -0.18844173269E+03  0.21233471633E+03  0.94499251623E+02 0.  0.
         23    2    1    2    0    0  0.66528197318E-01 -0.25409292735E+02 -0.36624666003E+03  0.38785045482E+03  0.12508286348E+03 0.  0.
          5    1    4    4  502    0  0.60792503454E+02 -0.11748658293E+02 -0.13954615317E+03  0.15272315055E+03  0.41800000000E+01 0. -1.
         -5    1    4    4    0  502 -0.60725975257E+02 -0.13660634442E+02 -0.22670050686E+03  0.23512730427E+03  0.41800000000E+01 0. -1.
        -11    1    3    3    0    0 -0.29129195272E+02 -0.31976819447E+01 -0.15988997418E+03  0.16255318832E+03  0.00000000000E+00 0. -1.
         11    1    3    3    0    0  0.29062667075E+02  0.28606974680E+02 -0.28551758506E+02  0.49781528016E+02  0.00000000000E+00 0.  1.
</event>
<event>
 8    1  0.5900800E-006  0.1960372E+03  0.7561462E-02  0.1153126E+00
          1   -1    0    0  501    0  0.00000000000E+00  0.00000000000E+00  0.58656908271E+03  0.58656908271E+03  0.00000000000E+00 0. -1.
         -1   -1    0    0    0  501 -0.00000000000E+00 -0.00000000000E+00 -0.81436672828E+02  0.81436672828E+02  0.00000000000E+00 0.  1.
         23    2    1    2    0    0  0.17810659530E+03  0.41557695725E+02  0.16768403554E+03  0.26431325523E+03  0.91074473659E+02 0.  0.
         23    2    1    2    0    0 -0.17810659530E+03 -0.41557695725E+02  0.33744837435E+03  0.40369250031E+03  0.12508888078E+03 0.  0.
          5    1    4    4  502    0 -0.13558219958E+03 -0.73579379395E+02  0.17820326846E+03  0.23573361068E+03  0.41800000000E+01 0. -1.
         -5    1    4    4    0  502 -0.42524395716E+02  0.32021683670E+02  0.15924510589E+03  0.16795888963E+03  0.41800000000E+01 0. -1.
        -11    1    3    3    0    0  0.33193573232E+02  0.17298827940E+02 -0.47941641992E+01  0.37736544123E+02  0.00000000000E+00 0.  1.
         11    1    3    3    0    0  0.14491302207E+03  0.24258867785E+02  0.17247819974E+03  0.22657671111E+03  0.00000000000E+00 0. -1.
</event>
<event>
 8    1  0.5900800E-006  0.1446135E+03  0.7561462E-02  0.1207253E+00
          2   -1    0    0  501    0  0.00000000000E+00  0.00000000000E+00  0.17681763799E+04  0.17681763799E+04  0.00000000000E+00 0.  1.
         -2   -1    0    0    0  501 -0.00000000000E+00 -0.00000000000E+00 -0.12436483333E+02  0.12436483333E+02  0.00000000000E+00 0. -1.
         23    2    1    2    0    0  0.31190868361E+02 -0.86241276483E+02  0.68578159438E+03  0.69946907323E+03  0.10271397749E+03 0.  0.
         23    2    1    2    0    0 -0.31190868361E+02  0.86241276483E+02  0.10699583022E+04  0.10811437900E+04  0.12510275061E+03 0.  0.
          5    1    4    4  502    0 -0.75555141922E+02  0.72764420532E+02  0.83883271516E+03  0.84537626935E+03  0.41800000000E+01 0.  1.
         -5    1    4    4    0  502  0.44364273561E+02  0.13476855951E+02  0.23112558704E+03  0.23576752067E+03  0.41800000000E+01 0.  1.
        -11    1    3    3    0    0  0.41786092305E+02  0.82643824773E+01  0.21468455117E+03  0.21886944519E+03  0.00000000000E+00 0.  1.
         11    1    3    3    0    0 -0.10595223944E+02 -0.94505658960E+02  0.47109704321E+03  0.48059962803E+03  0.00000000000E+00 0. -1.
</event>
<event>
 8    1  0.5900800E-006  0.1030576E+03  0.7561462E-02  0.1273995E+00
         -1   -1    0    0    0  501 -0.00000000000E+00  0.00000000000E+00  0.11039210385E+02  0.11039210385E+02  0.00000000000E+00 0.  1.
          1   -1    0    0  501    0  0.00000000000E+00 -0.00000000000E+00 -0.11432173629E+04  0.11432173629E+04  0.00000000000E+00 0. -1.
         23    2    1    2    0    0  0.31613601594E+01 -0.27544988772E+02 -0.43171222961E+03  0.44216938883E+03  0.91485510421E+02 0.  0.
         23    2    1    2    0    0 -0.31613601594E+01  0.27544988772E+02 -0.70046592294E+03  0.71208718450E+03  0.12508768330E+03 0.  0.
          5    1    4    4  502    0 -0.53563720510E+02  0.67920294205E+00 -0.16409823009E+03  0.17267088634E+03  0.41800000000E+01 0. -1.
         -5    1    4    4    0  502  0.50402360351E+02  0.26865785830E+02 -0.53636769286E+03  0.53941629816E+03  0.41800000000E+01 0. -1.
        -11    1    3    3    0    0 -0.37509113909E+02 -0.37716781562E+02 -0.21923889577E+03  0.22559960695E+03  0.00000000000E+00 0. -1.
         11    1    3    3    0    0  0.40670474068E+02  0.10171792789E+02 -0.21247333384E+03  0.21656978188E+03  0.00000000000E+00 0.  1.
</event>
<event>
 8    1  0.5900800E-006  0.1019120E+03  0.7561462E-02  0.1276326E+00
         -1   -1    0    0    0  501 -0.00000000000E+00  0.00000000000E+00  0.25904978230E+02  0.25904978230E+02  0.00000000000E+00 0.  1.
          1   -1    0    0  501    0  0.00000000000E+00 -0.00000000000E+00 -0.83985072274E+03  0.83985072274E+03  0.00000000000E+00 0. -1.
         23    2    1    2    0    0  0.26133818304E+02  0.90903732734E+02 -0.26889661385E+03  0.29859329624E+03  0.88916266981E+02 0.  0.
         23    2    1    2    0    0 -0.26133818304E+02 -0.90903732734E+02 -0.54504913065E+03  0.56716240473E+03  0.12509265936E+03 0.  0.
          5    1    4    4  502    0 -0.37189698857E+02 -0.69657680407E+02 -0.13544806662E+03  0.15684041983E+03  0.41800000000E+01 0. -1.
         -5    1    4    4    0  502  0.11055880553E+02 -0.21246052327E+02 -0.40960106403E+03  0.41032198490E+03  0.41800000000E+01 0. -1.
        -11    1    3    3    0    0  0.24972338799E+01  0.66200367716E+02 -0.25179662255E+03  0.26036563520E+03  0.00000000000E+00 0. -1.
         11    1    3    3    0    0  0.23636584424E+02  0.24703365018E+02 -0.17099991303E+02  0.38227661046E+02  0.00000000000E+00 0.  1.
</event>
<event>
 8    1  0.5900800E-006  0.1785118E+03  0.7561462E-02  0.1169251E+00
         -1   -1    0    0    0  501 -0.00000000000E+00  0.00000000000E+00  0.16295141511E+03  0.16295141511E+03  0.00000000000E+00 0.  1.
          1   -1    0    0  501    0  0.00000000000E+00 -0.00000000000E+00 -0.26298625210E+03  0.26298625210E+03  0.00000000000E+00 0. -1.
         23    2    1    2    0    0  0.11426135688E+03 -0.12707614688E+03 -0.38768601134E+01  0.19332038316E+03  0.90298038279E+02 0.  0.
         23    2    1    2    0    0 -0.11426135688E+03  0.12707614688E+03 -0.96157976877E+02  0.23261728406E+03  0.12514167788E+03 0.  0.
          5    1    4    4  502    0 -0.51721803802E+02  0.88563692234E+02 -0.11749815776E+03  0.15601910795E+03  0.41800000000E+01 0. -1.
         -5    1    4    4    0  502 -0.62539553078E+02  0.38512454651E+02  0.21340180879E+02  0.76598176103E+02  0.41800000000E+01 0. -1.
        -11    1    3    3    0    0  0.11388585090E+02 -0.52578875070E+02 -0.32861830888E+02  0.63040763822E+02  0.00000000000E+00 0. -1.
         11    1    3    3    0    0  0.10287277179E+03 -0.74497271815E+02  0.28984970774E+02  0.13027961934E+03  0.00000000000E+00 0.  1.
</event>
<event>
 8    1  0.5900800E-006  0.2028306E+03  0.7561462E-02  0.1147373E+00
          1   -1    0    0  501    0  0.00000000000E+00  0.00000000000E+00  0.10058479697E+04  0.10058479697E+04  0.00000000000E+00 0.  1.
         -1   -1    0    0    0  501 -0.00000000000E+00 -0.00000000000E+00 -0.55665773804E+02  0.55665773804E+02  0.00000000000E+00 0. -1.
         23    2    1    2    0    0  0.15560512971E+03 -0.12046430309E+03  0.29632521784E+03  0.36732218634E+03  0.91609765516E+02 0.  0.
         23    2    1    2    0    0 -0.15560512971E+03  0.12046430309E+03  0.65385697802E+03  0.69419155713E+03  0.12509342736E+03 0.  0.
          5    1    4    4  502    0 -0.89139082070E+02  0.79239333257E+02  0.19441597987E+03  0.22812210221E+03  0.41800000000E+01 0. -1.
         -5    1    4    4    0  502 -0.66466047644E+02  0.41224969832E+02  0.45944099815E+03  0.46606945492E+03  0.41800000000E+01 0. -1.
        -11    1    3    3    0    0  0.29427595345E+02  0.52381002597E+01  0.89598088521E+02  0.94452308223E+02  0.00000000000E+00 0.  1.
         11    1    3    3    0    0  0.12617753437E+03 -0.12570240335E+03  0.20672712932E+03  0.27286987812E+03  0.00000000000E+00 0. -1.
</event>
<event>
 8    1  0.5900800E-006  0.1342190E+03  0.7561462E-02  0.1221326E+00
          2   -1    0    0  501    0  0.00000000000E+00  0.00000000000E+00  0.91425350604E+03  0.91425350604E+03  0.00000000000E+00 0. -1.
         -2   -1    0    0    0  501 -0.00000000000E+00 -0.00000000000E+00 -0.45118692491E+02  0.45118692491E+02  0.00000000000E+00 0.  1.
         23    2    1    2    0    0 -0.14068728361E+02  0.93832180455E+02  0.82590421568E+02  0.15731132749E+03  0.94463055296E+02 0.  0.
         23    2    1    2    0    0  0.14068728361E+02 -0.93832180455E+02  0.78654439198E+03  0.80206087104E+03  0.12508858097E+03 0.  0.
          5    1    4    4  502    0 -0.48859687368E+02 -0.49733833672E+02  0.51867697897E+03  0.52335838980E+03  0.41800000000E+01 0. -1.
         -5    1    4    4    0  502  0.62928415729E+02 -0.44098346783E+02  0.26786741301E+03  0.27870248124E+03  0.41800000000E+01 0. -1.
        -11    1    3    3    0    0 -0.18065540056E+02 -0.79788815390E+01 -0.76758721102E+01  0.21188329353E+02  0.00000000000E+00 0.  1.
         11    1    3    3    0    0  0.39968116942E+01  0.10181106199E+03  0.90266293678E+02  0.13612299814E+03  0.00000000000E+00 0. -1.
</event>
<event>
 8    1  0.5900800E-006  0.7003296E+02  0.7561462E-02  0.1359981E+00
         -2   -1    0    0    0  501 -0.00000000000E+00  0.00000000000E+00  0.64396639160E+02  0.64396639160E+02  0.00000000000E+00 0.  1.
          2   -1    0    0  501    0  0.00000000000E+00 -0.00000000000E+00 -0.19839623775E+03  0.19839623775E+03  0.00000000000E+00 0. -1.
         23    2    1    2    0    0  0.12552469626E+02  0.18753882650E+02 -0.30612727777E+02  0.98944896699E+02  0.91343751142E+02 0.  0.
         23    2    1    2    0    0 -0.12552469626E+02 -0.18753882650E+02 -0.10338687081E+03  0.16384798021E+03  0.12509213786E+03 0.  0.
          5    1    4    4  502    0 -0.52861088681E+02 -0.30024478677E+01 -0.15674945185E+01  0.53134158776E+02  0.41800000000E+01 0.  1.
         -5    1    4    4    0  502  0.40308619055E+02 -0.15751434782E+02 -0.10181937630E+03  0.11071382144E+03  0.41800000000E+01 0.  1.
        -11    1    3    3    0    0  0.25812178268E+02  0.10555577108E+02 -0.59728633423E+02  0.65918118947E+02  0.00000000000E+00 0. -1.
         11    1    3    3    0    0 -0.13259708643E+02  0.81983055422E+01  0.29115905646E+02  0.33026777751E+02  0.00000000000E+00 0.  1.
</event>
<event>
 8    1  0.5900800E-006  0.8401734E+02  0.7561462E-02  0.1318022E+00
          2   -1    0    0  501    0  0.00000000000E+00  0.00000000000E+00  0.60935623790E+03  0.60935623790E+03  0.00000000000E+00 0. -1.
         -2   -1    0    0    0  501 -0.00000000000E+00 -0.00000000000E+00 -0.20889895583E+02  0.20889895583E+02  0.00000000000E+00 0.  1.
         23    2    1    2    0    0  0.29899820049E+02  0.53686790226E+01  0.21651057474E+03  0.23664529854E+03  0.90561285284E+02 0.  0.
         23    2    1    2    0    0 -0.29899820049E+02 -0.53686790226E+01  0.37195576758E+03  0.39360083495E+03  0.12509077617E+03 0.  0.
          5    1    4    4  502    0 -0.22523437893E+01 -0.56389665408E+02  0.27304493676E+03  0.27884740864E+03  0.41800000000E+01 0.  1.
         -5    1    4    4    0  502 -0.27647476260E+02  0.51020986385E+02  0.98910830822E+02  0.11475342631E+03  0.41800000000E+01 0.  1.
        -11    1    3    3    0    0  0.30996662411E+02  0.21099056012E+02  0.21763047051E+03  0.22083700990E+03  0.00000000000E+00 0. -1.
         11    1    3    3    0    0 -0.10968423613E+01 -0.15730376989E+02 -0.11198957656E+01  0.15808288646E+02  0.00000000000E+00 0.  1.
</event>
<event>
 8    1  0.5900800E-006  0.1107100E+03  0.7561462E-02  0.1259261E+00
          1   -1    0    0  501    0  0.00000000000E+00  0.00000000000E+00  0.15758351483E+03  0.15758351483E+03  0.00000000000E+00 0. -1.
         -1   -1    0    0    0  501 -0.00000000000E+00 -0.00000000000E+00 -0.12939409319E+03  0.12939409319E+03  0.00000000000E+00 0.  1.
         23    2    1    2    0    0 -0.87142407757E+02  0.14144161223E+02 -0.13139326306E+02  0.12827550368E+03  0.92130920007E+02 0.  0.
         23    2    1    2    0    0  0.87142407757E+02 -0.14144161223E+02  0.41328747950E+02  0.15870210434E+03  0.12523751830E+03 0.  0.
          5    1    4    4  502    0  0.45239212794E+01  0.34718931032E+02 -0.23879233093E+02  0.42585915616E+02  0.41800000000E+01 0. -1.
         -5    1    4    4    0  502  0.82618486477E+02 -0.48863092256E+02  0.65207981043E+02  0.11611618873E+03  0.41800000000E+01 0. -1.
        -11    1    3    3    0    0 -0.16183562634E+02 -0.43385489957E+01 -0.45230564744E+02  0.48234165215E+02  0.00000000000E+00 0.  1.
         11    1    3    3    0    0 -0.70958845123E+02  0.18482710219E+02  0.32091238438E+02  0.80041338462E+02  0.00000000000E+00 0. -1.
</event>
<event>
 8    1  0.5900800E-006  0.8769175E+02  0.7561462E-02  0.1308540E+00
         -2   -1    0    0    0  501 -0.00000000000E+00  0.00000000000E+00  0.72546361898E+02  0.72546361898E+02  0.00000000000E+00 0.  1.
          2   -1    0    0  501    0  0.00000000000E+00 -0.00000000000E+00 -0.20191060712E+03  0.20191060712E+03  0.00000000000E+00 0. -1.
         23    2    1    2    0    0 -0.47189549505E+02 -0.25489434041E+02 -0.42620552904E+02  0.11305586655E+03  0.89936380859E+02 0.  0.
         23    2    1    2    0    0  0.47189549505E+02  0.25489434041E+02 -0.86743692316E+02  0.16140110246E+03  0.12509709385E+03 0.  0.
          5    1    4    4  502    0  0.58079493862E+02 -0.10846818442E+02  0.75185881972E+01  0.59706638208E+02  0.41800000000E+01 0. -1.
         -5    1    4    4    0  502 -0.10889944357E+02  0.36336252482E+02 -0.94262280513E+02  0.10169446425E+03  0.41800000000E+01 0. -1.
        -11    1    3    3    0    0 -0.58747699908E+01  0.17443614301E+02 -0.49751761963E+02  0.53047435572E+02  0.00000000000E+00 0. -1.
         11    1    3    3    0    0 -0.41314779514E+02 -0.42933048342E+02  0.71312090584E+01  0.60008430982E+02  0.00000000000E+00 0.  1.
</event>
<event>
 6    1  0.5900800E-006  0.8369151E+02  0.7561462E-02  0.1318890E+00
          2   -1    0    0  501    0  0.00000000000E+00  0.00000000000E+00  0.36400834329E+03  0.36400834329E+03  0.00000000000E+00 0. -1.
         -2   -1    0    0    0  501 -0.00000000000E+00 -0.00000000000E+00 -0.29953598600E+02  0.29953598600E+02  0.00000000000E+00 0.  1.
          5    1    1    2  502    0  0.90399007776E+00  0.31625040897E+02  0.19646167552E+03  0.19903673720E+03  0.41800000000E+01 0. -1.
         -5    1    1    2    0  502 -0.15842347643E+02 -0.79057711914E+02  0.63575330368E+02  0.10276379140E+03  0.41800000000E+01 0.  1.
        -11    1    1    2    0    0  0.18917831540E+02  0.22108878413E+02  0.35640923835E+02  0.46010458666E+02  0.00000000000E+00 0. -1.
         11    1    1    2    0    0 -0.39794739745E+01  0.25323792604E+02  0.38376814974E+02  0.46150954622E+02  0.00000000000E+00 0.  1.
</event>
<event>
 7    1  0.5900800E-006  0.1021307E+03  0.7561462E-02  0.1275878E+00
          1   -1    0    0  501    0  0.00000000000E+00  0.00000000000E+00  0.16110469427E+04  0.16110469427E+04  0.00000000000E+00 0. -1.
         -1   -1    0    0    0  501 -0.00000000000E+00 -0.00000000000E+00 -0.57263182049E+02  0.57263182049E+02  0.00000000000E+00 0.  1.
         23    2    1    2    0    0  0.22336842460E+02 -0.52224241957E+01 -0.11974677530E+02  0.95553417497E+02  0.91982903020E+02 0.  0.
          5    1    1    2  502    0  0.47039185975E+02 -0.42128611437E+02  0.75529478208E+03  0.75794141275E+03  0.41800000000E+01 0. -1.
         -5    1    1    2    0  502 -0.69376028436E+02  0.47351035633E+02  0.81046365613E+03  0.81481529453E+03  0.41800000000E+01 0.  1.
        -11    1    3    3    0    0 -0.15207924702E+02  0.78597265034E+01 -0.42245799908E+02  0.45582495371E+02  0.00000000000E+00 0.  1.
         11    1    3    3    0    0  0.37544767162E+02 -0.13082150699E+02  0.30271122377E+02  0.49970922126E+02  0.00000000000E+00 0. -1.
</event>
<event>
 8    1  0.5900800E-006  0.1847518E+03  0.7561462E-02  0.1163282E+00
         -2   -1    0    0    0  501 -0.00000000000E+00  0.00000000000E+00  0.93254090502E+02  0.93254090502E+02  0.00000000000E+00 0. -1.
          2   -1    0    0  501    0  0.00000000000E+00 -0.00000000000E+00 -0.99678702218E+03  0.99678702218E+03  0.00000000000E+00 0.  1.
         23    2    1    2    0    0 -0.60283792833E+01 -0.16373780036E+03 -0.28917271623E+02  0.19146167900E+03  0.94736251279E+02 0.  0.
         23    2    1    2    0    0  0.60283792833E+01  0.16373780036E+03 -0.87461566005E+03  0.89857943368E+03  0.12508412046E+03 0.  0.
          5    1    4    4  502    0  0.18040185730E+02  0.18213038066E+03 -0.75380616328E+03  0.77571781471E+03  0.41800000000E+01 0.  1.
         -5    1    4    4    0  502 -0.12011806447E+02 -0.18392580298E+02 -0.12080949678E+03  0.12286161897E+03  0.41800000000E+01 0.  1.
        -11    1    3    3    0    0  0.19386477536E+01 -0.59193065812E+02  0.34876912761E+02  0.68731189711E+02  0.00000000000E+00 0. -1.
         11    1    3    3    0    0 -0.79670270369E+01 -0.10454473455E+03 -0.63794184384E+02  0.12273048929E+03  0.00000000000E+00 0.  1.
</event>
<event>
 8    1  0.5900800E-006  0.1657749E+03  0.7561462E-02  0.1182327E+00
          1   -1    0    0  501    0  0.00000000000E+00  0.00000000000E+00  0.20271719820E+04  0.20271719820E+04  0.00000000000E+00 0. -1.
         -1   -1    0    0    0  501 -0.00000000000E+00 -0.00000000000E+00 -0.15668188815E+02  0.15668188815E+02  0.00000000000E+00 0.  1.
         23    2    1    2    0    0 -0.92231455833E+02  0.92463042608E+02  0.65485297767E+03  0.67418949392E+03  0.92967712945E+02 0.  0.
         23    2    1    2    0    0  0.92231455833E+02 -0.92463042608E+02  0.13566508155E+04  0.13686506768E+04  0.12508870630E+03 0.  0.
          5    1    4    4  502    0  0.58279988302E+02 -0.11632667572E+03  0.11792191415E+04  0.11863826147E+04  0.41800000000E+01 0.  1.
         -5    1    4    4    0  502  0.33951467531E+02  0.23863633109E+02  0.17743167398E+03  0.18226806211E+03  0.41800000000E+01 0.  1.
        -11    1    3    3    0    0 -0.10584632041E+03  0.98667657414E+02  0.57360765427E+03  0.59157796714E+03  0.00000000000E+00 0.  1.
         11    1    3    3    0    0  0.13614864581E+02 -0.62046148057E+01  0.81245323404E+02  0.82611526783E+02  0.00000000000E+00 0. -1.
</event>
<event>
 8    1  0.5900800E-006  0.1236213E+03  0.7561462E-02  0.1237240E+00
         -1   -1    0    0    0  501 -0.00000000000E+00  0.00000000000E+00  0.30128996363E+03  0.30128996363E+03  0.00000000000E+00 0.  1.
          1   -1    0    0  501    0  0.00000000000E+00 -0.00000000000E+00 -0.13639102470E+03  0.13639102470E+03  0.00000000000E+00 0. -1.
         23    2    1    2    0    0 -0.64633452646E+02  0.93902424922E+01  0.24931916265E+03  0.27327444774E+03  0.90847229269E+02 0.  0.
         23    2    1    2    0    0  0.64633452646E+02 -0.93902424922E+01 -0.84420223727E+02  0.16440654059E+03  0.12504829691E+03 0.  0.
          5    1    4    4  502    0  0.94815368702E+02  0.20033491215E+02 -0.70159394882E+02  0.11971260586E+03  0.41800000000E+01 0. -1.
         -5    1    4    4    0  502 -0.30181916056E+02 -0.29423733707E+02 -0.14260828846E+02  0.44693934728E+02  0.41800000000E+01 0. -1.
        -11    1    3    3    0    0  0.14035504859E+02  0.24066227803E+02  0.10065568288E+03  0.10444015135E+03  0.00000000000E+00 0.  1.
         11    1    3    3    0    0 -0.78668957506E+02 -0.14675985311E+02  0.14866347977E+03  0.16883429639E+03  0.00000000000E+00 0. -1.
</event>
<event>
 7    1  0.5900800E-006  0.1300670E+03  0.7561462E-02  0.1227356E+00
          2   -1    0    0  501    0  0.00000000000E+00  0.00000000000E+00  0.12235571480E+04  0.12235571480E+04  0.00000000000E+00 0. -1.
         -2   -1    0    0    0  501 -0.00000000000E+00 -0.00000000000E+00 -0.47140158141E+02  0.47140158141E+02  0.00000000000E+00 0.  1.
         23    2    1    2    0    0  0.36282300997E+02 -0.79577235779E+01  0.19983559565E+02  0.97475907426E+02  0.87877637345E+02 0.  0.
          5    1    1    2  502    0 -0.10887638555E+03 -0.24766096742E+02  0.81361569157E+03  0.82125233202E+03  0.41800000000E+01 0. -1.
         -5    1    1    2    0  502  0.72594084550E+02  0.32723820320E+02  0.34281773871E+03  0.35196906669E+03  0.41800000000E+01 0.  1.
        -11    1    3    3    0    0 -0.74229956039E+01 -0.21627909879E+02  0.41112143575E+02  0.47043338517E+02  0.00000000000E+00 0. -1.
         11    1    3    3    0    0  0.43705296601E+02  0.13670186301E+02 -0.21128584010E+02  0.50432568909E+02  0.00000000000E+00 0.  1.
</event>
<event>
 8    1  0.5900800E-006  0.1202471E+03  0.7561462E-02  0.1242690E+00
         -3   -1    0    0    0  501 -0.00000000000E+00  0.00000000000E+00  0.24376916123E+03  0.24376916123E+03  0.00000000000E+00 0.  1.
          3   -1    0    0  501    0  0.00000000000E+00 -0.00000000000E+00 -0.82028574128E+02  0.82028574128E+02  0.00000000000E+00 0. -1.
         23    2    1    2    0    0 -0.44670334951E+02 -0.26539170930E+02  0.15736693512E+03  0.19027687802E+03  0.93494233084E+02 0.  0.
         23    2    1    2    0    0  0.44670334951E+02  0.26539170930E+02  0.43736519823E+01  0.13552085734E+03  0.12508799912E+03 0.  0.
          5    1    4    4  502    0 -0.26561683879E+02 -0.31754519363E+02 -0.85528211438E+01  0.42479356162E+02  0.41800000000E+01 0.  1.
         -5    1    4    4    0  502  0.71232018830E+02  0.58293690292E+02  0.12926473126E+02  0.93041501181E+02  0.41800000000E+01 0.  1.
        -11    1    3    3    0    0 -0.65470990497E+02 -0.44583129330E+02  0.12191768199E+03  0.14538922656E+03  0.00000000000E+00 0. -1.
         11    1    3    3    0    0  0.20800655546E+02  0.18043958400E+02  0.35449253137E+02  0.44887651463E+02  0.00000000000E+00 0.  1.
</event>
<event>
 8    1  0.5900800E-006  0.8678115E+02  0.7561462E-02  0.1310839E+00
          2   -1    0    0  501    0  0.00000000000E+00  0.00000000000E+00  0.25763438858E+03  0.25763438858E+03  0.00000000000E+00 0. -1.
         -2   -1    0    0    0  501 -0.00000000000E+00 -0.00000000000E+00 -0.65952882373E+02  0.65952882373E+02  0.00000000000E+00 0.  1.
         23    2    1    2    0    0  0.29732042928E+02 -0.63204036551E+02  0.60043507814E+02  0.12902058588E+03  0.90345692407E+02 0.  0.
         23    2    1    2    0    0 -0.29732042928E+02  0.63204036551E+02  0.13163799839E+03  0.19456668508E+03  0.12509551434E+03 0.  0.
          5    1    4    4  502    0 -0.40744921683E+01 -0.11381603954E+02 -0.19913144613E+02  0.23667448603E+02  0.41800000000E+01 0. -1.
         -5    1    4    4    0  502 -0.25657550760E+02  0.74585640505E+02  0.15155114301E+03  0.17089923647E+03  0.41800000000E+01 0. -1.
        -11    1    3    3    0    0  0.39919003717E+02 -0.57823571795E+02  0.24722208392E+01  0.70307924082E+02  0.00000000000E+00 0.  1.
         11    1    3    3    0    0 -0.10186960789E+02 -0.53804647563E+01  0.57571286975E+02  0.58712661795E+02  0.00000000000E+00 0. -1.
</event>
<event>
 8    1  0.5900800E-006  0.1164654E+03  0.7561462E-02  0.1249045E+00
         -1   -1    0    0    0  501 -0.00000000000E+00  0.00000000000E+00  0.83342912186E+02  0.83342912186E+02  0.00000000000E+00 0.  1.
          1   -1    0    0  501    0  0.00000000000E+00 -0.00000000000E+00 -0.26745685047E+03  0.26745685047E+03  0.00000000000E+00 0. -1.
         23    2    1    2    0    0 -0.94626576880E+02  0.29132553550E+02 -0.56240880019E+02  0.14689157240E+03  0.92796566357E+02 0.  0.
         23    2    1    2    0    0  0.94626576880E+02 -0.29132553550E+02 -0.12787305827E+03  0.20390819026E+03  0.12419394630E+03 0.  0.
          5    1    4    4  502    0  0.49341513006E+02  0.24721246991E+02  0.28208433470E+01  0.55417998121E+02  0.41800000000E+01 0. -1.
         -5    1    4    4    0  502  0.45285063874E+02 -0.53853800541E+02 -0.13069390161E+03  0.14849019214E+03  0.41800000000E+01 0.  1.
        -11    1    3    3    0    0 -0.86488024939E+02  0.38515745850E+02 -0.77445415036E+02  0.12231693851E+03  0.00000000000E+00 0. -1.
         11    1    3    3    0    0 -0.81385519404E+01 -0.93831923004E+01  0.21204535017E+02  0.24574633888E+02  0.00000000000E+00 0.  1.
</event>
<event>
 8    1  0.5900800E-006  0.8840556E+02  0.7561462E-02  0.1306759E+00
         -1   -1    0    0    0  501 -0.00000000000E+00  0.00000000000E+00  0.43568230428E+02  0.43568230428E+02  0.00000000000E+00 0.  1.
          1   -1    0    0  501    0  0.00000000000E+00 -0.00000000000E+00 -0.28773442078E+03  0.28773442078E+03  0.00000000000E+00 0. -1.
         23    2    1    2    0    0 -0.19131496107E+02  0.19884647793E+02 -0.96025475258E+02  0.13546176253E+03  0.91474498352E+02 0.  0.
         23    2    1    2    0    0  0.19131496107E+02 -0.19884647793E+02 -0.14814071510E+03  0.19584088868E+03  0.12508624564E+03 0.  0.
          5    1    4    4  502    0 -0.57072364450E+01  0.40244532926E+02 -0.11633861646E+03  0.12330588412E+03  0.41800000000E+01 0.  1.
         -5    1    4    4    0  502  0.24838732552E+02 -0.60129180719E+02 -0.31802098633E+02  0.72535004558E+02  0.41800000000E+01 0.  1.
        -11    1    3    3    0    0  0.22309192478E+02 -0.43812679413E+01  0.52888271899E+01  0.23342392140E+02  0.00000000000E+00 0.  1.
         11    1    3    3    0    0 -0.41440688584E+02  0.24265915734E+02 -0.10131430245E+03  0.11211937039E+03  0.00000000000E+00 0. -1.
</event>
<event>
 8    1  0.5900800E-006  0.1294007E+03  0.7561462E-02  0.1228348E+00
         -2   -1    0    0    0  501 -0.00000000000E+00  0.00000000000E+00  0.44049898798E+02  0.44049898798E+02  0.00000000000E+00 0. -1.
          2   -1    0    0  501    0  0.00000000000E+00 -0.00000000000E+00 -0.44147529975E+03  0.44147529975E+03  0.00000000000E+00 0.  1.
         23    2    1    2    0    0  0.32555097356E+02  0.80980491445E+02 -0.20256636825E+03  0.23806702693E+03  0.89582930344E+02 0.  0.
         23    2    1    2    0    0 -0.32555097356E+02 -0.80980491445E+02 -0.19485903270E+03  0.24745817161E+03  0.12509128552E+03 0.  0.
          5    1    4    4  502    0  0.12110953503E+02 -0.10207223771E+03 -0.13532874489E+03  0.16999046591E+03  0.41800000000E+01 0.  1.
         -5    1    4    4    0  502 -0.44666050859E+02  0.21091746269E+02 -0.59530287816E+02  0.77467705707E+02  0.41800000000E+01 0.  1.
        -11    1    3    3    0    0 -0.17099928472E+02  0.10251476564E+02 -0.10855504695E+03  0.11037073228E+03  0.00000000000E+00 0.  1.
         11    1    3    3    0    0  0.49655025828E+02  0.70729014880E+02 -0.94011321295E+02  0.12769629465E+03  0.00000000000E+00 0. -1.
</event>
<event>
 8    1  0.5900800E-006  0.1479065E+03  0.7561462E-02  0.1203069E+00
          3   -1    0    0  501    0  0.00000000000E+00  0.00000000000E+00  0.17303909843E+03  0.17303909843E+03  0.00000000000E+00 0. -1.
         -3   -1    0    0    0  501 -0.00000000000E+00 -0.00000000000E+00 -0.16837530248E+03  0.16837530248E+03  0.00000000000E+00 0.  1.
         23    2    1    2    0    0 -0.11783620328E+03  0.44028566693E+02  0.40888932379E+02  0.16035191200E+03  0.90647368423E+02 0.  0.
         23    2    1    2    0    0  0.11783620328E+03 -0.44028566693E+02 -0.36225136431E+02  0.18106248892E+03  0.12508988327E+03 0.  0.
          5    1    4    4  502    0  0.41161431818E+02 -0.61874711629E+02  0.27849879297E+02  0.79472206370E+02  0.41800000000E+01 0.  1.
         -5    1    4    4    0  502  0.76674771460E+02  0.17846144936E+02 -0.64075015729E+02  0.10159028255E+03  0.41800000000E+01 0.  1.
        -11    1    3    3    0    0 -0.16867638999E+02 -0.17500537319E+02 -0.16040036908E+02  0.29121621450E+02  0.00000000000E+00 0.  1.
         11    1    3    3    0    0 -0.10096856428E+03  0.61529104012E+02  0.56928969287E+02  0.13123029055E+03  0.00000000000E+00 0. -1.
</event>
<event>
 8    1  0.5900800E-006  0.1249631E+03  0.7561462E-02  0.1235127E+00
          1   -1    0    0  501    0  0.00000000000E+00  0.00000000000E+00  0.82044752087E+02  0.82044752087E+02  0.00000000000E+00 0. -1.
         -1   -1    0    0    0  501 -0.00000000000E+00 -0.00000000000E+00 -0.40293746464E+03  0.40293746464E+03  0.00000000000E+00 0.  1.
         23    2    1    2    0    0 -0.51571145438E+02  0.91094777525E+02 -0.28801202002E+03  0.31859107567E+03  0.87129261925E+02 0.  0.
         23    2    1    2    0    0  0.51571145438E+02 -0.91094777525E+02 -0.32880692526E+02  0.16639114105E+03  0.12508809035E+03 0.  0.
          5    1    4    4  502    0  0.42831363941E+02 -0.11105489476E+03 -0.58338490290E+02  0.13262189576E+03  0.41800000000E+01 0. -1.
         -5    1    4    4    0  502  0.87397814966E+01  0.19960117233E+02  0.25457797764E+02  0.33769245291E+02  0.41800000000E+01 0. -1.
        -11    1    3    3    0    0 -0.17160062188E+02  0.59489037920E+02 -0.25229199134E+03  0.25977810197E+03  0.00000000000E+00 0.  1.
         11    1    3    3    0    0 -0.34411083250E+02  0.31605739605E+02 -0.35720028680E+02  0.58812973698E+02  0.00000000000E+00 0. -1.
</event>
<event>
 8    1  0.5900800E-006  0.1194569E+03  0.7561462E-02  0.1243996E+00
         -1   -1    0    0    0  501 -0.00000000000E+00  0.00000000000E+00  0.23394076624E+03  0.23394076624E+03  0.00000000000E+00 0.  1.
          1   -1    0    0  501    0  0.00000000000E+00 -0.00000000000E+00 -0.10697459206E+03  0.10697459206E+03  0.00000000000E+00 0. -1.
         23    2    1    2    0    0  0.36632287219E+02  0.91757992229E+02  0.12172682533E+03  0.18142829343E+03  0.91309101657E+02 0.  0.
         23    2    1    2    0    0 -0.36632287219E+02 -0.91757992229E+02  0.52393488424E+01  0.15948706487E+03  0.12508884635E+03 0.  0.
          5    1    4    4  502    0 -0.78125081295E+01  0.23849712064E+00 -0.48318466479E+02  0.49124726636E+02  0.41800000000E+01 0.  1.
         -5    1    4    4    0  502 -0.28819779090E+02 -0.91996489349E+02  0.53557815322E+02  0.11036233824E+03  0.41800000000E+01 0.  1.
        -11    1    3    3    0    0  0.54459349653E+02  0.17523189995E+02  0.63072648509E+02  0.85153050105E+02  0.00000000000E+00 0.  1.
         11    1    3    3    0    0 -0.17827062434E+02  0.74234802234E+02  0.58654176823E+02  0.96275243321E+02  0.00000000000E+00 0. -1.
</event>
<event>
 8    1  0.5900800E-006  0.1246657E+03  0.7561462E-02  0.1235593E+00
         -3   -1    0    0    0  501 -0.00000000000E+00  0.00000000000E+00  0.74824044621E+02  0.74824044621E+02  0.00000000000E+00 0.  1.
          3   -1    0    0  501    0  0.00000000000E+00 -0.00000000000E+00 -0.21652158240E+03  0.21652158240E+03  0.00000000000E+00 0. -1.
         23    2    1    2    0    0  0.47158563438E+02  0.43609424189E+02 -0.59283123559E+02  0.12835867465E+03  0.93998662951E+02 0.  0.
         23    2    1    2    0    0 -0.47158563438E+02 -0.43609424189E+02 -0.82414414218E+02  0.16298695237E+03  0.12508756528E+03 0.  0.
          5    1    4    4  502    0 -0.87798329343E+02 -0.45559989804E+02 -0.65600088491E+02  0.11876490776E+03  0.41800000000E+01 0. -1.
         -5    1    4    4    0  502  0.40639765905E+02  0.19505656152E+01 -0.16814325727E+02  0.44222044601E+02  0.41800000000E+01 0. -1.
        -11    1    3    3    0    0  0.23219155250E+02  0.70027070436E+02 -0.22493055848E+02  0.77128835890E+02  0.00000000000E+00 0.  1.
         11    1    3    3    0    0  0.23939408188E+02 -0.26417646247E+02 -0.36790067712E+02  0.51229838765E+02  0.00000000000E+00 0. -1.
</event>
<event>
 8    1  0.5900800E-006  0.1746267E+03  0.7561462E-02  0.1173107E+00
         -2   -1    0    0    0  501 -0.00000000000E+00  0.00000000000E+00  0.83576707529E+02  0.83576707529E+02  0.00000000000E+00 0.  1.
          2   -1    0    0  501    0  0.00000000000E+00 -0.00000000000E+00 -0.38604407138E+03  0.38604407138E+03  0.00000000000E+00 0. -1.
         23    2    1    2    0    0  0.10077201063E+03  0.94875046495E+02 -0.98037928264E+02  0.19286207171E+03  0.91804524681E+02 0.  0.
         23    2    1    2    0    0 -0.10077201063E+03 -0.94875046495E+02 -0.20442943558E+03  0.27675870719E+03  0.12509082821E+03 0.  0.
          5    1    4    4  502    0 -0.91323217683E+02 -0.37773383550E+01 -0.75894756769E+02  0.11887676341E+03  0.41800000000E+01 0.  1.
         -5    1    4    4    0  502 -0.94487929480E+01 -0.91097708140E+02 -0.12853467881E+03  0.15788194379E+03  0.41800000000E+01 0.  1.
        -11    1    3    3    0    0  0.90766576991E+02  0.23172816060E+02 -0.54224748216E+02  0.10823989201E+03  0.00000000000E+00 0.  1.
         11    1    3    3    0    0  0.10005433641E+02  0.71702230435E+02 -0.43813180048E+02  0.84622179702E+02  0.00000000000E+00 0. -1.
</event>
<event>
 8    1  0.5900800E-006  0.1611731E+03  0.7561462E-02  0.1187379E+00
          1   -1    0    0  501    0  0.00000000000E+00  0.00000000000E+00  0.51013790352E+02  0.51013790352E+02  0.00000000000E+00 0. -1.
         -1   -1    0    0    0  501 -0.00000000000E+00 -0.00000000000E+00 -0.64721812057E+03  0.64721812057E+03  0.00000000000E+00 0.  1.
         23    2    1    2    0    0  0.13926814052E+03  0.43119253333E+02 -0.27568246021E+03  0.32454821526E+03  0.89865678610E+02 0.  0.
         23    2    1    2    0    0 -0.13926814052E+03 -0.43119253333E+02 -0.32052187001E+03  0.37368369566E+03  0.12510136002E+03 0.  0.
          5    1    4    4  502    0 -0.16614635533E+02  0.29172394530E+02 -0.15846164543E+02  0.37358373188E+02  0.41800000000E+01 0.  1.
         -5    1    4    4    0  502 -0.12265350498E+03 -0.72291647863E+02 -0.30467570547E+03  0.33632532247E+03  0.41800000000E+01 0.  1.
        -11    1    3    3    0    0  0.78904107921E+02  0.29193751168E+02 -0.69081955295E+02  0.10885977173E+03  0.00000000000E+00 0. -1.
         11    1    3    3    0    0  0.60364032595E+02  0.13925502165E+02 -0.20660050492E+03  0.21568844353E+03  0.00000000000E+00 0.  1.
</event>
<event>
 8    1  0.5900800E-006  0.2404835E+03  0.7561462E-02  0.1119471E+00
          1   -1    0    0  501    0  0.00000000000E+00  0.00000000000E+00  0.43223857823E+03  0.43223857823E+03  0.00000000000E+00 0. -1.
         -1   -1    0    0    0  501 -0.00000000000E+00 -0.00000000000E+00 -0.25471753054E+03  0.25471753054E+03  0.00000000000E+00 0.  1.
         23    2    1    2    0    0 -0.12857000784E+03  0.17652282987E+03 -0.14536058434E+03  0.27757803198E+03  0.90715533281E+02 0.  0.
         23    2    1    2    0    0  0.12857000784E+03 -0.17652282987E+03  0.32288163203E+03  0.40937807679E+03  0.12508918848E+03 0.  0.
          5    1    4    4  502    0 -0.16843000813E+02 -0.66983095622E+02  0.99074845315E+02  0.12084584871E+03  0.41800000000E+01 0.  1.
         -5    1    4    4    0  502  0.14541300866E+03 -0.10953973425E+03  0.22380678672E+03  0.28853222809E+03  0.41800000000E+01 0.  1.
        -11    1    3    3    0    0 -0.11140590834E+03  0.95156847035E+02 -0.59747781616E+02  0.15822736603E+03  0.00000000000E+00 0. -1.
         11    1    3    3    0    0 -0.17164099498E+02  0.81365982833E+02 -0.85612802723E+02  0.11935066596E+03  0.00000000000E+00 0.  1.
</event>
<event>
 8    1  0.5900800E-006  0.8790778E+02  0.7561462E-02  0.1307999E+00
          1   -1    0    0  501    0  0.00000000000E+00  0.00000000000E+00  0.74061362593E+03  0.74061362593E+03  0.00000000000E+00 0. -1.
         -1   -1    0    0    0  501 -0.00000000000E+00 -0.00000000000E+00 -0.30674134696E+02  0.30674134696E+02  0.00000000000E+00 0.  1.
         23    2    1    2    0    0 -0.64268501033E+02 -0.11881797779E+02  0.13614643724E+03  0.18039198942E+03  0.98660022955E+02 0.  0.
         23    2    1    2    0    0  0.64268501033E+02  0.11881797779E+02  0.57379305399E+03  0.59089577120E+03  0.12509087207E+03 0.  0.
          5    1    4    4  502    0 -0.17719203587E+02  0.20810896330E+01  0.96179717639E+01  0.20694900112E+02  0.41800000000E+01 0.  1.
         -5    1    4    4    0  502  0.81987704620E+02  0.98007081463E+01  0.56417508222E+03  0.57020087109E+03  0.41800000000E+01 0.  1.
        -11    1    3    3    0    0 -0.37629135555E+02 -0.24942894944E+02  0.14298703323E+03  0.14994462819E+03  0.00000000000E+00 0. -1.
         11    1    3    3    0    0 -0.26639365478E+02  0.13061097164E+02 -0.68405959912E+01  0.30447361228E+02  0.00000000000E+00 0.  1.
</event>
<event>
 8    1  0.5900800E-006  0.8670165E+02  0.7561462E-02  0.1311042E+00
         -2   -1    0    0    0  501 -0.00000000000E+00  0.00000000000E+00  0.47621001208E+02  0.47621001208E+02  0.00000000000E+00 0.  1.
          2   -1    0    0  501    0  0.00000000000E+00 -0.00000000000E+00 -0.32756395234E+03  0.32756395234E+03  0.00000000000E+00 0. -1.
         23    2    1    2    0    0  0.55890827500E+02 -0.21558377735E+01 -0.82397237908E+02  0.13476519229E+03  0.90796035174E+02 0.  0.
         23    2    1    2    0    0 -0.55890827500E+02  0.21558377735E+01 -0.19754571322E+03  0.24041976126E+03  0.12509564562E+03 0.  0.
          5    1    4    4  502    0 -0.26060452492E+02 -0.25104752898E+02  0.22882659440E+01  0.36498004920E+02  0.41800000000E+01 0.  1.
         -5    1    4    4    0  502 -0.29830375008E+02  0.27260590671E+02 -0.19983397917E+03  0.20392175633E+03  0.41800000000E+01 0.  1.
        -11    1    3    3    0    0 -0.11099953423E+02 -0.23543651548E+02  0.53141438106E+00  0.26034494339E+02  0.00000000000E+00 0.  1.
         11    1    3    3    0    0  0.66990780923E+02  0.21387813775E+02 -0.82928652289E+02  0.10873069795E+03  0.00000000000E+00 0. -1.
</event>
<event>
 8    1  0.5900800E-006  0.1519313E+03  0.7561462E-02  0.1198120E+00
         -3   -1    0    0    0  501 -0.00000000000E+00  0.00000000000E+00  0.58363641934E+03  0.58363641934E+03  0.00000000000E+00 0.  1.
          3   -1    0    0  501    0  0.00000000000E+00 -0.00000000000E+00 -0.54122748363E+02  0.54122748363E+02  0.00000000000E+00 0. -1.
         23    2    1    2    0    0  0.11523751153E+03  0.61573274242E+02  0.34504095094E+03  0.37940121096E+03  0.88436807301E+02 0.  0.
         23    2    1    2    0    0 -0.11523751153E+03 -0.61573274242E+02  0.18447272003E+03  0.25835795674E+03  0.12509075589E+03 0.  0.
          5    1    4    4  502    0 -0.61855078297E+02  0.91358386300E+01  0.11137328541E+02  0.63647676671E+02  0.41800000000E+01 0.  1.
         -5    1    4    4    0  502 -0.53382433236E+02 -0.70709112872E+02  0.17333539149E+03  0.19471028007E+03  0.41800000000E+01 0.  1.
        -11    1    3    3    0    0  0.81568353348E+02 -0.85437724368E+00  0.23228478451E+03  0.24619168821E+03  0.00000000000E+00 0.  1.
         11    1    3    3    0    0  0.33669158184E+02  0.62427651486E+02  0.11275616643E+03  0.13320952275E+03  0.00000000000E+00 0. -1.
</event>
<event>
 8    1  0.5900800E-006  0.9304628E+02  0.7561462E-02  0.1295638E+00
         -2   -1    0    0    0  501 -0.00000000000E+00  0.00000000000E+00  0.10570713974E+03  0.10570713974E+03  0.00000000000E+00 0.  1.
          2   -1    0    0  501    0  0.00000000000E+00 -0.00000000000E+00 -0.17024325420E+03  0.17024325420E+03  0.00000000000E+00 0. -1.
         23    2    1    2    0    0  0.31654876485E+02  0.42096825552E+02  0.30530514407E+02  0.11024641052E+03  0.91912919631E+02 0.  0.
         23    2    1    2    0    0 -0.31654876485E+02 -0.42096825552E+02 -0.95066628867E+02  0.16570398342E+03  0.12508386095E+03 0.  0.
          5    1    4    4  502    0 -0.53673533829E+02  0.18008241826E+02 -0.82804024073E+02  0.10039483956E+03  0.41800000000E+01 0. -1.
         -5    1    4    4    0  502  0.22018657344E+02 -0.60105067378E+02 -0.12262604794E+02  0.65309143862E+02  0.41800000000E+01 0. -1.
        -11    1    3    3    0    0  0.20702539843E+02  0.48328330015E+02 -0.21433107189E+02  0.56776762163E+02  0.00000000000E+00 0. -1.
         11    1    3    3    0    0  0.10952336642E+02 -0.62315044628E+01  0.51963621595E+02  0.53469648354E+02  0.00000000000E+00 0.  1.
</event>
<event>
 8    1  0.5900800E-006  0.7673356E+02  0.7561462E-02  0.1338585E+00
          4   -1    0    0  501    0  0.00000000000E+00  0.00000000000E+00  0.56403100714E+03  0.56403100714E+03  0.00000000000E+00 0. -1.
         -4   -1    0    0    0  501 -0.00000000000E+00 -0.00000000000E+00 -0.94358661167E+02  0.94358661167E+02  0.00000000000E+00 0.  1.
         23    2    1    2    0    0 -0.14509562971E+02 -0.93366078410E+01 -0.62849584777E+02  0.11327919453E+03  0.92652069286E+02 0.  0.
         23    2    1    2    0    0  0.14509562971E+02  0.93366078410E+01  0.53252193075E+03  0.54511047378E+03  0.11518733537E+03 0.  0.
          5    1    4    4  502    0 -0.10967682510E+02  0.38979613140E+02  0.46649341290E+03  0.46826624582E+03  0.41800000000E+01 0. -1.
         -5    1    4    4    0  502  0.25477245481E+02 -0.29643005299E+02  0.66028517855E+02  0.76844227959E+02  0.41800000000E+01 0.  1.
        -11    1    3    3    0    0 -0.43514666063E+02 -0.90319066029E+01 -0.70447085116E+02  0.83294017197E+02  0.00000000000E+00 0.  1.
         11    1    3    3    0    0  0.29005103092E+02 -0.30470123807E+00  0.75975003396E+01  0.29985177332E+02  0.00000000000E+00 0. -1.
</event>
<event>
 8    1  0.5900800E-006  0.1135802E+03  0.7561462E-02  0.1254080E+00
         -2   -1    0    0    0  501 -0.00000000000E+00  0.00000000000E+00  0.21457422817E+02  0.21457422817E+02  0.00000000000E+00 0.  1.
          2   -1    0    0  501    0  0.00000000000E+00 -0.00000000000E+00 -0.10064109242E+04  0.10064109242E+04  0.00000000000E+00 0. -1.
         23    2    1    2    0    0  0.39562734420E+02 -0.23204393109E+02 -0.14049469621E+03  0.17296607987E+03  0.89860176444E+02 0.  0.
         23    2    1    2    0    0 -0.39562734420E+02  0.23204393109E+02 -0.84445880514E+03  0.85490226711E+03  0.12507421361E+03 0.  0.
          5    1    4    4  502    0 -0.81734725811E+02  0.75963021221E+01 -0.41395362184E+03  0.42203476473E+03  0.41800000000E+01 0.  1.
         -5    1    4    4    0  502  0.42171991391E+02  0.15608090987E+02 -0.43050518330E+03  0.43286750237E+03  0.41800000000E+01 0.  1.
        -11    1    3    3    0    0  0.55658108681E+02 -0.45788964932E+02 -0.11214042479E+03  0.13330389808E+03  0.00000000000E+00 0. -1.
         11    1    3    3    0    0 -0.16095374261E+02  0.22584571823E+02 -0.28354271417E+02  0.39662181793E+02  0.00000000000E+00 0.  1.
</event>
<event>
 8    1  0.5900800E-006  0.8634395E+02  0.7561462E-02  0.1311955E+00
         -1   -1    0    0    0  501 -0.00000000000E+00  0.00000000000E+00  0.27812399207E+02  0.27812399207E+02  0.00000000000E+00 0.  1.
          1   -1    0    0  501    0  0.00000000000E+00 -0.00000000000E+00 -0.69087221608E+03  0.69087221608E+03  0.00000000000E+00 0. -1.
         23    2    1    2    0    0  0.32372422187E+02  0.40371135840E+01 -0.95366957985E+02  0.13645908309E+03  0.91988872579E+02 0.  0.
         23    2    1    2    0    0 -0.32372422187E+02 -0.40371135840E+01 -0.56769285889E+03  0.58222553220E+03  0.12508843394E+03 0.  0.
          5    1    4    4  502    0  0.14466169955E+02  0.40721670011E+02 -0.87660829310E+02  0.97823401479E+02  0.41800000000E+01 0. -1.
         -5    1    4    4    0  502 -0.46838592141E+02 -0.44758783595E+02 -0.48003202958E+03  0.48440213072E+03  0.41800000000E+01 0. -1.
        -11    1    3    3    0    0  0.48296316835E+02  0.27314391434E+01 -0.10650970534E+03  0.11697996542E+03  0.00000000000E+00 0. -1.
         11    1    3    3    0    0 -0.15923894648E+02  0.13056744406E+01  0.11142747352E+02  0.19479117666E+02  0.00000000000E+00 0.  1.
</event>
<event>
 7    1  0.5900800E-006  0.7023417E+02  0.7561462E-02  0.1359299E+00
         -2   -1    0    0    0  501 -0.00000000000E+00  0.00000000000E+00  0.22543954426E+03  0.22543954426E+03  0.00000000000E+00 0.  1.
          2   -1    0    0  501    0  0.00000000000E+00 -0.00000000000E+00 -0.18199503538E+03  0.18199503538E+03  0.00000000000E+00 0. -1.
         23    2    1    2    0    0  0.40585261873E+02 -0.82023785961E+01  0.17968418279E+03  0.20574626619E+03  0.91272547950E+02 0.  0.
          5    1    1    2  502    0 -0.18459369361E+02 -0.18598292652E+01 -0.16368696450E+03  0.16478805184E+03  0.41800000000E+01 0. -1.
         -5    1    1    2    0  502 -0.22125892512E+02  0.10062207861E+02  0.27447290587E+02  0.36900261612E+02  0.41800000000E+01 0.  1.
        -11    1    3    3    0    0  0.29637041188E+02  0.38631716011E+02  0.11706918996E+03  0.12679100492E+03  0.00000000000E+00 0.  1.
         11    1    3    3    0    0  0.10948220686E+02 -0.46834094607E+02  0.62614992832E+02  0.78955261264E+02  0.00000000000E+00 0. -1.
</event>
<event>
 8    1  0.5900800E-006  0.1287378E+03  0.7561462E-02  0.1229341E+00
         -2   -1    0    0    0  501 -0.00000000000E+00  0.00000000000E+00  0.11283776205E+02  0.11283776205E+02  0.00000000000E+00 0.  1.
          2   -1    0    0  501    0  0.00000000000E+00 -0.00000000000E+00 -0.17566656092E+04  0.17566656092E+04  0.00000000000E+00 0. -1.
         23    2    1    2    0    0 -0.75051577702E+02  0.35844965430E+02 -0.64454751286E+03  0.65691301172E+03  0.95789392742E+02 0.  0.
         23    2    1    2    0    0  0.75051577702E+02 -0.35844965430E+02 -0.11008343201E+04  0.11110363737E+04  0.12509205577E+03 0.  0.
          5    1    4    4  502    0  0.95951957419E+02 -0.81817380839E+01 -0.99347304207E+03  0.99813820521E+03  0.41800000000E+01 0. -1.
         -5    1    4    4    0  502 -0.20900379717E+02 -0.27663227346E+02 -0.10736127803E+03  0.11289816845E+03  0.41800000000E+01 0. -1.
        -11    1    3    3    0    0  0.14025433972E+02  0.34317103071E+02 -0.15950854383E+03  0.16376004371E+03  0.00000000000E+00 0.  1.
         11    1    3    3    0    0 -0.89077011674E+02  0.15278623582E+01 -0.48503896903E+03  0.49315296801E+03  0.00000000000E+00 0. -1.
</event>
<event>
 7    1  0.5900800E-006  0.1329047E+03  0.7561462E-02  0.1223208E+00
          2   -1    0    0  501    0  0.00000000000E+00  0.00000000000E+00  0.62868350980E+03  0.62868350980E+03  0.00000000000E+00 0. -1.
         -2   -1    0    0    0  501 -0.00000000000E+00 -0.00000000000E+00 -0.88653802169E+02  0.88653802169E+02  0.00000000000E+00 0.  1.
         23    2    1    2    0    0 -0.57261745751E+02  0.90877676096E+02  0.23092068799E+01  0.14763161190E+03  0.10125265851E+03 0.  0.
          5    1    1    2  502    0  0.21648939503E+01 -0.49946421459E+02  0.47176140403E+03  0.47442135967E+03  0.41800000000E+01 0. -1.
         -5    1    1    2    0  502  0.55096851800E+02 -0.40931254637E+02  0.65959096717E+02  0.95284340393E+02  0.41800000000E+01 0.  1.
        -11    1    3    3    0    0  0.18332926792E+02  0.64116042434E+02 -0.62821920650E+01  0.66980810978E+02  0.00000000000E+00 0.  1.
         11    1    3    3    0    0 -0.75594672543E+02  0.26761633662E+02  0.85913989449E+01  0.80650800920E+02  0.00000000000E+00 0. -1.
</event>
<event>
 8    1  0.5900800E-006  0.8387536E+02  0.7561462E-02  0.1318400E+00
         -2   -1    0    0    0  501 -0.00000000000E+00  0.00000000000E+00  0.88842412154E+02  0.88842412154E+02  0.00000000000E+00 0.  1.
          2   -1    0    0  501    0  0.00000000000E+00 -0.00000000000E+00 -0.15711223095E+03  0.15711223095E+03  0.00000000000E+00 0. -1.
         23    2    1    2    0    0  0.21005676082E+01 -0.37224623340E+02  0.10162305058E+02  0.93681111668E+02  0.85339283288E+02 0.  0.
         23    2    1    2    0    0 -0.21005676082E+01  0.37224623340E+02 -0.78432123858E+02  0.15227353144E+03  0.12508215443E+03 0.  0.
          5    1    4    4  502    0  0.58364177673E+02  0.38142866008E+02 -0.44227169902E+02  0.82672670335E+02  0.41800000000E+01 0.  1.
         -5    1    4    4    0  502 -0.60464745281E+02 -0.91824266783E+00 -0.34204953956E+02  0.69600861106E+02  0.41800000000E+01 0.  1.
        -11    1    3    3    0    0  0.77496954257E+00 -0.10026578728E+02  0.46892122249E+02  0.47958356809E+02  0.00000000000E+00 0.  1.
         11    1    3    3    0    0  0.13255980657E+01 -0.27198044613E+02 -0.36729817191E+02  0.45722754859E+02  0.00000000000E+00 0. -1.
</event>
<event>
 8    1  0.5900800E-006  0.9271385E+02  0.7561462E-02  0.1296410E+00
          1   -1    0    0  501    0  0.00000000000E+00  0.00000000000E+00  0.39763639311E+03  0.39763639311E+03  0.00000000000E+00 0. -1.
         -1   -1    0    0    0  501 -0.00000000000E+00 -0.00000000000E+00 -0.56469923901E+02  0.56469923901E+02  0.00000000000E+00 0.  1.
         23    2    1    2    0    0 -0.74538039354E+02  0.13386021331E+02  0.47749830341E+02  0.12627153598E+03  0.89046895645E+02 0.  0.
         23    2    1    2    0    0  0.74538039354E+02 -0.13386021331E+02  0.29341663887E+03  0.32783478103E+03  0.12508882768E+03 0.  0.
          5    1    4    4  502    0  0.85153645018E+02 -0.22811494344E+02  0.29920090524E+03  0.31194576713E+03  0.41800000000E+01 0.  1.
         -5    1    4    4    0  502 -0.10615605664E+02  0.94254730129E+01 -0.57842663730E+01  0.15889013897E+02  0.41800000000E+01 0.  1.
        -11    1    3    3    0    0 -0.33309355981E+02  0.22439510148E+02  0.68369584917E+02  0.79293410529E+02  0.00000000000E+00 0. -1.
         11    1    3    3    0    0 -0.41228683373E+02 -0.90534888164E+01 -0.20619754576E+02  0.46978125454E+02  0.00000000000E+00 0.  1.
</event>
<event>
 8    1  0.5900800E-006  0.9376332E+02  0.7561462E-02  0.1293986E+00
         -4   -1    0    0    0  501 -0.00000000000E+00  0.00000000000E+00  0.71259828294E+02  0.71259828294E+02  0.00000000000E+00 0. -1.
          4   -1    0    0  501    0  0.00000000000E+00 -0.00000000000E+00 -0.21383455190E+03  0.21383455190E+03  0.00000000000E+00 0.  1.
         23    2    1    2    0    0 -0.38388382996E+02 -0.42805717822E+02 -0.49118972406E+02  0.11869100942E+03  0.91481609298E+02 0.  0.
         23    2    1    2    0    0  0.38388382996E+02  0.42805717822E+02 -0.93455751197E+02  0.16640337077E+03  0.12510038747E+03 0.  0.
          5    1    4    4  502    0  0.45328074897E+02 -0.25246749504E+02 -0.19637212203E+01  0.52089935069E+02  0.41800000000E+01 0. -1.
         -5    1    4    4    0  502 -0.69396919016E+01  0.68052467327E+02 -0.91492029977E+02  0.11431343570E+03  0.41800000000E+01 0. -1.
        -11    1    3    3    0    0 -0.80430971811E+01 -0.34576189793E+02 -0.71682537868E+02  0.79991190440E+02  0.00000000000E+00 0.  1.
         11    1    3    3    0    0 -0.30345285814E+02 -0.82295280292E+01  0.22563565462E+02  0.38699818980E+02  0.00000000000E+00 0. -1.
</event>
<event>
 8    1  0.5900800E-006  0.9228426E+02  0.7561462E-02  0.1297412E+00
         -1   -1    0    0    0  501 -0.00000000000E+00  0.00000000000E+00  0.94334163097E+02  0.94334163097E+02  0.00000000000E+00 0.  1.
          1   -1    0    0  501    0  0.00000000000E+00 -0.00000000000E+00 -0.13787493255E+03  0.13787493255E+03  0.00000000000E+00 0. -1.
         23    2    1    2    0    0  0.17279785098E+02  0.18717899296E+02  0.88034294650E+01  0.94238152386E+02  0.90301596152E+02 0.  0.
         23    2    1    2    0    0 -0.17279785098E+02 -0.18717899296E+02 -0.52344198920E+02  0.13797094326E+03  0.12508842991E+03 0.  0.
          5    1    4    4  502    0  0.36032416550E+02  0.78957121084E+01 -0.66882758416E+02  0.76494791230E+02  0.41800000000E+01 0.  1.
         -5    1    4    4    0  502 -0.53312201648E+02 -0.26613611404E+02  0.14538559496E+02  0.61476152033E+02  0.41800000000E+01 0.  1.
        -11    1    3    3    0    0  0.17244881256E+02  0.51818240703E+02  0.21629478253E+02  0.58739682742E+02  0.00000000000E+00 0.  1.
         11    1    3    3    0    0  0.34903842525E-01 -0.33100341407E+02 -0.12826048788E+02  0.35498469644E+02  0.00000000000E+00 0. -1.
</event>
<event>
 8    1  0.5900800E-006  0.1500433E+03  0.7561462E-02  0.1200420E+00
         -1   -1    0    0    0  501 -0.00000000000E+00  0.00000000000E+00  0.15463832902E+03  0.15463832902E+03  0.00000000000E+00 0.  1.
          1   -1    0    0  501    0  0.00000000000E+00 -0.00000000000E+00 -0.15102898035E+03  0.15102898035E+03  0.00000000000E+00 0. -1.
         23    2    1    2    0    0 -0.16920400757E+02  0.10539266800E+03 -0.75068675573E+01  0.14084904817E+03  0.91587045370E+02 0.  0.
         23    2    1    2    0    0  0.16920400757E+02 -0.10539266800E+03  0.11116216228E+02  0.16481826120E+03  0.12509026554E+03 0.  0.
          5    1    4    4  502    0 -0.43199763730E+02 -0.44935462825E+01  0.17747077131E+02  0.47104593101E+02  0.41800000000E+01 0.  1.
         -5    1    4    4    0  502  0.60120164487E+02 -0.10089912172E+03 -0.66308609028E+01  0.11771366810E+03  0.41800000000E+01 0.  1.
        -11    1    3    3    0    0 -0.48833216430E+02  0.30648082172E+02  0.77012361956E+01  0.58166115623E+02  0.00000000000E+00 0.  1.
         11    1    3    3    0    0  0.31912815672E+02  0.74744585827E+02 -0.15208103753E+02  0.82682932545E+02  0.00000000000E+00 0. -1.
</event>
<event>
 8    1  0.5900800E-006  0.1329637E+03  0.7561462E-02  0.1223123E+00
         -1   -1    0    0    0  501 -0.00000000000E+00  0.00000000000E+00  0.31871971841E+02  0.31871971841E+02  0.00000000000E+00 0.  1.
          1   -1    0    0  501    0  0.00000000000E+00 -0.00000000000E+00 -0.95663737131E+03  0.95663737131E+03  0.00000000000E+00 0. -1.
         23    2    1    2    0    0  0.10029945826E+03 -0.70064594311E+02 -0.24880660258E+03  0.29027126404E+03  0.85928182429E+02 0.  0.
         23    2    1    2    0    0 -0.10029945826E+03  0.70064594311E+02 -0.67595879689E+03  0.69823807911E+03  0.12508833412E+03 0.  0.
          5    1    4    4  502    0 -0.47529813734E+02  0.18458526403E+02 -0.64496547545E+02  0.82323006722E+02  0.41800000000E+01 0. -1.
         -5    1    4    4    0  502 -0.52769644522E+02  0.51606067908E+02 -0.61146224934E+03  0.61591507239E+03  0.41800000000E+01 0. -1.
        -11    1    3    3    0    0  0.23200714392E+01  0.12499197903E+02 -0.29796621138E+01  0.13057222753E+02  0.00000000000E+00 0.  1.
         11    1    3    3    0    0  0.97979386816E+02 -0.82563792215E+02 -0.24582694047E+03  0.27721404129E+03  0.00000000000E+00 0. -1.
</event>
<event>
 8    1  0.1045260E-005  0.1594250E+03  0.7561462E-02  0.1189347E+00
         -2   -1    0    0    0  501 -0.00000000000E+00  0.00000000000E+00  0.10660952324E+03  0.10660952324E+03  0.00000000000E+00 0. -1.
          2   -1    0    0  501    0  0.00000000000E+00 -0.00000000000E+00 -0.32718903398E+03  0.32718903398E+03  0.00000000000E+00 0.  1.
         23    2    1    2    0    0 -0.12367313250E+03  0.45046676096E+02 -0.16767568285E+02  0.16083141539E+03  0.90891947389E+02 0.  0.
         23    2    1    2    0    0  0.12367313250E+03 -0.45046676096E+02 -0.20381194245E+03  0.27296714184E+03  0.12508999125E+03 0.  0.
          5    1    4    4  502    0 -0.79649232939E+01 -0.40175216726E+02 -0.17458618136E+02  0.44718718556E+02  0.41800000000E+01 0. -1.
         -5    1    4    4    0  502  0.13163805579E+03 -0.48714593701E+01 -0.18635332432E+03  0.22824842329E+03  0.41800000000E+01 0. -1.
        -11    1    3    3    0    0 -0.72944934051E+02 -0.69097403021E+01  0.24562745664E+02  0.77278951787E+02  0.00000000000E+00 0. -1.
         11    1    3    3    0    0 -0.50728198445E+02  0.51956416398E+02 -0.41330313949E+02  0.83552463599E+02  0.00000000000E+00 0.  1.
</event>
<event>
 8    1  0.5900800E-006  0.1125019E+03  0.7561462E-02  0.1256006E+00
         -1   -1    0    0    0  501 -0.00000000000E+00  0.00000000000E+00  0.60197768424E+02  0.60197768424E+02  0.00000000000E+00 0.  1.
          1   -1    0    0  501    0  0.00000000000E+00 -0.00000000000E+00 -0.24169777135E+03  0.24169777135E+03  0.00000000000E+00 0. -1.
         23    2    1    2    0    0  0.41424400271E+02  0.99539267423E+01 -0.42348593860E+02  0.10999383011E+03  0.92142160086E+02 0.  0.
         23    2    1    2    0    0 -0.41424400271E+02 -0.99539267423E+01 -0.13915140907E+03  0.19190170966E+03  0.12509232563E+03 0.  0.
          5    1    4    4  502    0 -0.70646850653E+02 -0.44695217945E+02 -0.70209670346E+02  0.10924976075E+03  0.41800000000E+01 0. -1.
         -5    1    4    4    0  502  0.29222450382E+02  0.34741291203E+02 -0.68941738721E+02  0.82651948910E+02  0.41800000000E+01 0. -1.
        -11    1    3    3    0    0 -0.12075744653E+02  0.34718176029E+02  0.10749307971E+01  0.36774051068E+02  0.00000000000E+00 0.  1.
         11    1    3    3    0    0  0.53500144924E+02 -0.24764249287E+02 -0.43423524657E+02  0.73219779044E+02  0.00000000000E+00 0. -1.
</event>
<event>
 8    1  0.5900800E-006  0.7649380E+02  0.7561462E-02  0.1339307E+00
          2   -1    0    0  501    0  0.00000000000E+00  0.00000000000E+00  0.20688120010E+03  0.20688120010E+03  0.00000000000E+00 0. -1.
         -2   -1    0    0    0  501 -0.00000000000E+00 -0.00000000000E+00 -0.83274982479E+02  0.83274982479E+02  0.00000000000E+00 0.  1.
         23    2    1    2    0    0  0.22510468451E+02  0.63639648981E+02  0.20480777245E+02  0.11453299060E+03  0.90230912586E+02 0.  0.
         23    2    1    2    0    0 -0.22510468451E+02 -0.63639648981E+02  0.10312544037E+03  0.17562319198E+03  0.12510764564E+03 0.  0.
          5    1    4    4  502    0 -0.12872972790E+02  0.59689420684E+01 -0.25220694020E+02  0.29238630349E+02  0.41800000000E+01 0.  1.
         -5    1    4    4    0  502 -0.96374956608E+01 -0.69608591049E+02  0.12834613439E+03  0.14638456163E+03  0.41800000000E+01 0.  1.
        -11    1    3    3    0    0  0.14096087716E+02  0.30380561657E+02 -0.35545043406E+02  0.48837775607E+02  0.00000000000E+00 0.  1.
         11    1    3    3    0    0  0.84143807346E+01  0.33259087324E+02  0.56025820652E+02  0.65695214989E+02  0.00000000000E+00 0. -1.
</event>
<event>
 8    1  0.5900800E-006  0.1774114E+03  0.7561462E-02  0.1170332E+00
         -1   -1    0    0    0  501 -0.00000000000E+00  0.00000000000E+00  0.43916329914E+02  0.43916329914E+02  0.00000000000E+00 0.  1.
          1   -1    0    0  501    0  0.00000000000E+00 -0.00000000000E+00 -0.82876953152E+03  0.82876953152E+03  0.00000000000E+00 0. -1.
         23    2    1    2    0    0 -0.94946712167E+02 -0.11480644483E+03 -0.28439784337E+03  0.33575367106E+03  0.98249663573E+02 0.  0.
         23    2    1    2    0    0  0.94946712167E+02  0.11480644483E+03 -0.50045535824E+03  0.53693219037E+03  0.12508082805E+03 0.  0.
          5    1    4    4  502    0 -0.27481650536E+02  0.59833083388E+01 -0.48890506337E+02  0.56557891622E+02  0.41800000000E+01 0. -1.
         -5    1    4    4    0  502  0.12242836270E+03  0.10882313649E+03 -0.45156485190E+03  0.48037429875E+03  0.41800000000E+01 0. -1.
        -11    1    3    3    0    0 -0.40374492379E+02 -0.97100747137E+02 -0.11008180290E+03  0.15223881916E+03  0.00000000000E+00 0.  1.
         11    1    3    3    0    0 -0.54572219788E+02 -0.17705697691E+02 -0.17431604047E+03  0.18351485190E+03  0.00000000000E+00 0. -1.
</event>
<event>
 8    1  0.5900800E-006  0.6797416E+02  0.7561462E-02  0.1367121E+00
         -2   -1    0    0    0  501 -0.00000000000E+00  0.00000000000E+00  0.11916710667E+03  0.11916710667E+03  0.00000000000E+00 0.  1.
          2   -1    0    0  501    0  0.00000000000E+00 -0.00000000000E+00 -0.11561285716E+03  0.11561285716E+03  0.00000000000E+00 0. -1.
         23    2    1    2    0    0 -0.77583159345E+01 -0.98837746153E+01  0.44991322080E+02  0.10240571616E+03  0.91130846440E+02 0.  0.
         23    2    1    2    0    0  0.77583159345E+01  0.98837746153E+01 -0.41437072571E+02  0.13237424767E+03  0.12509208606E+03 0.  0.
          5    1    4    4  502    0  0.50469348673E+02  0.47241313349E+00 -0.65094270675E+02  0.82474934400E+02  0.41800000000E+01 0.  1.
         -5    1    4    4    0  502 -0.42711032739E+02  0.94113614818E+01  0.23657198104E+02  0.49899313268E+02  0.41800000000E+01 0.  1.
        -11    1    3    3    0    0  0.83444342438E+00  0.15010409576E+02  0.66639783071E+02  0.68314488794E+02  0.00000000000E+00 0.  1.
         11    1    3    3    0    0 -0.85927593589E+01 -0.24894184192E+02 -0.21648460991E+02  0.34091227365E+02  0.00000000000E+00 0. -1.
</event>
<event>
 8    1  0.5900800E-006  0.1322437E+03  0.7561462E-02  0.1224164E+00
         -1   -1    0    0    0  501 -0.00000000000E+00  0.00000000000E+00  0.14879382198E+03  0.14879382198E+03  0.00000000000E+00 0.  1.
          1   -1    0    0  501    0  0.00000000000E+00 -0.00000000000E+00 -0.19506252266E+03  0.19506252266E+03  0.00000000000E+00 0. -1.
         23    2    1    2    0    0 -0.60860440848E+02  0.10500362300E+03  0.28268698570E+02  0.15428395457E+03  0.90965186837E+02 0.  0.
         23    2    1    2    0    0  0.60860440848E+02 -0.10500362300E+03 -0.74537399252E+02  0.18957239007E+03  0.12510840534E+03 0.  0.
          5    1    4    4  502    0  0.36242626515E+02 -0.53235949753E+02  0.29309731649E+02  0.70881077109E+02  0.41800000000E+01 0.  1.
         -5    1    4    4    0  502  0.24617814333E+02 -0.51767673245E+02 -0.10384713090E+03  0.11869131296E+03  0.41800000000E+01 0.  1.
        -11    1    3    3    0    0 -0.73904250963E+02  0.58731285349E+02  0.43379726076E+02  0.10388937782E+03  0.00000000000E+00 0.  1.
         11    1    3    3    0    0  0.13043810115E+02  0.46272337650E+02 -0.15111027505E+02  0.50394576753E+02  0.00000000000E+00 0. -1.
</event>
<event>
 8    1  0.5900800E-006  0.9839543E+02  0.7561462E-02  0.1283707E+00
         -1   -1    0    0    0  501 -0.00000000000E+00  0.00000000000E+00  0.85299933186E+02  0.85299933186E+02  0.00000000000E+00 0.  1.
          1   -1    0    0  501    0  0.00000000000E+00 -0.00000000000E+00 -0.19900208540E+03  0.19900208540E+03  0.00000000000E+00 0. -1.
         23    2    1    2    0    0 -0.58084375931E+02  0.41338718525E+02 -0.60098644070E+02  0.13068273702E+03  0.91561161849E+02 0.  0.
         23    2    1    2    0    0  0.58084375931E+02 -0.41338718525E+02 -0.53603508144E+02  0.15361928157E+03  0.12507143242E+03 0.  0.
          5    1    4    4  502    0 -0.22160030721E+02 -0.91993817066E+01 -0.62056939606E+02  0.66665071354E+02  0.41800000000E+01 0.  1.
         -5    1    4    4    0  502  0.80244406652E+02 -0.32139336819E+02  0.84534314627E+01  0.86954210212E+02  0.41800000000E+01 0.  1.
        -11    1    3    3    0    0 -0.39184924256E+02 -0.13500365516E+01 -0.72460809327E+02  0.82388408020E+02  0.00000000000E+00 0. -1.
         11    1    3    3    0    0 -0.18899451675E+02  0.42688755077E+02  0.12362165258E+02  0.48294328999E+02  0.00000000000E+00 0.  1.
</event>
<event>
 8    1  0.5900800E-006  0.1251524E+03  0.7561462E-02  0.1234831E+00
         -1   -1    0    0    0  501 -0.00000000000E+00  0.00000000000E+00  0.18315942428E+03  0.18315942428E+03  0.00000000000E+00 0.  1.
          1   -1    0    0  501    0  0.00000000000E+00 -0.00000000000E+00 -0.15462259128E+03  0.15462259128E+03  0.00000000000E+00 0. -1.
         23    2    1    2    0    0 -0.87434988989E+02 -0.10801053460E+02  0.92803750871E+02  0.17183255525E+03  0.11468369898E+03 0.  0.
         23    2    1    2    0    0  0.87434988989E+02  0.10801053460E+02 -0.64266917867E+02  0.16594946031E+03  0.12508975414E+03 0.  0.
          5    1    4    4  502    0  0.68586677902E+02 -0.33680098540E+02  0.10081860026E+02  0.77185476127E+02  0.41800000000E+01 0. -1.
         -5    1    4    4    0  502  0.18848311087E+02  0.44481152000E+02 -0.74348777894E+02  0.88763984185E+02  0.41800000000E+01 0. -1.
        -11    1    3    3    0    0 -0.73652175707E+02  0.32015896253E+02  0.97830423869E+02  0.12657192593E+03  0.00000000000E+00 0.  1.
         11    1    3    3    0    0 -0.13782813282E+02 -0.42816949713E+02 -0.50266729986E+01  0.45260629316E+02  0.00000000000E+00 0. -1.
</event>
<event>
 8    1  0.5900800E-006  0.9275175E+02  0.7561462E-02  0.1296322E+00
          1   -1    0    0  501    0  0.00000000000E+00  0.00000000000E+00  0.66051907266E+03  0.66051907266E+03  0.00000000000E+00 0.  1.
         -1   -1    0    0    0  501 -0.00000000000E+00 -0.00000000000E+00 -0.18219981951E+02  0.18219981951E+02  0.00000000000E+00 0. -1.
         23    2    1    2    0    0  0.93987676469E+01 -0.52311825743E+01  0.22416299520E+03  0.24215926767E+03  0.90974504096E+02 0.  0.
         23    2    1    2    0    0 -0.93987676469E+01  0.52311825743E+01  0.41813609551E+03  0.43657978695E+03  0.12509362053E+03 0.  0.
          5    1    4    4  502    0  0.27099193739E+02  0.42131872146E+02  0.80172294878E+02  0.94628379558E+02  0.41800000000E+01 0.  1.
         -5    1    4    4    0  502 -0.36497961386E+02 -0.36900689572E+02  0.33796380063E+03  0.34195140739E+03  0.41800000000E+01 0.  1.
        -11    1    3    3    0    0 -0.23173247574E+01 -0.43285924828E+02  0.16673649071E+03  0.17227912995E+03  0.00000000000E+00 0. -1.
         11    1    3    3    0    0  0.11716092404E+02  0.38054742253E+02  0.57426504484E+02  0.69880137711E+02  0.00000000000E+00 0.  1.
</event>
<event>
 8    1  0.5900800E-006  0.1217264E+03  0.7561462E-02  0.1240276E+00
         -2   -1    0    0    0  501 -0.00000000000E+00  0.00000000000E+00  0.86105001189E+02  0.86105001189E+02  0.00000000000E+00 0.  1.
          2   -1    0    0  501    0  0.00000000000E+00 -0.00000000000E+00 -0.23620451536E+03  0.23620451536E+03  0.00000000000E+00 0. -1.
         23    2    1    2    0    0 -0.78943352945E+02  0.15896096194E+02 -0.20101443035E+02  0.12474771887E+03  0.93129944184E+02 0.  0.
         23    2    1    2    0    0  0.78943352945E+02 -0.15896096194E+02 -0.12999807114E+03  0.19756179768E+03  0.12508567685E+03 0.  0.
          5    1    4    4  502    0 -0.32847623120E+01  0.40159831909E+02 -0.10219077664E+02  0.41779225827E+02  0.41800000000E+01 0.  1.
         -5    1    4    4    0  502  0.82228115257E+02 -0.56055928103E+02 -0.11977899347E+03  0.15578257185E+03  0.41800000000E+01 0.  1.
        -11    1    3    3    0    0 -0.66078912646E+02  0.39118456013E+02 -0.44448453116E+02  0.88726215301E+02  0.00000000000E+00 0. -1.
         11    1    3    3    0    0 -0.12864440299E+02 -0.23222359819E+02  0.24347010081E+02  0.36021503573E+02  0.00000000000E+00 0.  1.
</event>
<event>
 8    1  0.5900800E-006  0.1458972E+03  0.7561462E-02  0.1205607E+00
         -2   -1    0    0    0  501 -0.00000000000E+00  0.00000000000E+00  0.28439216834E+02  0.28439216834E+02  0.00000000000E+00 0.  1.
          2   -1    0    0  501    0  0.00000000000E+00 -0.00000000000E+00 -0.75148566855E+03  0.75148566855E+03  0.00000000000E+00 0. -1.
         23    2    1    2    0    0 -0.87516131683E+02 -0.44555683270E+02 -0.30791479844E+03  0.33537670208E+03  0.89564094271E+02 0.  0.
         23    2    1    2    0    0  0.87516131683E+02  0.44555683270E+02 -0.41513165328E+03  0.44454818331E+03  0.12507803769E+03 0.  0.
          5    1    4    4  502    0 -0.31040277953E+02 -0.22226764476E+01 -0.75740627377E+02  0.81991183559E+02  0.41800000000E+01 0.  1.
         -5    1    4    4    0  502  0.11855640964E+03  0.46778359718E+02 -0.33939102591E+03  0.36255699975E+03  0.41800000000E+01 0.  1.
        -11    1    3    3    0    0 -0.22717009430E+02 -0.61781495690E+02 -0.14851753006E+03  0.16245144648E+03  0.00000000000E+00 0. -1.
         11    1    3    3    0    0 -0.64799122254E+02  0.17225812419E+02 -0.15939726837E+03  0.17292525560E+03  0.00000000000E+00 0.  1.
</event>
<event>
 8    1  0.5900800E-006  0.9751585E+02  0.7561462E-02  0.1285608E+00
         -2   -1    0    0    0  501 -0.00000000000E+00  0.00000000000E+00  0.15024643069E+02  0.15024643069E+02  0.00000000000E+00 0.  1.
          2   -1    0    0  501    0  0.00000000000E+00 -0.00000000000E+00 -0.95458776169E+03  0.95458776169E+03  0.00000000000E+00 0. -1.
         23    2    1    2    0    0  0.33077144129E+02  0.39147448983E+02 -0.23568670032E+03  0.25287305343E+03  0.75960122558E+02 0.  0.
         23    2    1    2    0    0 -0.33077144129E+02 -0.39147448983E+02 -0.70387641830E+03  0.71673935133E+03  0.12508663108E+03 0.  0.
          5    1    4    4  502    0 -0.14880502937E+01 -0.71924332322E+02 -0.23917291369E+03  0.24979287203E+03  0.41800000000E+01 0. -1.
         -5    1    4    4    0  502 -0.31589093835E+02  0.32776883339E+02 -0.46470350461E+03  0.46694647930E+03  0.41800000000E+01 0. -1.
        -11    1    3    3    0    0  0.12040263426E+01  0.44860525788E+02 -0.64039963839E+02  0.78198679157E+02  0.00000000000E+00 0. -1.
         11    1    3    3    0    0  0.31873117786E+02 -0.57130768054E+01 -0.17164673648E+03  0.17467437428E+03  0.00000000000E+00 0.  1.
</event>
<event>
 8    1  0.5900800E-006  0.9827774E+02  0.7561462E-02  0.1283960E+00
         -1   -1    0    0    0  501 -0.00000000000E+00  0.00000000000E+00  0.23293756481E+03  0.23293756481E+03  0.00000000000E+00 0.  1.
          1   -1    0    0  501    0  0.00000000000E+00 -0.00000000000E+00 -0.61778157786E+03  0.61778157786E+03  0.00000000000E+00 0. -1.
         23    2    1    2    0    0  0.33247846990E+02 -0.10525868333E+02  0.21775876355E+03  0.23657940533E+03  0.85642995563E+02 0.  0.
         23    2    1    2    0    0 -0.33247846990E+02  0.10525868333E+02 -0.60260277660E+03  0.61413973734E+03  0.11323116790E+03 0.  0.
          5    1    4    4  502    0 -0.45818044972E+02 -0.40537846284E+02 -0.40502262082E+03  0.40963814032E+03  0.41800000000E+01 0. -1.
         -5    1    4    4    0  502  0.12570197982E+02  0.51063714617E+02 -0.19758015577E+03  0.20450159702E+03  0.41800000000E+01 0.  1.
        -11    1    3    3    0    0  0.10603978482E+02 -0.42219219993E+02  0.60276927813E+02  0.74351966504E+02  0.00000000000E+00 0.  1.
         11    1    3    3    0    0  0.22643868508E+02  0.31693351659E+02  0.15748183574E+03  0.16222743882E+03  0.00000000000E+00 0. -1.
</event>
<event>
 8    1  0.5900800E-006  0.6420088E+02  0.7561462E-02  0.1381003E+00
          1   -1    0    0  501    0  0.00000000000E+00  0.00000000000E+00  0.16170081089E+03  0.16170081089E+03  0.00000000000E+00 0. -1.
         -1   -1    0    0    0  501 -0.00000000000E+00 -0.00000000000E+00 -0.10437339625E+03  0.10437339625E+03  0.00000000000E+00 0.  1.
         23    2    1    2    0    0  0.15536663578E+02 -0.57986835013E+02 -0.15445832598E+02  0.10939858219E+03  0.90142193736E+02 0.  0.
         23    2    1    2    0    0 -0.15536663578E+02  0.57986835013E+02  0.72773247244E+02  0.15667562495E+03  0.12508974774E+03 0.  0.
          5    1    4    4  502    0  0.32398765623E+01  0.28593629626E+02 -0.33726890569E+02  0.44531651696E+02  0.41800000000E+01 0.  1.
         -5    1    4    4    0  502 -0.18776540140E+02  0.29393205386E+02  0.10650013781E+03  0.11214397325E+03  0.41800000000E+01 0.  1.
        -11    1    3    3    0    0  0.21538802095E+02 -0.45231402177E+02  0.32304889616E+02  0.59610449014E+02  0.00000000000E+00 0. -1.
         11    1    3    3    0    0 -0.60021385176E+01 -0.12755432836E+02 -0.47750722214E+02  0.49788133180E+02  0.00000000000E+00 0.  1.
</event>
<event>
 8    1  0.5900800E-006  0.3683625E+03  0.7561462E-02  0.1055321E+00
          2   -1    0    0  501    0  0.00000000000E+00  0.00000000000E+00  0.12381660813E+04  0.12381660813E+04  0.00000000000E+00 0. -1.
         -2   -1    0    0    0  501 -0.00000000000E+00 -0.00000000000E+00 -0.12048032685E+03  0.12048032685E+03  0.00000000000E+00 0.  1.
         23    2    1    2    0    0 -0.35246814160E+03 -0.61114143632E+02  0.39479045249E+03  0.54243871089E+03  0.10203687717E+03 0.  0.
         23    2    1    2    0    0  0.35246814160E+03  0.61114143632E+02  0.72289530193E+03  0.81620769722E+03  0.12509459643E+03 0.  0.
          5    1    4    4  502    0  0.12427898332E+03  0.63959134496E+02  0.37399643936E+03  0.39928291427E+03  0.41800000000E+01 0.  1.
         -5    1    4    4    0  502  0.22818915828E+03 -0.28449908646E+01  0.34889886257E+03  0.41692478294E+03  0.41800000000E+01 0.  1.
        -11    1    3    3    0    0 -0.11084213339E+03 -0.62029450342E+02  0.10258122971E+03  0.16326830658E+03  0.00000000000E+00 0.  1.
         11    1    3    3    0    0 -0.24162600821E+03  0.91530671073E+00  0.29220922278E+03  0.37917040431E+03  0.00000000000E+00 0. -1.
</event>
<event>
 8    1  0.5900800E-006  0.2894757E+03  0.7561462E-02  0.1090623E+00
         -1   -1    0    0    0  501 -0.00000000000E+00  0.00000000000E+00  0.25353553932E+03  0.25353553932E+03  0.00000000000E+00 0.  1.
          1   -1    0    0  501    0  0.00000000000E+00 -0.00000000000E+00 -0.37122327391E+03  0.37122327391E+03  0.00000000000E+00 0. -1.
         23    2    1    2    0    0 -0.24871761473E+03 -0.11757428216E+03  0.24835944338E+02  0.29062717551E+03  0.90350248013E+02 0.  0.
         23    2    1    2    0    0  0.24871761473E+03  0.11757428216E+03 -0.14252367893E+03  0.33413163772E+03  0.12508712392E+03 0.  0.
          5    1    4    4  502    0  0.91340648992E+01 -0.22501469848E+02 -0.10906173468E+02  0.26947435993E+02  0.41800000000E+01 0. -1.
         -5    1    4    4    0  502  0.23958354983E+03  0.14007575200E+03 -0.13161750546E+03  0.30718420173E+03  0.41800000000E+01 0. -1.
        -11    1    3    3    0    0 -0.20546074769E+02 -0.19729420061E+02 -0.24423222748E+02  0.37521793850E+02  0.00000000000E+00 0. -1.
         11    1    3    3    0    0 -0.22817153996E+03 -0.97844862094E+02  0.49259167086E+02  0.25310538166E+03  0.00000000000E+00 0.  1.
</event>
<event>
 8    1  0.5900800E-006  0.1345506E+03  0.7561462E-02  0.1220855E+00
          3   -1    0    0  501    0  0.00000000000E+00  0.00000000000E+00  0.30592757018E+02  0.30592757018E+02  0.00000000000E+00 0. -1.
         -3   -1    0    0    0  501 -0.00000000000E+00 -0.00000000000E+00 -0.84589034700E+03  0.84589034700E+03  0.00000000000E+00 0.  1.
         23    2    1    2    0    0  0.26361226768E+02 -0.11568205957E+03 -0.40145369458E+03  0.42816280779E+03  0.89894760128E+02 0.  0.
         23    2    1    2    0    0 -0.26361226768E+02  0.11568205957E+03 -0.41384389541E+03  0.44832029623E+03  0.12508822912E+03 0.  0.
          5    1    4    4  502    0 -0.16622638491E+02  0.34678000108E+02 -0.15478575729E+02  0.41664547381E+02  0.41800000000E+01 0.  1.
         -5    1    4    4    0  502 -0.97385882772E+01  0.81004059467E+02 -0.39836531968E+03  0.40665574885E+03  0.41800000000E+01 0.  1.
        -11    1    3    3    0    0  0.24615519437E+02  0.73425329152E+01 -0.76402342085E+02  0.80604928279E+02  0.00000000000E+00 0. -1.
         11    1    3    3    0    0  0.17457073308E+01 -0.12302459249E+03 -0.32505135249E+03  0.34755787951E+03  0.00000000000E+00 0.  1.
</event>
<event>
 8    1  0.5900800E-006  0.6735060E+02  0.7561462E-02  0.1369341E+00
          2   -1    0    0  501    0  0.00000000000E+00  0.00000000000E+00  0.26714525283E+03  0.26714525283E+03  0.00000000000E+00 0.  1.
         -2   -1    0    0    0  501 -0.00000000000E+00 -0.00000000000E+00 -0.57529643258E+02  0.57529643258E+02  0.00000000000E+00 0. -1.
         23    2    1    2    0    0  0.54554028008E+02 -0.11375472727E+02  0.51672699566E+02  0.11561666425E+03  0.87129798697E+02 0.  0.
         23    2    1    2    0    0 -0.54554028008E+02  0.11375472727E+02  0.15794291001E+03  0.20905823183E+03  0.12511529933E+03 0.  0.
          5    1    4    4  502    0 -0.14139638973E+02  0.29264222267E+02 -0.10855160740E+02  0.34520008834E+02  0.41800000000E+01 0. -1.
         -5    1    4    4    0  502 -0.40414389035E+02 -0.17888749540E+02  0.16879807075E+03  0.17453822300E+03  0.41800000000E+01 0. -1.
        -11    1    3    3    0    0  0.36577128030E+02 -0.14398990407E+02 -0.18262693883E+02  0.43344471476E+02  0.00000000000E+00 0. -1.
         11    1    3    3    0    0  0.17976899978E+02  0.30235176800E+01  0.69935393449E+02  0.72272192777E+02  0.00000000000E+00 0.  1.
</event>
<event>
 8    1  0.5900800E-006  0.1564464E+03  0.7561462E-02  0.1192768E+00
          2   -1    0    0  501    0  0.00000000000E+00  0.00000000000E+00  0.37802537026E+03  0.37802537026E+03  0.00000000000E+00 0. -1.
         -2   -1    0    0    0  501 -0.00000000000E+00 -0.00000000000E+00 -0.10122021746E+03  0.10122021746E+03  0.00000000000E+00 0.  1.
         23    2    1    2    0    0  0.77195940219E+02  0.12262386809E+03  0.43600139670E+02  0.17753716666E+03  0.92858209940E+02 0.  0.
         23    2    1    2    0    0 -0.77195940219E+02 -0.12262386809E+03  0.23320501313E+03  0.30170842106E+03  0.12509023534E+03 0.  0.
          5    1    4    4  502    0  0.15476128104E+02 -0.99789101464E+01 -0.74234586252E+01  0.20289635944E+02  0.41800000000E+01 0.  1.
         -5    1    4    4    0  502 -0.92672068323E+02 -0.11264495795E+03  0.24062847176E+03  0.28141878512E+03  0.41800000000E+01 0.  1.
        -11    1    3    3    0    0  0.32489636131E+02  0.79867356812E+02  0.69230497643E+02  0.11057681920E+03  0.00000000000E+00 0. -1.
         11    1    3    3    0    0  0.44706304089E+02  0.42756511280E+02 -0.25630357973E+02  0.66960347460E+02  0.00000000000E+00 0.  1.
</event>
<event>
 7    1  0.5900800E-006  0.1103751E+03  0.7561462E-02  0.1259877E+00
         -1   -1    0    0    0  501 -0.00000000000E+00  0.00000000000E+00  0.89332127613E+02  0.89332127613E+02  0.00000000000E+00 0.  1.
          1   -1    0    0  501    0  0.00000000000E+00 -0.00000000000E+00 -0.25220617424E+03  0.25220617424E+03  0.00000000000E+00 0. -1.
         23    2    1    2    0    0  0.10682563464E+02  0.49542258032E+00  0.32805892236E+02  0.99039671870E+02  0.92834624107E+02 0.  0.
          5    1    1    2  502    0 -0.53146899927E+02 -0.42736805943E+02 -0.49218558693E+02  0.84207876555E+02  0.41800000000E+01 0. -1.
         -5    1    1    2    0  502  0.42464336463E+02  0.42241383362E+02 -0.14646138017E+03  0.15829075343E+03  0.41800000000E+01 0.  1.
        -11    1    3    3    0    0  0.47958806026E+02 -0.17419276697E+02  0.25500825782E+02  0.57041830192E+02  0.00000000000E+00 0.  1.
         11    1    3    3    0    0 -0.37276242562E+02  0.17914699278E+02  0.73050664544E+01  0.41997841678E+02  0.00000000000E+00 0. -1.
</event>
<event>
 8    1  0.5900800E-006  0.3027840E+03  0.7561462E-02  0.1083857E+00
         -1   -1    0    0    0  501 -0.00000000000E+00  0.00000000000E+00  0.41491844989E+02  0.41491844989E+02  0.00000000000E+00 0.  1.
          1   -1    0    0  501    0  0.00000000000E+00 -0.00000000000E+00 -0.25115799270E+04  0.25115799270E+04  0.00000000000E+00 0. -1.
         23    2    1    2    0    0  0.21930887725E+03  0.19471720750E+03 -0.90051023512E+03  0.95143753554E+03  0.91123684876E+02 0.  0.
         23    2    1    2    0    0 -0.21930887725E+03 -0.19471720750E+03 -0.15695778469E+04  0.16016342364E+04  0.12508571212E+03 0.  0.
          5    1    4    4  502    0 -0.19820123031E+03 -0.13458221622E+03 -0.14014041844E+04  0.14217409262E+04  0.41800000000E+01 0. -1.
         -5    1    4    4    0  502 -0.21107646938E+02 -0.60134991277E+02 -0.16817366242E+03  0.17989331023E+03  0.41800000000E+01 0. -1.
        -11    1    3    3    0    0  0.17626980063E+03  0.18937933198E+03 -0.69975740192E+03  0.74605361439E+03  0.00000000000E+00 0.  1.
         11    1    3    3    0    0  0.43039076618E+02  0.53378755123E+01 -0.20075283320E+03  0.20538392115E+03  0.00000000000E+00 0. -1.
</event>
<event>
 8    1  0.5900800E-006  0.7252558E+02  0.7561462E-02  0.1351709E+00
         -2   -1    0    0    0  501 -0.00000000000E+00  0.00000000000E+00  0.11582841265E+02  0.11582841265E+02  0.00000000000E+00 0.  1.
          2   -1    0    0  501    0  0.00000000000E+00 -0.00000000000E+00 -0.10749433625E+04  0.10749433625E+04  0.00000000000E+00 0. -1.
         23    2    1    2    0    0  0.45933729474E+01 -0.24922658395E+02 -0.42069540804E+03  0.43130763695E+03  0.91648313490E+02 0.  0.
         23    2    1    2    0    0 -0.45933729474E+01  0.24922658395E+02 -0.64266511315E+03  0.65521856677E+03  0.12510269625E+03 0.  0.
          5    1    4    4  502    0 -0.20190576032E+02  0.28568355868E+02 -0.44195861620E+02  0.56520411374E+02  0.41800000000E+01 0. -1.
         -5    1    4    4    0  502  0.15597203084E+02 -0.36456974735E+01 -0.59846925153E+03  0.59869815540E+03  0.41800000000E+01 0. -1.
        -11    1    3    3    0    0  0.46592207530E+02 -0.20929040897E+02 -0.18780020526E+03  0.19462213556E+03  0.00000000000E+00 0.  1.
         11    1    3    3    0    0 -0.41998834582E+02 -0.39936174978E+01 -0.23289520278E+03  0.23668550139E+03  0.00000000000E+00 0. -1.
</event>
<event>
 8    1  0.5900800E-006  0.8976441E+02  0.7561462E-02  0.1303423E+00
          1   -1    0    0  501    0  0.00000000000E+00  0.00000000000E+00  0.63203238879E+03  0.63203238879E+03  0.00000000000E+00 0. -1.
         -1   -1    0    0    0  501 -0.00000000000E+00 -0.00000000000E+00 -0.27319971897E+02  0.27319971897E+02  0.00000000000E+00 0.  1.
         23    2    1    2    0    0 -0.18611013079E+02  0.40170287914E+01  0.89765579004E+02  0.12908377067E+03  0.90786862199E+02 0.  0.
         23    2    1    2    0    0  0.18611013079E+02 -0.40170287914E+01  0.51494683789E+03  0.53026859002E+03  0.12510805482E+03 0.  0.
          5    1    4    4  502    0 -0.34826308478E+02  0.26582427508E+02  0.37162673999E+03  0.37422373454E+03  0.41800000000E+01 0.  1.
         -5    1    4    4    0  502  0.53437321557E+02 -0.30599456299E+02  0.14332009790E+03  0.15604485548E+03  0.41800000000E+01 0.  1.
        -11    1    3    3    0    0  0.27102094538E+02 -0.39730493501E+01  0.75837241752E+02  0.80632474140E+02  0.00000000000E+00 0. -1.
         11    1    3    3    0    0 -0.45713107617E+02  0.79900781415E+01  0.13928337252E+02  0.48451296529E+02  0.00000000000E+00 0.  1.
</event>
<event>
 8    1  0.5900800E-006  0.9852199E+02  0.7561462E-02  0.1283435E+00
          1   -1    0    0  501    0  0.00000000000E+00  0.00000000000E+00  0.16146876677E+03  0.16146876677E+03  0.00000000000E+00 0. -1.
         -1   -1    0    0    0  501 -0.00000000000E+00 -0.00000000000E+00 -0.10612160284E+03  0.10612160284E+03  0.00000000000E+00 0.  1.
         23    2    1    2    0    0  0.60289584507E+02  0.14786955510E+02 -0.15988749890E+02  0.11078096774E+03  0.90350952609E+02 0.  0.
         23    2    1    2    0    0 -0.60289584507E+02 -0.14786955510E+02  0.71335913827E+02  0.15680940187E+03  0.12508752080E+03 0.  0.
          5    1    4    4  502    0  0.44914211119E+01  0.26590207750E+02  0.74929717258E+02  0.79744259606E+02  0.41800000000E+01 0. -1.
         -5    1    4    4    0  502 -0.64781005619E+02 -0.41377163259E+02 -0.35938034309E+01  0.77065142260E+02  0.41800000000E+01 0. -1.
        -11    1    3    3    0    0  0.13910347753E+02  0.38319327438E+02 -0.36650695101E+02  0.54819176219E+02  0.00000000000E+00 0.  1.
         11    1    3    3    0    0  0.46379236754E+02 -0.23532371928E+02  0.20661945211E+02  0.55961791522E+02  0.00000000000E+00 0. -1.
</event>
<event>
 8    1  0.5900800E-006  0.1320928E+03  0.7561462E-02  0.1224383E+00
         -1   -1    0    0    0  501 -0.00000000000E+00  0.00000000000E+00  0.20728325683E+02  0.20728325683E+02  0.00000000000E+00 0.  1.
          1   -1    0    0  501    0  0.00000000000E+00 -0.00000000000E+00 -0.10271361441E+04  0.10271361441E+04  0.00000000000E+00 0. -1.
         23    2    1    2    0    0 -0.41548370987E+02  0.79489333412E+02 -0.31845462839E+03  0.34290291134E+03  0.90134538364E+02 0.  0.
         23    2    1    2    0    0  0.41548370987E+02 -0.79489333412E+02 -0.68795318998E+03  0.70496155839E+03  0.12508551456E+03 0.  0.
          5    1    4    4  502    0  0.78254263742E+02 -0.59209281749E+02 -0.32354943806E+03  0.33812894006E+03  0.41800000000E+01 0. -1.
         -5    1    4    4    0  502 -0.36705892755E+02 -0.20280051662E+02 -0.36440375192E+03  0.36683261833E+03  0.41800000000E+01 0. -1.
        -11    1    3    3    0    0 -0.62163338439E+02  0.27649818361E+02 -0.13533750212E+03  0.15147617826E+03  0.00000000000E+00 0. -1.
         11    1    3    3    0    0  0.20614967452E+02  0.51839515050E+02 -0.18311712627E+03  0.19142673308E+03  0.00000000000E+00 0.  1.
</event>
<event>
 8    1  0.5900800E-006  0.1056290E+03  0.7561462E-02  0.1268885E+00
         -1   -1    0    0    0  501 -0.00000000000E+00  0.00000000000E+00  0.16228284736E+02  0.16228284736E+02  0.00000000000E+00 0.  1.
          1   -1    0    0  501    0  0.00000000000E+00 -0.00000000000E+00 -0.80129163648E+03  0.80129163648E+03  0.00000000000E+00 0. -1.
         23    2    1    2    0    0 -0.79573619231E+01 -0.13190074336E+02 -0.28938924734E+03  0.30607294518E+03  0.98474431333E+02 0.  0.
         23    2    1    2    0    0  0.79573619231E+01  0.13190074336E+02 -0.49567410440E+03  0.51144697603E+03  0.12509154187E+03 0.  0.
          5    1    4    4  502    0 -0.55855787095E+02  0.23490120354E+02 -0.21664692858E+03  0.22500004171E+03  0.41800000000E+01 0. -1.
         -5    1    4    4    0  502  0.63813149018E+02 -0.10300046019E+02 -0.27902717583E+03  0.28644693433E+03  0.41800000000E+01 0. -1.
        -11    1    3    3    0    0  0.23779181528E+02 -0.38432875560E+02 -0.72556313019E+02  0.85480722721E+02  0.00000000000E+00 0.  1.
         11    1    3    3    0    0 -0.31736543452E+02  0.25242801225E+02 -0.21683293432E+03  0.22059222246E+03  0.00000000000E+00 0. -1.
</event>
<event>
 8    1  0.5900800E-006  0.9006631E+02  0.7561462E-02  0.1302691E+00
         -2   -1    0    0    0  501 -0.00000000000E+00  0.00000000000E+00  0.34332063479E+02  0.34332063479E+02  0.00000000000E+00 0.  1.
          2   -1    0    0  501    0  0.00000000000E+00 -0.00000000000E+00 -0.14473024411E+04  0.14473024411E+04  0.00000000000E+00 0. -1.
         23    2    1    2    0    0  0.10045332633E+02  0.49078549504E+01 -0.14596098937E+02  0.77945221950E+02  0.75745731053E+02 0.  0.
         23    2    1    2    0    0 -0.10045332633E+02 -0.49078549504E+01 -0.13983742787E+04  0.14036892827E+04  0.12152359086E+03 0.  0.
          5    1    4    4  502    0  0.51515941704E+02 -0.16653668554E+02 -0.84927076044E+03  0.85100501400E+03  0.41800000000E+01 0. -1.
         -5    1    4    4    0  502 -0.61561274337E+02  0.11745813603E+02 -0.54910351829E+03  0.55268426867E+03  0.41800000000E+01 0.  1.
        -11    1    3    3    0    0 -0.16516324325E+00 -0.28288214575E+02 -0.28848211035E+02  0.40403832029E+02  0.00000000000E+00 0. -1.
         11    1    3    3    0    0  0.10210495876E+02  0.33196069525E+02  0.14252112098E+02  0.37541389921E+02  0.00000000000E+00 0.  1.
</event>
<event>
 8    1  0.5900800E-006  0.1400130E+03  0.7561462E-02  0.1213312E+00
          1   -1    0    0  501    0  0.00000000000E+00  0.00000000000E+00  0.63043681639E+03  0.63043681639E+03  0.00000000000E+00 0. -1.
         -1   -1    0    0    0  501 -0.00000000000E+00 -0.00000000000E+00 -0.40736943002E+02  0.40736943002E+02  0.00000000000E+00 0.  1.
         23    2    1    2    0    0 -0.26087779857E+02 -0.98860422726E+02  0.15104968532E+03  0.20371706929E+03  0.90723103141E+02 0.  0.
         23    2    1    2    0    0  0.26087779857E+02  0.98860422726E+02  0.43865018806E+03  0.46745669010E+03  0.12509122349E+03 0.  0.
          5    1    4    4  502    0  0.74214261326E+02  0.79083206549E+02  0.31756108927E+03  0.33559563162E+03  0.41800000000E+01 0.  1.
         -5    1    4    4    0  502 -0.48126481468E+02  0.19777216177E+02  0.12108909879E+03  0.13186105848E+03  0.41800000000E+01 0.  1.
        -11    1    3    3    0    0  0.16012816166E+02 -0.59649813141E+02  0.27858856871E+02  0.67754161462E+02  0.00000000000E+00 0.  1.
         11    1    3    3    0    0 -0.42100596024E+02 -0.39210609585E+02  0.12319082845E+03  0.13596290782E+03  0.00000000000E+00 0. -1.
</event>
<event>
 8    1  0.5900800E-006  0.9912345E+02  0.7561462E-02  0.1282150E+00
         -2   -1    0    0    0  501 -0.00000000000E+00  0.00000000000E+00  0.86055793173E+01  0.86055793173E+01  0.00000000000E+00 0.  1.
          2   -1    0    0  501    0  0.00000000000E+00 -0.00000000000E+00 -0.19504663333E+04  0.19504663333E+04  0.00000000000E+00 0. -1.
         23    2    1    2    0    0 -0.10669337439E+02 -0.46948668873E+02 -0.47736975236E+03  0.48845996615E+03  0.91614659256E+02 0.  0.
         23    2    1    2    0    0  0.10669337439E+02  0.46948668873E+02 -0.14644910016E+04  0.14706119464E+04  0.12509033134E+03 0.  0.
          5    1    4    4  502    0 -0.26247720973E+02 -0.89559188004E+01 -0.85385010075E+02  0.89873375832E+02  0.41800000000E+01 0.  1.
         -5    1    4    4    0  502  0.36917058412E+02  0.55904587674E+02 -0.13791059915E+04  0.13807385706E+04  0.41800000000E+01 0.  1.
        -11    1    3    3    0    0  0.37641672769E+02 -0.38843123569E+02 -0.22846967766E+03  0.23478517284E+03  0.00000000000E+00 0.  1.
         11    1    3    3    0    0 -0.48311010208E+02 -0.81055453037E+01 -0.24890007470E+03  0.25367479331E+03  0.00000000000E+00 0. -1.
</event>
<event>
 8    1  0.5900800E-006  0.1625718E+03  0.7561462E-02  0.1185823E+00
          1   -1    0    0  501    0  0.00000000000E+00  0.00000000000E+00  0.41328103889E+03  0.41328103889E+03  0.00000000000E+00 0. -1.
         -1   -1    0    0    0  501 -0.00000000000E+00 -0.00000000000E+00 -0.11344856845E+03  0.11344856845E+03  0.00000000000E+00 0.  1.
         23    2    1    2    0    0 -0.15465789821E+03  0.23746994742E+02  0.19652710020E+02  0.18229551892E+03  0.91446388494E+02 0.  0.
         23    2    1    2    0    0  0.15465789821E+03 -0.23746994742E+02  0.28017976042E+03  0.34443408843E+03  0.12510458779E+03 0.  0.
          5    1    4    4  502    0  0.12482259565E+02 -0.22862971921E+02  0.14775890151E+03  0.15009559509E+03  0.41800000000E+01 0.  1.
         -5    1    4    4    0  502  0.14217563864E+03 -0.88402282070E+00  0.13242085890E+03  0.19433849334E+03  0.41800000000E+01 0.  1.
        -11    1    3    3    0    0 -0.78693436004E+02  0.14116475353E+02 -0.35954291312E+02  0.87662094490E+02  0.00000000000E+00 0.  1.
         11    1    3    3    0    0 -0.75964462205E+02  0.96305193892E+01  0.55607001333E+02  0.94633424428E+02  0.00000000000E+00 0. -1.
</event>
<event>
 8    1  0.5900800E-006  0.6100209E+02  0.7561462E-02  0.1393674E+00
          1   -1    0    0  501    0  0.00000000000E+00  0.00000000000E+00  0.64946152994E+03  0.64946152994E+03  0.00000000000E+00 0. -1.
         -1   -1    0    0    0  501 -0.00000000000E+00 -0.00000000000E+00 -0.33758135009E+02  0.33758135009E+02  0.00000000000E+00 0.  1.
         23    2    1    2    0    0 -0.26445385752E+02 -0.31150758269E+01  0.62878242250E+02  0.11579352375E+03  0.93516868361E+02 0.  0.
         23    2    1    2    0    0  0.26445385752E+02  0.31150758269E+01  0.55282515268E+03  0.56742614120E+03  0.12509082364E+03 0.  0.
          5    1    4    4  502    0  0.46873564485E+02  0.12564220556E+02  0.77403345761E+02  0.91453491025E+02  0.41800000000E+01 0. -1.
         -5    1    4    4    0  502 -0.20428178733E+02 -0.94491447296E+01  0.47542180692E+03  0.47597265018E+03  0.41800000000E+01 0. -1.
        -11    1    3    3    0    0 -0.25436023990E+02 -0.20697102991E+02  0.82887113483E+02  0.89138291268E+02  0.00000000000E+00 0. -1.
         11    1    3    3    0    0 -0.10093617616E+01  0.17582027164E+02 -0.20008871233E+02  0.26655232477E+02  0.00000000000E+00 0.  1.
</event>
<event>
 8    1  0.5900800E-006  0.1349397E+03  0.7561462E-02  0.1220305E+00
         -2   -1    0    0    0  501 -0.00000000000E+00  0.00000000000E+00  0.12938150532E+02  0.12938150532E+02  0.00000000000E+00 0.  1.
          2   -1    0    0  501    0  0.00000000000E+00 -0.00000000000E+00 -0.19118386836E+04  0.19118386836E+04  0.00000000000E+00 0. -1.
         23    2    1    2    0    0  0.87634625554E+02  0.41475642692E+02 -0.34264146379E+03  0.36049145696E+03  0.56132533314E+02 0.  0.
         23    2    1    2    0    0 -0.87634625554E+02 -0.41475642692E+02 -0.15562590693E+04  0.15642853772E+04  0.12508554678E+03 0.  0.
          5    1    4    4  502    0  0.22716464973E+02  0.21141796137E+02 -0.30844171108E+03  0.31002705505E+03  0.41800000000E+01 0. -1.
         -5    1    4    4    0  502 -0.11035109053E+03 -0.62617438829E+02 -0.12478173582E+04  0.12542583222E+04  0.41800000000E+01 0. -1.
        -11    1    3    3    0    0  0.36995925262E+02  0.47955118758E+02 -0.20120837018E+03  0.21012662880E+03  0.00000000000E+00 0.  1.
         11    1    3    3    0    0  0.50638700292E+02 -0.64794760653E+01 -0.14143309362E+03  0.15036482816E+03  0.00000000000E+00 0. -1.
</event>
<event>
 8    1  0.5900800E-006  0.1149956E+03  0.7561462E-02  0.1251589E+00
          2   -1    0    0  501    0  0.00000000000E+00  0.00000000000E+00  0.90450315308E+03  0.90450315308E+03  0.00000000000E+00 0. -1.
         -2   -1    0    0    0  501 -0.00000000000E+00 -0.00000000000E+00 -0.20525282783E+02  0.20525282783E+02  0.00000000000E+00 0.  1.
         23    2    1    2    0    0 -0.62876202942E+02 -0.51630646157E+02  0.35219290684E+03  0.37270424456E+03  0.90826591747E+02 0.  0.
         23    2    1    2    0    0  0.62876202942E+02  0.51630646157E+02  0.53178496345E+03  0.55232419129E+03  0.12509046493E+03 0.  0.
          5    1    4    4  502    0  0.46207800461E+02 -0.18513981531E+02  0.76623097027E+02  0.91468572382E+02  0.41800000000E+01 0. -1.
         -5    1    4    4    0  502  0.16668402481E+02  0.70144627688E+02  0.45516186642E+03  0.46085561891E+03  0.41800000000E+01 0. -1.
        -11    1    3    3    0    0  0.11933439156E+02 -0.26224784020E+02  0.32676238463E+02  0.43564697028E+02  0.00000000000E+00 0.  1.
         11    1    3    3    0    0 -0.74809642098E+02 -0.25405862137E+02  0.31951666838E+03  0.32913954754E+03  0.00000000000E+00 0. -1.
</event>
<event>
 8    1  0.5900800E-006  0.1129799E+03  0.7561462E-02  0.1255149E+00
         -2   -1    0    0    0  501 -0.00000000000E+00  0.00000000000E+00  0.11604769885E+02  0.11604769885E+02  0.00000000000E+00 0.  1.
          2   -1    0    0  501    0  0.00000000000E+00 -0.00000000000E+00 -0.19747118296E+04  0.19747118296E+04  0.00000000000E+00 0. -1.
         23    2    1    2    0    0 -0.56667430205E+02 -0.74931149902E+02 -0.58698730215E+03  0.60133316130E+03  0.90673056226E+02 0.  0.
         23    2    1    2    0    0  0.56667430205E+02  0.74931149902E+02 -0.13761197576E+04  0.13849834382E+04  0.12509061518E+03 0.  0.
          5    1    4    4  502    0  0.37294833296E+02  0.32343628834E+02 -0.15011390974E+03  0.15807806051E+03  0.41800000000E+01 0. -1.
         -5    1    4    4    0  502  0.19372596909E+02  0.42587521069E+02 -0.12260058479E+04  0.12269053777E+04  0.41800000000E+01 0. -1.
        -11    1    3    3    0    0  0.21076086681E+02 -0.37821988970E+02 -0.16084981544E+03  0.16657541057E+03  0.00000000000E+00 0. -1.
         11    1    3    3    0    0 -0.77743516886E+02 -0.37109160932E+02 -0.42613748671E+03  0.43475775073E+03  0.00000000000E+00 0.  1.
</event>
<event>
 8    1  0.5900800E-006  0.1491741E+03  0.7561462E-02  0.1201492E+00
          1   -1    0    0  501    0  0.00000000000E+00  0.00000000000E+00  0.50024000892E+03  0.50024000892E+03  0.00000000000E+00 0. -1.
         -1   -1    0    0    0  501 -0.00000000000E+00 -0.00000000000E+00 -0.47391756194E+02  0.47391756194E+02  0.00000000000E+00 0.  1.
         23    2    1    2    0    0  0.84217012416E+02 -0.61104251092E+02  0.14758846951E+03  0.20171687869E+03  0.89894983917E+02 0.  0.
         23    2    1    2    0    0 -0.84217012416E+02  0.61104251092E+02  0.30525978321E+03  0.34591488642E+03  0.12508932297E+03 0.  0.
          5    1    4    4  502    0 -0.44877370903E+02  0.97821484019E+02  0.18440111521E+03  0.21355155079E+03  0.41800000000E+01 0.  1.
         -5    1    4    4    0  502 -0.39339641513E+02 -0.36717232928E+02  0.12085866801E+03  0.13236333564E+03  0.41800000000E+01 0.  1.
        -11    1    3    3    0    0  0.48338468632E+02  0.16576799489E+02  0.66158939528E+02  0.83596669255E+02  0.00000000000E+00 0. -1.
         11    1    3    3    0    0  0.35878543784E+02 -0.77681050581E+02  0.81429529983E+02  0.11812020943E+03  0.00000000000E+00 0.  1.
</event>
<event>
 8    1  0.5900800E-006  0.1230660E+03  0.7561462E-02  0.1238123E+00
         -1   -1    0    0    0  501 -0.00000000000E+00  0.00000000000E+00  0.73404355879E+02  0.73404355879E+02  0.00000000000E+00 0.  1.
          1   -1    0    0  501    0  0.00000000000E+00 -0.00000000000E+00 -0.24234166801E+03  0.24234166801E+03  0.00000000000E+00 0. -1.
         23    2    1    2    0    0  0.62730598310E+02 -0.36705766248E+02 -0.37477265960E+02  0.12026589227E+03  0.88186723146E+02 0.  0.
         23    2    1    2    0    0 -0.62730598310E+02  0.36705766248E+02 -0.13146004617E+03  0.19548013162E+03  0.12509315280E+03 0.  0.
          5    1    4    4  502    0 -0.94192077213E+02 -0.10980033257E+01 -0.74968588159E+02  0.12046208794E+03  0.41800000000E+01 0. -1.
         -5    1    4    4    0  502  0.31461478903E+02  0.37803769574E+02 -0.56491458012E+02  0.75018043677E+02  0.41800000000E+01 0. -1.
        -11    1    3    3    0    0  0.77168638187E+02 -0.41044085484E+02 -0.49975193909E+02  0.10068334360E+03  0.00000000000E+00 0. -1.
         11    1    3    3    0    0 -0.14438039876E+02  0.43383192360E+01  0.12497927949E+02  0.19582548667E+02  0.00000000000E+00 0.  1.
</event>
<event>
 8    1  0.5900800E-006  0.1058138E+03  0.7561462E-02  0.1268524E+00
         -2   -1    0    0    0  501 -0.00000000000E+00  0.00000000000E+00  0.30983343859E+03  0.30983343859E+03  0.00000000000E+00 0. -1.
          2   -1    0    0  501    0  0.00000000000E+00 -0.00000000000E+00 -0.53537224955E+02  0.53537224955E+02  0.00000000000E+00 0.  1.
         23    2    1    2    0    0 -0.75924829597E+01 -0.65888324840E+02  0.14478360035E+03  0.18314406721E+03  0.90446344735E+02 0.  0.
         23    2    1    2    0    0  0.75924829597E+01  0.65888324840E+02  0.11151261328E+03  0.18022659633E+03  0.12509055103E+03 0.  0.
          5    1    4    4  502    0  0.11452175088E+01 -0.32544014123E+02  0.61116196696E+02  0.69376410090E+02  0.41800000000E+01 0. -1.
         -5    1    4    4    0  502  0.64472654508E+01  0.98432338963E+02  0.50396416586E+02  0.11085018624E+03  0.41800000000E+01 0. -1.
        -11    1    3    3    0    0  0.17841640804E+02 -0.39869073211E+02  0.11760721046E+02  0.45234740021E+02  0.00000000000E+00 0.  1.
         11    1    3    3    0    0 -0.25434123764E+02 -0.26019251630E+02  0.13302287931E+03  0.13790932719E+03  0.00000000000E+00 0. -1.
</event>
<event>
 8    1  0.5900800E-006  0.1115444E+03  0.7561462E-02  0.1257736E+00
          1   -1    0    0  501    0  0.00000000000E+00  0.00000000000E+00  0.37933454253E+03  0.37933454253E+03  0.00000000000E+00 0.  1.
         -1   -1    0    0    0  501 -0.00000000000E+00 -0.00000000000E+00 -0.44110223024E+02  0.44110223024E+02  0.00000000000E+00 0. -1.
         23    2    1    2    0    0 -0.95790013388E+01  0.40116681234E+02  0.67830999226E+02  0.12537032602E+03  0.97033853934E+02 0.  0.
         23    2    1    2    0    0  0.95790013388E+01 -0.40116681234E+02  0.26739332028E+03  0.29807443954E+03  0.12509227952E+03 0.  0.
          5    1    4    4  502    0  0.53093815871E+02 -0.50431322264E+02  0.22368022276E+03  0.23539878080E+03  0.41800000000E+01 0. -1.
         -5    1    4    4    0  502 -0.43514814532E+02  0.10314641029E+02  0.43713097520E+02  0.62675658737E+02  0.41800000000E+01 0. -1.
        -11    1    3    3    0    0  0.38259637149E+02 -0.55865179531E+01  0.31616820844E+02  0.49946294936E+02  0.00000000000E+00 0.  1.
         11    1    3    3    0    0 -0.47838638487E+02  0.45703199187E+02  0.36214178382E+02  0.75424031079E+02  0.00000000000E+00 0. -1.
</event>
<event>
 8    1  0.5900800E-006  0.1421832E+03  0.7561462E-02  0.1210421E+00
         -3   -1    0    0    0  501 -0.00000000000E+00  0.00000000000E+00  0.23648441700E+02  0.23648441700E+02  0.00000000000E+00 0.  1.
          3   -1    0    0  501    0  0.00000000000E+00 -0.00000000000E+00 -0.92564758921E+03  0.92564758921E+03  0.00000000000E+00 0. -1.
         23    2    1    2    0    0  0.17934228978E+02  0.96926792241E+02 -0.45596536767E+03  0.47568215589E+03  0.93019660824E+02 0.  0.
         23    2    1    2    0    0 -0.17934228978E+02 -0.96926792241E+02 -0.44603377984E+03  0.47361387502E+03  0.12509008843E+03 0.  0.
          5    1    4    4  502    0  0.48416207944E+02 -0.12395007619E+02 -0.17433899543E+03  0.18140926970E+03  0.41800000000E+01 0. -1.
         -5    1    4    4    0  502 -0.66350436923E+02 -0.84531784622E+02 -0.27169478441E+03  0.29220460532E+03  0.41800000000E+01 0. -1.
        -11    1    3    3    0    0 -0.25062308111E+02  0.73609713078E+02 -0.19068451230E+03  0.20592982392E+03  0.00000000000E+00 0.  1.
         11    1    3    3    0    0  0.42996537089E+02  0.23317079163E+02 -0.26528085536E+03  0.26975233197E+03  0.00000000000E+00 0. -1.
</event>
<event>
 8    1  0.5900800E-006  0.2402626E+03  0.7561462E-02  0.1119618E+00
          2   -1    0    0  501    0  0.00000000000E+00  0.00000000000E+00  0.16241668794E+04  0.16241668794E+04  0.00000000000E+00 0. -1.
         -2   -1    0    0    0  501 -0.00000000000E+00 -0.00000000000E+00 -0.72405698498E+02  0.72405698498E+02  0.00000000000E+00 0.  1.
         23    2    1    2    0    0  0.95308208783E+02 -0.20667670654E+03  0.18840541797E+03  0.30870133637E+03  0.89448297169E+02 0.  0.
         23    2    1    2    0    0 -0.95308208783E+02  0.20667670654E+03  0.13633557630E+04  0.13878712416E+04  0.12509488823E+03 0.  0.
          5    1    4    4  502    0  0.61597448927E+01  0.72736827971E+02  0.21073585623E+03  0.22305977249E+03  0.41800000000E+01 0.  1.
         -5    1    4    4    0  502 -0.10146795368E+03  0.13393987857E+03  0.11526199067E+04  0.11648114691E+04  0.41800000000E+01 0.  1.
        -11    1    3    3    0    0  0.51801933545E+02 -0.35738451364E+02  0.79526862219E+02  0.10141597034E+03  0.00000000000E+00 0. -1.
         11    1    3    3    0    0  0.43506275238E+02 -0.17093825518E+03  0.10887855575E+03  0.20728536603E+03  0.00000000000E+00 0.  1.
</event>
<event>
 8    1  0.5900800E-006  0.1016126E+03  0.7561462E-02  0.1276941E+00
          2   -1    0    0  501    0  0.00000000000E+00  0.00000000000E+00  0.38403316394E+03  0.38403316394E+03  0.00000000000E+00 0.  1.
         -2   -1    0    0    0  501 -0.00000000000E+00 -0.00000000000E+00 -0.63227706404E+02  0.63227706404E+02  0.00000000000E+00 0. -1.
         23    2    1    2    0    0  0.77410066749E+02 -0.50396174489E+02  0.57713974859E+02  0.14165584147E+03  0.90572521724E+02 0.  0.
         23    2    1    2    0    0 -0.77410066749E+02  0.50396174489E+02  0.26309148268E+03  0.30560502887E+03  0.12508082418E+03 0.  0.
          5    1    4    4  502    0 -0.50331102987E+01 -0.20096880131E+01  0.18989849854E+03  0.19002179663E+03  0.41800000000E+01 0. -1.
         -5    1    4    4    0  502 -0.72376956451E+02  0.52405862502E+02  0.73192984134E+02  0.11558323224E+03  0.41800000000E+01 0. -1.
        -11    1    3    3    0    0  0.35498286022E+02  0.66725009055E+01 -0.15946084624E+02  0.39483264729E+02  0.00000000000E+00 0. -1.
         11    1    3    3    0    0  0.41911780728E+02 -0.57068675394E+02  0.73660059483E+02  0.10217257674E+03  0.00000000000E+00 0.  1.
</event>
<event>
 8    1  0.5900800E-006  0.8306058E+02  0.7561462E-02  0.1320584E+00
         -1   -1    0    0    0  501 -0.00000000000E+00  0.00000000000E+00  0.71192390430E+02  0.71192390430E+02  0.00000000000E+00 0.  1.
          1   -1    0    0  501    0  0.00000000000E+00 -0.00000000000E+00 -0.21766542884E+03  0.21766542884E+03  0.00000000000E+00 0. -1.
         23    2    1    2    0    0 -0.27360397027E+02 -0.21982167964E+00  0.73415493707E-01  0.94248488967E+02  0.90189426408E+02 0.  0.
         23    2    1    2    0    0  0.27360397027E+02  0.21982167964E+00 -0.14654645390E+03  0.19460933030E+03  0.12509311988E+03 0.  0.
          5    1    4    4  502    0  0.56809066879E+02  0.10425066409E+02 -0.15203316127E+03  0.16268837271E+03  0.41800000000E+01 0.  1.
         -5    1    4    4    0  502 -0.29448669852E+02 -0.10205244729E+02  0.54867073647E+01  0.31920957595E+02  0.41800000000E+01 0.  1.
        -11    1    3    3    0    0 -0.25101168025E+02  0.34116643169E+02  0.27280882635E+02  0.50381152574E+02  0.00000000000E+00 0.  1.
         11    1    3    3    0    0 -0.22592290025E+01 -0.34336464849E+02 -0.27207467141E+02  0.43867336393E+02  0.00000000000E+00 0. -1.
</event>
<event>
 6    1  0.5900800E-006  0.3564591E+02  0.7561462E-02  0.1542938E+00
         -2   -1    0    0    0  501 -0.00000000000E+00  0.00000000000E+00  0.10869560203E+02  0.10869560203E+02  0.00000000000E+00 0.  1.
          2   -1    0    0  501    0  0.00000000000E+00 -0.00000000000E+00 -0.11128047311E+04  0.11128047311E+04  0.00000000000E+00 0. -1.
          5    1    1    2  502    0 -0.15959880733E+02 -0.16073910501E+02 -0.10492863338E+04  0.10495391231E+04  0.41800000000E+01 0. -1.
         -5    1    1    2    0  502 -0.13198727456E+02  0.11706439940E+02 -0.13585177341E+02  0.22655608266E+02  0.41800000000E+01 0.  1.
        -11    1    1    2    0    0  0.18151274919E+02  0.57340872223E+01 -0.34664587948E+02  0.39547214757E+02  0.00000000000E+00 0. -1.
         11    1    1    2    0    0  0.11007333270E+02 -0.13666166611E+01 -0.43990718123E+01  0.11932345102E+02  0.00000000000E+00 0.  1.
</event>
<event>
 8    1  0.5900800E-006  0.6724917E+02  0.7561462E-02  0.1369705E+00
         -2   -1    0    0    0  501 -0.00000000000E+00  0.00000000000E+00  0.28815213405E+02  0.28815213405E+02  0.00000000000E+00 0. -1.
          2   -1    0    0  501    0  0.00000000000E+00 -0.00000000000E+00 -0.35283540701E+03  0.35283540701E+03  0.00000000000E+00 0.  1.
         23    2    1    2    0    0 -0.50695588459E+00  0.64189030901E+01 -0.14463155957E+03  0.17044204197E+03  0.89948553784E+02 0.  0.
         23    2    1    2    0    0  0.50695588459E+00 -0.64189030901E+01 -0.17938863404E+03  0.21120857844E+03  0.11129834799E+03 0.  0.
          5    1    4    4  502    0 -0.14285232923E+02 -0.40709843658E+02 -0.16560209574E+03  0.17118085689E+03  0.41800000000E+01 0. -1.
         -5    1    4    4    0  502  0.14792188808E+02  0.34290940568E+02 -0.13786538295E+02  0.40027721555E+02  0.41800000000E+01 0.  1.
        -11    1    3    3    0    0 -0.40672859543E+01 -0.23295206841E+02 -0.93907854834E+00  0.23666249076E+02  0.00000000000E+00 0. -1.
         11    1    3    3    0    0  0.35603300697E+01  0.29714109931E+02 -0.14369248102E+03  0.14677579290E+03  0.00000000000E+00 0.  1.
</event>
<event>
 7    1  0.5900800E-006  0.1230184E+03  0.7561462E-02  0.1238199E+00
         -1   -1    0    0    0  501 -0.00000000000E+00  0.00000000000E+00  0.70218644426E+02  0.70218644426E+02  0.00000000000E+00 0.  1.
          1   -1    0    0  501    0  0.00000000000E+00 -0.00000000000E+00 -0.48943392829E+03  0.48943392829E+03  0.00000000000E+00 0. -1.
         23    2    1    2    0    0 -0.46938803441E+02 -0.25671140302E+02 -0.22149611770E+01  0.11895200792E+03  0.10621871503E+03 0.  0.
          5    1    1    2  502    0 -0.48003072814E+01 -0.43821486233E+02 -0.23439856008E+03  0.23854459326E+03  0.41800000000E+01 0. -1.
         -5    1    1    2    0  502  0.51739110722E+02  0.69492626535E+02 -0.18260176260E+03  0.20215597153E+03  0.41800000000E+01 0.  1.
        -11    1    3    3    0    0  0.18959003777E+02 -0.42900912051E+02 -0.15808294862E+02  0.49495800483E+02  0.00000000000E+00 0.  1.
         11    1    3    3    0    0 -0.65897807218E+02  0.17229771749E+02  0.13593333685E+02  0.69456207435E+02  0.00000000000E+00 0. -1.
</event>
<event>
 8    1  0.5900800E-006  0.7590505E+02  0.7561462E-02  0.1341091E+00
          1   -1    0    0  501    0  0.00000000000E+00  0.00000000000E+00  0.20291241620E+02  0.20291241620E+02  0.00000000000E+00 0. -1.
         -1   -1    0    0    0  501 -0.00000000000E+00 -0.00000000000E+00 -0.69392758190E+03  0.69392758190E+03  0.00000000000E+00 0.  1.
         23    2    1    2    0    0  0.28987122200E+02  0.31284786817E+02 -0.32623376596E+03  0.34252676629E+03  0.95273944116E+02 0.  0.
         23    2    1    2    0    0 -0.28987122200E+02 -0.31284786817E+02 -0.34740257431E+03  0.37169205723E+03  0.12508975030E+03 0.  0.
          5    1    4    4  502    0 -0.12198273137E+02 -0.94182188513E+00 -0.33404653337E+03  0.33429664035E+03  0.41800000000E+01 0.  1.
         -5    1    4    4    0  502 -0.16788849063E+02 -0.30342964932E+02 -0.13356040945E+02  0.37395416878E+02  0.41800000000E+01 0.  1.
        -11    1    3    3    0    0 -0.34472256275E+02  0.18838097302E+02 -0.10851108527E+03  0.11540305884E+03  0.00000000000E+00 0.  1.
         11    1    3    3    0    0  0.63459378475E+02  0.12446689516E+02 -0.21772268070E+03  0.22712370745E+03  0.00000000000E+00 0. -1.
</event>
<event>
 8    1  0.5900800E-006  0.1172141E+03  0.7561462E-02  0.1247765E+00
          1   -1    0    0  501    0  0.00000000000E+00  0.00000000000E+00  0.12278994415E+03  0.12278994415E+03  0.00000000000E+00 0. -1.
         -1   -1    0    0    0  501 -0.00000000000E+00 -0.00000000000E+00 -0.14228967461E+03  0.14228967461E+03  0.00000000000E+00 0.  1.
         23    2    1    2    0    0 -0.18505818904E+02  0.53420342418E+02 -0.51464864403E+02  0.12413291009E+03  0.97796466100E+02 0.  0.
         23    2    1    2    0    0  0.18505818904E+02 -0.53420342418E+02  0.31965133942E+02  0.14094670867E+03  0.12509199247E+03 0.  0.
          5    1    4    4  502    0  0.39769488591E+02  0.27014829553E+02 -0.73794170130E+01  0.48819478018E+02  0.41800000000E+01 0. -1.
         -5    1    4    4    0  502 -0.21263669687E+02 -0.80435171971E+02  0.39344550955E+02  0.92127230656E+02  0.41800000000E+01 0. -1.
        -11    1    3    3    0    0 -0.41514015645E+00  0.74833382647E+02 -0.58783308758E+02  0.95161362371E+02  0.00000000000E+00 0. -1.
         11    1    3    3    0    0 -0.18090678747E+02 -0.21413040228E+02  0.73184443553E+01  0.28971547718E+02  0.00000000000E+00 0.  1.
</event>
<event>
 8    1  0.5900800E-006  0.1635020E+03  0.7561462E-02  0.1184799E+00
         -1   -1    0    0    0  501 -0.00000000000E+00  0.00000000000E+00  0.40016606446E+03  0.40016606446E+03  0.00000000000E+00 0.  1.
          1   -1    0    0  501    0  0.00000000000E+00 -0.00000000000E+00 -0.76164963397E+02  0.76164963397E+02  0.00000000000E+00 0. -1.
         23    2    1    2    0    0 -0.10383697113E+03  0.83984169934E+02  0.19390069278E+03  0.25180979126E+03  0.89304170908E+02 0.  0.
         23    2    1    2    0    0  0.10383697113E+03 -0.83984169934E+02  0.13010040828E+03  0.22452123659E+03  0.12509281384E+03 0.  0.
          5    1    4    4  502    0 -0.20695745321E+02 -0.13223129724E+02 -0.73378856940E+01  0.25970791296E+02  0.41800000000E+01 0. -1.
         -5    1    4    4    0  502  0.12453271645E+03 -0.70761040210E+02  0.13743829397E+03  0.19855044530E+03  0.41800000000E+01 0. -1.
        -11    1    3    3    0    0 -0.77750838189E+01 -0.17445044486E+02  0.37632774490E+02  0.42201981249E+02  0.00000000000E+00 0. -1.
         11    1    3    3    0    0 -0.96061887309E+02  0.10142921442E+03  0.15626791829E+03  0.20960781001E+03  0.00000000000E+00 0.  1.
</event>
<event>
 8    1  0.5900800E-006  0.1033290E+03  0.7561462E-02  0.1273447E+00
         -2   -1    0    0    0  501 -0.00000000000E+00  0.00000000000E+00  0.38369885988E+02  0.38369885988E+02  0.00000000000E+00 0.  1.
          2   -1    0    0  501    0  0.00000000000E+00 -0.00000000000E+00 -0.69913614699E+03  0.69913614699E+03  0.00000000000E+00 0. -1.
         23    2    1    2    0    0 -0.39717350470E+02 -0.75856291330E+02 -0.15040685178E+03  0.20510758041E+03  0.11006931279E+03 0.  0.
         23    2    1    2    0    0  0.39717350470E+02  0.75856291330E+02 -0.51035940922E+03  0.53239845256E+03  0.12509892425E+03 0.  0.
          5    1    4    4  502    0  0.36130289988E+02  0.31972948586E+02 -0.48888460361E+02  0.68812943931E+02  0.41800000000E+01 0.  1.
         -5    1    4    4    0  502  0.35870604814E+01  0.43883342743E+02 -0.46147094886E+03  0.46358550863E+03  0.41800000000E+01 0.  1.
        -11    1    3    3    0    0  0.22349455039E+02 -0.13974708505E+02 -0.10123721268E+03  0.10461244596E+03  0.00000000000E+00 0. -1.
         11    1    3    3    0    0 -0.62066805509E+02 -0.61881582825E+02 -0.49169639092E+02  0.10049513445E+03  0.00000000000E+00 0.  1.
</event>
<event>
 8    1  0.5900800E-006  0.8647290E+02  0.7561462E-02  0.1311625E+00
         -2   -1    0    0    0  501 -0.00000000000E+00  0.00000000000E+00  0.33784605555E+03  0.33784605555E+03  0.00000000000E+00 0.  1.
          2   -1    0    0  501    0  0.00000000000E+00 -0.00000000000E+00 -0.46539500960E+02  0.46539500960E+02  0.00000000000E+00 0. -1.
         23    2    1    2    0    0  0.13540820441E+01 -0.61769514738E+02  0.13094674171E+03  0.17182566267E+03  0.92518661344E+02 0.  0.
         23    2    1    2    0    0 -0.13540820441E+01  0.61769514738E+02  0.16035981288E+03  0.21255989384E+03  0.12509649234E+03 0.  0.
          5    1    4    4  502    0 -0.73088436732E+00  0.20622799239E+02  0.16899785311E+03  0.17030437691E+03  0.41800000000E+01 0. -1.
         -5    1    4    4    0  502 -0.62319767679E+00  0.41146715499E+02 -0.86380402338E+01  0.42255516927E+02  0.41800000000E+01 0. -1.
        -11    1    3    3    0    0  0.45228853377E+02 -0.44279178914E+02  0.65180604109E+02  0.90855963014E+02  0.00000000000E+00 0. -1.
         11    1    3    3    0    0 -0.43874771333E+02 -0.17490335824E+02  0.65766137602E+02  0.80969699652E+02  0.00000000000E+00 0.  1.
</event>
<event>
 8    1  0.5900800E-006  0.1066485E+03  0.7561462E-02  0.1266905E+00
          2   -1    0    0  501    0  0.00000000000E+00  0.00000000000E+00  0.31237071430E+03  0.31237071430E+03  0.00000000000E+00 0. -1.
         -2   -1    0    0    0  501 -0.00000000000E+00 -0.00000000000E+00 -0.13871473002E+03  0.13871473002E+03  0.00000000000E+00 0.  1.
         23    2    1    2    0    0  0.47728734571E+02 -0.73423212091E+02 -0.83961146641E+02  0.15161675860E+03  0.90934961190E+02 0.  0.
         23    2    1    2    0    0 -0.47728734571E+02  0.73423212091E+02  0.25761713092E+03  0.29946868572E+03  0.12508360167E+03 0.  0.
          5    1    4    4  502    0 -0.34927502123E+02  0.55988415636E+02  0.33229201639E+02  0.74001927891E+02  0.41800000000E+01 0.  1.
         -5    1    4    4    0  502 -0.12801232448E+02  0.17434796454E+02  0.22438792928E+03  0.22546675783E+03  0.41800000000E+01 0.  1.
        -11    1    3    3    0    0  0.66180207472E+02 -0.20785972537E+02 -0.56393186652E+02  0.89398366966E+02  0.00000000000E+00 0.  1.
         11    1    3    3    0    0 -0.18451472901E+02 -0.52637239553E+02 -0.27567959989E+02  0.62218391638E+02  0.00000000000E+00 0. -1.
</event>
<event>
 8    1  0.5900800E-006  0.8846252E+02  0.7561462E-02  0.1306618E+00
         -2   -1    0    0    0  501 -0.00000000000E+00  0.00000000000E+00  0.12975715981E+02  0.12975715981E+02  0.00000000000E+00 0.  1.
          2   -1    0    0  501    0  0.00000000000E+00 -0.00000000000E+00 -0.11043756664E+04  0.11043756664E+04  0.00000000000E+00 0. -1.
         23    2    1    2    0    0  0.17632621913E+02 -0.18638716622E+02 -0.26823753720E+03  0.28434265279E+03  0.90780266108E+02 0.  0.
         23    2    1    2    0    0 -0.17632621913E+02  0.18638716622E+02 -0.82316241322E+03  0.83300872960E+03  0.12509545931E+03 0.  0.
          5    1    4    4  502    0  0.29699942075E+01 -0.38124420458E+02 -0.61558512620E+03  0.61678587233E+03  0.41800000000E+01 0.  1.
         -5    1    4    4    0  502 -0.20602616120E+02  0.56763137080E+02 -0.20757728702E+03  0.21622285727E+03  0.41800000000E+01 0.  1.
        -11    1    3    3    0    0 -0.25286781506E+02  0.90421507652E+01 -0.28235990623E+02  0.38967332163E+02  0.00000000000E+00 0.  1.
         11    1    3    3    0    0  0.42919403419E+02 -0.27680867387E+02 -0.24000154658E+03  0.24537532062E+03  0.00000000000E+00 0. -1.
</event>
<event>
 8    1  0.5900800E-006  0.1305158E+03  0.7561462E-02  0.1226692E+00
         -1   -1    0    0    0  501 -0.00000000000E+00  0.00000000000E+00  0.39066842426E+02  0.39066842426E+02  0.00000000000E+00 0.  1.
          1   -1    0    0  501    0  0.00000000000E+00 -0.00000000000E+00 -0.60283418666E+03  0.60283418666E+03  0.00000000000E+00 0. -1.
         23    2    1    2    0    0  0.78050644051E+02  0.57633101743E+02 -0.15461976856E+03  0.20319551146E+03  0.89261781255E+02 0.  0.
         23    2    1    2    0    0 -0.78050644051E+02 -0.57633101743E+02 -0.40914757567E+03  0.43870551763E+03  0.12508922842E+03 0.  0.
          5    1    4    4  502    0 -0.76522239775E+01 -0.77240760182E+02 -0.27631385730E+03  0.28703921631E+03  0.41800000000E+01 0.  1.
         -5    1    4    4    0  502 -0.70398420074E+02  0.19607658439E+02 -0.13283371837E+03  0.15166630132E+03  0.41800000000E+01 0.  1.
        -11    1    3    3    0    0  0.10106585801E+02 -0.10012260107E+02 -0.81199015742E+02  0.82435845276E+02  0.00000000000E+00 0. -1.
         11    1    3    3    0    0  0.67944058250E+02  0.67645361850E+02 -0.73420752819E+02  0.12075966618E+03  0.00000000000E+00 0.  1.
</event>
<event>
 8    1  0.5900800E-006  0.2000786E+03  0.7561462E-02  0.1149673E+00
         -2   -1    0    0    0  501 -0.00000000000E+00  0.00000000000E+00  0.51172048015E+02  0.51172048015E+02  0.00000000000E+00 0.  1.
          2   -1    0    0  501    0  0.00000000000E+00 -0.00000000000E+00 -0.13456279652E+04  0.13456279652E+04  0.00000000000E+00 0. -1.
         23    2    1    2    0    0 -0.19119915808E+03 -0.23949372290E+02 -0.25625244202E+03  0.33348215697E+03  0.91729736138E+02 0.  0.
         23    2    1    2    0    0  0.19119915808E+03  0.23949372290E+02 -0.10382034752E+04  0.10633178563E+04  0.12509083535E+03 0.  0.
          5    1    4    4  502    0  0.65266435527E+02 -0.64649198571E+00 -0.12444601478E+03  0.14058594721E+03  0.41800000000E+01 0.  1.
         -5    1    4    4    0  502  0.12593272255E+03  0.24595864276E+02 -0.91375746042E+03  0.92273190907E+03  0.41800000000E+01 0.  1.
        -11    1    3    3    0    0 -0.12434109428E+03  0.20595514850E+02 -0.11316965137E+03  0.16938787723E+03  0.00000000000E+00 0.  1.
         11    1    3    3    0    0 -0.66858063796E+02 -0.44544887140E+02 -0.14308279065E+03  0.16409427974E+03  0.00000000000E+00 0. -1.
</event>
<event>
 8    1  0.5900800E-006  0.1228899E+03  0.7561462E-02  0.1238404E+00
         -1   -1    0    0    0  501 -0.00000000000E+00  0.00000000000E+00  0.16107262084E+03  0.16107262084E+03  0.00000000000E+00 0.  1.
          1   -1    0    0  501    0  0.00000000000E+00 -0.00000000000E+00 -0.12500651519E+03  0.12500651519E+03  0.00000000000E+00 0. -1.
         23    2    1    2    0    0 -0.24213132080E+02 -0.26871811875E+02  0.79231501650E+02  0.14889709439E+03  0.12076565664E+03 0.  0.
         23    2    1    2    0    0  0.24213132080E+02  0.26871811875E+02 -0.43165396003E+02  0.13718204165E+03  0.12508913262E+03 0.  0.
          5    1    4    4  502    0 -0.26488272385E+01  0.74194679521E+02 -0.34307695202E+02  0.81892350711E+02  0.41800000000E+01 0. -1.
         -5    1    4    4    0  502  0.26861959318E+02 -0.47322867646E+02 -0.88577008007E+01  0.55289690939E+02  0.41800000000E+01 0. -1.
        -11    1    3    3    0    0  0.10061862725E+02 -0.64885204456E+02  0.71597575500E+02  0.97147020831E+02  0.00000000000E+00 0. -1.
         11    1    3    3    0    0 -0.34274994805E+02  0.38013392582E+02  0.76339261503E+01  0.51750073555E+02  0.00000000000E+00 0.  1.
</event>
<event>
 8    1  0.5900800E-006  0.1076793E+03  0.7561462E-02  0.1264929E+00
          1   -1    0    0  501    0  0.00000000000E+00  0.00000000000E+00  0.64792462719E+02  0.64792462719E+02  0.00000000000E+00 0. -1.
         -1   -1    0    0    0  501 -0.00000000000E+00 -0.00000000000E+00 -0.28571916316E+03  0.28571916316E+03  0.00000000000E+00 0.  1.
         23    2    1    2    0    0  0.34723329979E+02 -0.65032995815E+02 -0.14354062859E+03  0.18596235103E+03  0.92428803704E+02 0.  0.
         23    2    1    2    0    0 -0.34723329979E+02  0.65032995815E+02 -0.77386071850E+02  0.16454927485E+03  0.12511138856E+03 0.  0.
          5    1    4    4  502    0 -0.27347860632E+02  0.90047099461E+02 -0.13174437519E+02  0.95117946815E+02  0.41800000000E+01 0. -1.
         -5    1    4    4    0  502 -0.73754693472E+01 -0.25014103646E+02 -0.64211634332E+02  0.69431328036E+02  0.41800000000E+01 0. -1.
        -11    1    3    3    0    0 -0.14010807803E+02 -0.68697134079E+00  0.65974106056E+01  0.15501628676E+02  0.00000000000E+00 0. -1.
         11    1    3    3    0    0  0.48734137782E+02 -0.64346024474E+02 -0.15013803920E+03  0.17046072236E+03  0.00000000000E+00 0.  1.
</event>
<event>
 8    1  0.5900800E-006  0.1410315E+03  0.7561462E-02  0.1211948E+00
          2   -1    0    0  501    0  0.00000000000E+00  0.00000000000E+00  0.70490402418E+03  0.70490402418E+03  0.00000000000E+00 0.  1.
         -2   -1    0    0    0  501 -0.00000000000E+00 -0.00000000000E+00 -0.44247251975E+02  0.44247251975E+02  0.00000000000E+00 0. -1.
         23    2    1    2    0    0 -0.11927000574E+03  0.33319153974E+02  0.18525168862E+03  0.24220784855E+03  0.94926042117E+02 0.  0.
         23    2    1    2    0    0  0.11927000574E+03 -0.33319153974E+02  0.47540508359E+03  0.50694342761E+03  0.12508455141E+03 0.  0.
          5    1    4    4  502    0 -0.12348152451E+02  0.12898277766E+02  0.17206052579E+03  0.17303508134E+03  0.41800000000E+01 0. -1.
         -5    1    4    4    0  502  0.13161815819E+03 -0.46217431740E+02  0.30334455780E+03  0.33390834627E+03  0.41800000000E+01 0. -1.
        -11    1    3    3    0    0 -0.74861305962E+02  0.16362620906E+02  0.34312180718E+02  0.83959968073E+02  0.00000000000E+00 0. -1.
         11    1    3    3    0    0 -0.44408699780E+02  0.16956533068E+02  0.15093950791E+03  0.15824788048E+03  0.00000000000E+00 0.  1.
</event>
<event>
 8    1  0.6644658E-006  0.1274385E+03  0.7561462E-02  0.1231307E+00
          2   -1    0    0  501    0  0.00000000000E+00  0.00000000000E+00  0.78484839798E+03  0.78484839798E+03  0.00000000000E+00 0.  1.
         -2   -1    0    0    0  501 -0.00000000000E+00 -0.00000000000E+00 -0.27361487573E+02  0.27361487573E+02  0.00000000000E+00 0. -1.
         23    2    1    2    0    0 -0.95256954280E+02 -0.21512952506E+02  0.30380702595E+03  0.33157530741E+03  0.90037664391E+02 0.  0.
         23    2    1    2    0    0  0.95256954280E+02  0.21512952506E+02  0.45367988446E+03  0.48063457814E+03  0.12508983041E+03 0.  0.
          5    1    4    4  502    0  0.58031988678E+02 -0.30126758085E+02  0.36814111628E+03  0.37392604504E+03  0.41800000000E+01 0.  1.
         -5    1    4    4    0  502  0.37224965602E+02  0.51639710591E+02  0.85538768177E+02  0.10670853309E+03  0.41800000000E+01 0.  1.
        -11    1    3    3    0    0 -0.58674997730E+02 -0.51646584449E+02  0.13255779967E+03  0.15388858079E+03  0.00000000000E+00 0. -1.
         11    1    3    3    0    0 -0.36581956549E+02  0.30133631943E+02  0.17124922627E+03  0.17768672662E+03  0.00000000000E+00 0.  1.
</event>
<event>
 8    1  0.5900800E-006  0.1011586E+03  0.7561462E-02  0.1277878E+00
         -1   -1    0    0    0  501 -0.00000000000E+00  0.00000000000E+00  0.35878533518E+02  0.35878533518E+02  0.00000000000E+00 0.  1.
          1   -1    0    0  501    0  0.00000000000E+00 -0.00000000000E+00 -0.69580989324E+03  0.69580989324E+03  0.00000000000E+00 0. -1.
         23    2    1    2    0    0 -0.97004597196E+01 -0.72656829258E+02 -0.99946516503E+02  0.15323282288E+03  0.90099267974E+02 0.  0.
         23    2    1    2    0    0  0.97004597196E+01  0.72656829258E+02 -0.55998484322E+03  0.57845560388E+03  0.12511893250E+03 0.  0.
          5    1    4    4  502    0 -0.26493347859E+02  0.28184049853E+02 -0.47042227687E+03  0.47202841982E+03  0.41800000000E+01 0.  1.
         -5    1    4    4    0  502  0.36193807578E+02  0.44472779405E+02 -0.89562566352E+02  0.10642718406E+03  0.41800000000E+01 0.  1.
        -11    1    3    3    0    0  0.28824871790E+02 -0.57873727808E+02 -0.89948777149E+02  0.11077465466E+03  0.00000000000E+00 0. -1.
         11    1    3    3    0    0 -0.38525331509E+02 -0.14783101450E+02 -0.99977393537E+01  0.42458168219E+02  0.00000000000E+00 0.  1.
</event>
<event>
 8    1  0.5900800E-006  0.1252927E+03  0.7561462E-02  0.1234612E+00
         -1   -1    0    0    0  501 -0.00000000000E+00  0.00000000000E+00  0.21297620223E+03  0.21297620223E+03  0.00000000000E+00 0.  1.
          1   -1    0    0  501    0  0.00000000000E+00 -0.00000000000E+00 -0.94738374187E+02  0.94738374187E+02  0.00000000000E+00 0. -1.
         23    2    1    2    0    0 -0.62556123411E+02 -0.27601100847E+02  0.11846338054E+03  0.16515940493E+03  0.92568715905E+02 0.  0.
         23    2    1    2    0    0  0.62556123411E+02  0.27601100847E+02 -0.22555249825E+00  0.14255517149E+03  0.12508731630E+03 0.  0.
          5    1    4    4  502    0 -0.20426545144E+02  0.49701684719E+02 -0.13491744787E+02  0.55560784622E+02  0.41800000000E+01 0.  1.
         -5    1    4    4    0  502  0.82982668554E+02 -0.22100583872E+02  0.13266192289E+02  0.86994386863E+02  0.41800000000E+01 0.  1.
        -11    1    3    3    0    0 -0.38239281878E+02 -0.59421755294E+02  0.96123109297E+02  0.11930146613E+03  0.00000000000E+00 0.  1.
         11    1    3    3    0    0 -0.24316841533E+02  0.31820654448E+02  0.22340271246E+02  0.45857938799E+02  0.00000000000E+00 0. -1.
</event>
<event>
 8    1  0.5900800E-006  0.1220245E+03  0.7561462E-02  0.1239794E+00
          1   -1    0    0  501    0  0.00000000000E+00  0.00000000000E+00  0.11612720329E+04  0.11612720329E+04  0.00000000000E+00 0.  1.
         -1   -1    0    0    0  501 -0.00000000000E+00 -0.00000000000E+00 -0.16277431206E+02  0.16277431206E+02  0.00000000000E+00 0. -1.
         23    2    1    2    0    0 -0.58035054490E+02 -0.68860343644E+01  0.26621379146E+03  0.28798824993E+03  0.93015935809E+02 0.  0.
         23    2    1    2    0    0  0.58035054490E+02  0.68860343644E+01  0.87878081027E+03  0.88956121421E+03  0.12509179156E+03 0.  0.
          5    1    4    4  502    0 -0.39154081293E+02  0.66291183402E+01  0.21292469178E+03  0.21663652522E+03  0.41800000000E+01 0. -1.
         -5    1    4    4    0  502  0.97189135783E+02  0.25691602421E+00  0.66585611849E+03  0.67292468899E+03  0.41800000000E+01 0. -1.
        -11    1    3    3    0    0  0.10719883893E+01 -0.39376182003E+02  0.67659945566E+02  0.78291130419E+02  0.00000000000E+00 0. -1.
         11    1    3    3    0    0 -0.59107042879E+02  0.32490147638E+02  0.19855384589E+03  0.20969711951E+03  0.00000000000E+00 0.  1.
</event>
<event>
 8    1  0.5900800E-006  0.1243377E+03  0.7561462E-02  0.1236108E+00
         -1   -1    0    0    0  501 -0.00000000000E+00  0.00000000000E+00  0.38310979855E+02  0.38310979855E+02  0.00000000000E+00 0.  1.
          1   -1    0    0  501    0  0.00000000000E+00 -0.00000000000E+00 -0.43165614339E+03  0.43165614339E+03  0.00000000000E+00 0. -1.
         23    2    1    2    0    0 -0.56947824412E+02  0.28666071479E+02 -0.15755021147E+03  0.19553851966E+03  0.96687357897E+02 0.  0.
         23    2    1    2    0    0  0.56947824412E+02 -0.28666071479E+02 -0.23579495206E+03  0.27442860359E+03  0.12508797180E+03 0.  0.
          5    1    4    4  502    0  0.94909041935E+02 -0.12272670972E+02 -0.13621936058E+03  0.16652786941E+03  0.41800000000E+01 0. -1.
         -5    1    4    4    0  502 -0.37961217523E+02 -0.16393400507E+02 -0.99575591486E+02  0.10790073418E+03  0.41800000000E+01 0. -1.
        -11    1    3    3    0    0 -0.74741484360E+02  0.44939514030E+02 -0.97419861768E+02  0.13075350425E+03  0.00000000000E+00 0.  1.
         11    1    3    3    0    0  0.17793659948E+02 -0.16273442552E+02 -0.60130349706E+02  0.64785015417E+02  0.00000000000E+00 0. -1.
</event>
<event>
 8    1  0.5900800E-006  0.1787286E+03  0.7561462E-02  0.1169039E+00
         -1   -1    0    0    0  501 -0.00000000000E+00  0.00000000000E+00  0.16168548971E+02  0.16168548971E+02  0.00000000000E+00 0.  1.
          1   -1    0    0  501    0  0.00000000000E+00 -0.00000000000E+00 -0.30891478916E+04  0.30891478916E+04  0.00000000000E+00 0. -1.
         23    2    1    2    0    0  0.12481915805E+03  0.99385668006E+02 -0.69680820730E+03  0.72051178823E+03  0.90212116731E+02 0.  0.
         23    2    1    2    0    0 -0.12481915805E+03 -0.99385668006E+02 -0.23761711354E+04  0.23848046524E+04  0.12508649888E+03 0.  0.
          5    1    4    4  502    0 -0.76234126628E+02 -0.12647429694E+02 -0.16541075267E+04  0.16559169006E+04  0.41800000000E+01 0. -1.
         -5    1    4    4    0  502 -0.48585031422E+02 -0.86738238312E+02 -0.72206360869E+03  0.72888775176E+03  0.41800000000E+01 0. -1.
        -11    1    3    3    0    0  0.10746429424E+03  0.33703354378E+02 -0.37201913178E+03  0.38869361333E+03  0.00000000000E+00 0.  1.
         11    1    3    3    0    0  0.17354863812E+02  0.65682313628E+02 -0.32478907552E+03  0.33181817491E+03  0.00000000000E+00 0. -1.
</event>
<event>
 6    1  0.5900800E-006  0.1104739E+03  0.7561462E-02  0.1259695E+00
          2   -1    0    0  501    0  0.00000000000E+00  0.00000000000E+00  0.11442188146E+03  0.11442188146E+03  0.00000000000E+00 0. -1.
         -2   -1    0    0    0  501 -0.00000000000E+00 -0.00000000000E+00 -0.11978886980E+03  0.11978886980E+03  0.00000000000E+00 0.  1.
          5    1    1    2  502    0 -0.18830047533E+02  0.89422375901E+02 -0.92447179060E+01  0.91944924880E+02  0.41800000000E+01 0. -1.
         -5    1    1    2    0  502  0.12374350171E+02 -0.10731331731E+03  0.26299956954E+02  0.11125840531E+03  0.41800000000E+01 0.  1.
        -11    1    1    2    0    0  0.78742015752E+01  0.74942243435E+01 -0.10309166552E+02  0.14981500725E+02  0.00000000000E+00 0. -1.
         11    1    1    2    0    0 -0.14185042133E+01  0.10396717070E+02 -0.12113060841E+02  0.16025920347E+02  0.00000000000E+00 0.  1.
</event>
<event>
 8    1  0.5900800E-006  0.1240915E+03  0.7561462E-02  0.1236496E+00
         -1   -1    0    0    0  501 -0.00000000000E+00  0.00000000000E+00  0.84540861931E+02  0.84540861931E+02  0.00000000000E+00 0.  1.
          1   -1    0    0  501    0  0.00000000000E+00 -0.00000000000E+00 -0.47306855067E+03  0.47306855067E+03  0.00000000000E+00 0. -1.
         23    2    1    2    0    0 -0.90302424782E+02  0.67916328405E+02 -0.13166114839E+02  0.14613332450E+03  0.91730291427E+02 0.  0.
         23    2    1    2    0    0  0.90302424782E+02 -0.67916328405E+02 -0.37536157390E+03  0.41147608810E+03  0.12509638016E+03 0.  0.
          5    1    4    4  502    0  0.82465838373E+02 -0.18481160736E+02 -0.97434308948E+02  0.12904683166E+03  0.41800000000E+01 0.  1.
         -5    1    4    4    0  502  0.78365864093E+01 -0.49435167669E+02 -0.27792726496E+03  0.28242925644E+03  0.41800000000E+01 0.  1.
        -11    1    3    3    0    0 -0.25584001328E+02  0.14369785472E+02  0.37822735775E+02  0.47870567157E+02  0.00000000000E+00 0.  1.
         11    1    3    3    0    0 -0.64718423454E+02  0.53546542933E+02 -0.50988850615E+02  0.98262757347E+02  0.00000000000E+00 0. -1.
</event>
<event>
 8    1  0.5900800E-006  0.8823157E+02  0.7561462E-02  0.1307192E+00
         -2   -1    0    0    0  501 -0.00000000000E+00  0.00000000000E+00  0.40108759995E+02  0.40108759995E+02  0.00000000000E+00 0.  1.
          2   -1    0    0  501    0  0.00000000000E+00 -0.00000000000E+00 -0.39018656863E+03  0.39018656863E+03  0.00000000000E+00 0. -1.
         23    2    1    2    0    0 -0.50454858800E+02 -0.12364061618E+02 -0.11131520987E+03  0.15578955960E+03  0.95816220626E+02 0.  0.
         23    2    1    2    0    0  0.50454858800E+02  0.12364061618E+02 -0.23876259876E+03  0.27450576903E+03  0.12508907172E+03 0.  0.
          5    1    4    4  502    0  0.71996056055E+02 -0.33893291749E+01 -0.60461097746E+02  0.94169721144E+02  0.41800000000E+01 0. -1.
         -5    1    4    4    0  502 -0.21541197256E+02  0.15753390793E+02 -0.17830150102E+03  0.18033604788E+03  0.41800000000E+01 0. -1.
        -11    1    3    3    0    0  0.63476113567E+01  0.13441142436E+02 -0.87904679317E+02  0.89152617044E+02  0.00000000000E+00 0. -1.
         11    1    3    3    0    0 -0.56802470156E+02 -0.25805204054E+02 -0.23410530553E+02  0.66636942554E+02  0.00000000000E+00 0.  1.
</event>
<event>
 8    1  0.5900800E-006  0.2132851E+03  0.7561462E-02  0.1138991E+00
         -1   -1    0    0    0  501 -0.00000000000E+00  0.00000000000E+00  0.51142343630E+02  0.51142343630E+02  0.00000000000E+00 0. -1.
          1   -1    0    0  501    0  0.00000000000E+00 -0.00000000000E+00 -0.10015697528E+04  0.10015697528E+04  0.00000000000E+00 0.  1.
         23    2    1    2    0    0  0.10646438872E+03  0.15020042975E+03 -0.29132895357E+03  0.35704400639E+03  0.93343602589E+02 0.  0.
         23    2    1    2    0    0 -0.10646438872E+03 -0.15020042975E+03 -0.65909845556E+03  0.69566809001E+03  0.12509389341E+03 0.  0.
          5    1    4    4  502    0 -0.12821891129E+03 -0.15362113978E+03 -0.58946917803E+03  0.62251982141E+03  0.41800000000E+01 0. -1.
         -5    1    4    4    0  502  0.21754522573E+02  0.34207100279E+01 -0.69629277532E+02  0.73148268600E+02  0.41800000000E+01 0. -1.
        -11    1    3    3    0    0  0.11246840476E+03  0.91449210349E+02 -0.23027786241E+03  0.27210291079E+03  0.00000000000E+00 0. -1.
         11    1    3    3    0    0 -0.60040160376E+01  0.58751219399E+02 -0.61051091161E+02  0.84941095598E+02  0.00000000000E+00 0.  1.
</event>
<event>
 8    1  0.5900800E-006  0.8032080E+02  0.7561462E-02  0.1328144E+00
          1   -1    0    0  501    0  0.00000000000E+00  0.00000000000E+00  0.19219858754E+03  0.19219858754E+03  0.00000000000E+00 0. -1.
         -1   -1    0    0    0  501 -0.00000000000E+00 -0.00000000000E+00 -0.66568709466E+02  0.66568709466E+02  0.00000000000E+00 0.  1.
         23    2    1    2    0    0  0.23496218677E+02 -0.21647479003E+02  0.46547778641E+02  0.10735982295E+03  0.91316757766E+02 0.  0.
         23    2    1    2    0    0 -0.23496218677E+02  0.21647479003E+02  0.79082099431E+02  0.15140747405E+03  0.12509819786E+03 0.  0.
          5    1    4    4  502    0 -0.44795869712E+02  0.24018390436E+02 -0.16312751680E+02  0.53545600097E+02  0.41800000000E+01 0.  1.
         -5    1    4    4    0  502  0.21299651035E+02 -0.23709114328E+01  0.95394851111E+02  0.97861873954E+02  0.41800000000E+01 0.  1.
        -11    1    3    3    0    0 -0.30717227206E+02 -0.52116092369E+01  0.39446070896E+02  0.50266305088E+02  0.00000000000E+00 0. -1.
         11    1    3    3    0    0  0.54213445882E+02 -0.16435869767E+02  0.71017077450E+01  0.57093517866E+02  0.00000000000E+00 0.  1.
</event>
<event>
 8    1  0.5900800E-006  0.1053707E+03  0.7561462E-02  0.1269391E+00
          2   -1    0    0  501    0  0.00000000000E+00  0.00000000000E+00  0.32229293234E+02  0.32229293234E+02  0.00000000000E+00 0. -1.
         -2   -1    0    0    0  501 -0.00000000000E+00 -0.00000000000E+00 -0.49242924531E+03  0.49242924531E+03  0.00000000000E+00 0.  1.
         23    2    1    2    0    0 -0.22060587440E+02 -0.57892609795E+02 -0.18971977677E+03  0.22028670316E+03  0.93243842177E+02 0.  0.
         23    2    1    2    0    0  0.22060587440E+02  0.57892609795E+02 -0.27048017531E+03  0.30437183538E+03  0.12507783638E+03 0.  0.
          5    1    4    4  502    0  0.58846714219E+02 -0.23146542388E+01 -0.68770652762E+02  0.90637566604E+02  0.41800000000E+01 0.  1.
         -5    1    4    4    0  502 -0.36786126779E+02  0.60207264034E+02 -0.20170952254E+03  0.21373426878E+03  0.41800000000E+01 0.  1.
        -11    1    3    3    0    0  0.17286433918E+02 -0.19245188934E+02 -0.15026267994E+03  0.15247318151E+03  0.00000000000E+00 0.  1.
         11    1    3    3    0    0 -0.39347021358E+02 -0.38647420861E+02 -0.39457096825E+02  0.67813521652E+02  0.00000000000E+00 0. -1.
</event>
<event>
 8    1  0.7286062E-006  0.1204912E+03  0.7561462E-02  0.1242289E+00
         -2   -1    0    0    0  501 -0.00000000000E+00  0.00000000000E+00  0.28076137398E+02  0.28076137398E+02  0.00000000000E+00 0.  1.
          2   -1    0    0  501    0  0.00000000000E+00 -0.00000000000E+00 -0.61686925553E+03  0.61686925553E+03  0.00000000000E+00 0. -1.
         23    2    1    2    0    0 -0.60422324888E+02 -0.39335745998E+02 -0.16781502056E+03  0.19989716318E+03  0.81233222653E+02 0.  0.
         23    2    1    2    0    0  0.60422324888E+02  0.39335745998E+02 -0.42097809757E+03  0.44504822975E+03  0.12508880810E+03 0.  0.
          5    1    4    4  502    0  0.54071488432E+02 -0.38038890459E+02 -0.17749441075E+03  0.18945295273E+03  0.41800000000E+01 0. -1.
         -5    1    4    4    0  502  0.63508364561E+01  0.77374636457E+02 -0.24348368682E+03  0.25559527702E+03  0.41800000000E+01 0. -1.
        -11    1    3    3    0    0 -0.23241002089E+02 -0.52607820770E+02 -0.51989615339E+02  0.77528363115E+02  0.00000000000E+00 0.  1.
         11    1    3    3    0    0 -0.37181322799E+02  0.13272074772E+02 -0.11582540522E+03  0.12236880006E+03  0.00000000000E+00 0. -1.
</event>
<event>
 8    1  0.5900800E-006  0.1427194E+03  0.7561462E-02  0.1209716E+00
          4   -1    0    0  501    0  0.00000000000E+00  0.00000000000E+00  0.23389228017E+03  0.23389228017E+03  0.00000000000E+00 0. -1.
         -4   -1    0    0    0  501 -0.00000000000E+00 -0.00000000000E+00 -0.11902669206E+03  0.11902669206E+03  0.00000000000E+00 0.  1.
         23    2    1    2    0    0 -0.49777254557E+02  0.10745757717E+03  0.50165705236E+01  0.14871551829E+03  0.89812212076E+02 0.  0.
         23    2    1    2    0    0  0.49777254557E+02 -0.10745757717E+03  0.10984901758E+03  0.20420345394E+03  0.12492933193E+03 0.  0.
          5    1    4    4  502    0  0.48162209028E+02 -0.22941142624E+02  0.10686749135E+03  0.11951580444E+03  0.41800000000E+01 0.  1.
         -5    1    4    4    0  502  0.16150455289E+01 -0.84516434541E+02  0.29815262334E+01  0.84687649503E+02  0.41800000000E+01 0.  1.
        -11    1    3    3    0    0 -0.30982037981E+02  0.12049791374E+03 -0.30623556314E+01  0.12445485894E+03  0.00000000000E+00 0. -1.
         11    1    3    3    0    0 -0.18795216576E+02 -0.13040336571E+02  0.80789261550E+01  0.24260659345E+02  0.00000000000E+00 0.  1.
</event>
<event>
 8    1  0.5900800E-006  0.9751187E+02  0.7561462E-02  0.1285617E+00
          2   -1    0    0  501    0  0.00000000000E+00  0.00000000000E+00  0.23046983375E+04  0.23046983375E+04  0.00000000000E+00 0. -1.
         -2   -1    0    0    0  501 -0.00000000000E+00 -0.00000000000E+00 -0.12361229007E+02  0.12361229007E+02  0.00000000000E+00 0.  1.
         23    2    1    2    0    0  0.34360769579E+01 -0.72515831957E+01  0.18822046675E+03  0.20921140407E+03  0.90983929364E+02 0.  0.
         23    2    1    2    0    0 -0.34360769579E+01  0.72515831957E+01  0.21041166417E+04  0.21078481625E+04  0.12511051826E+03 0.  0.
          5    1    4    4  502    0  0.31046392945E+02  0.43552439249E+02  0.16654226126E+04  0.16662864833E+04  0.41800000000E+01 0. -1.
         -5    1    4    4    0  502 -0.34482469902E+02 -0.36300856053E+02  0.43869402914E+03  0.44156167914E+03  0.41800000000E+01 0. -1.
        -11    1    3    3    0    0 -0.24256501280E+02 -0.40901576243E+02  0.10517574516E+03  0.11542640150E+03  0.00000000000E+00 0. -1.
         11    1    3    3    0    0  0.27692578238E+02  0.33649993047E+02  0.83044721594E+02  0.93785002565E+02  0.00000000000E+00 0.  1.
</event>
<event>
 8    1  0.5900800E-006  0.1128546E+03  0.7561462E-02  0.1255373E+00
         -1   -1    0    0    0  501 -0.00000000000E+00  0.00000000000E+00  0.13156179656E+03  0.13156179656E+03  0.00000000000E+00 0.  1.
          1   -1    0    0  501    0  0.00000000000E+00 -0.00000000000E+00 -0.10763374521E+03  0.10763374521E+03  0.00000000000E+00 0. -1.
         23    2    1    2    0    0 -0.13708433612E+02  0.54643463534E+02  0.37772706614E+02  0.11324911380E+03  0.90690435835E+02 0.  0.
         23    2    1    2    0    0  0.13708433612E+02 -0.54643463534E+02 -0.13844655258E+02  0.12594642797E+03  0.11178997710E+03 0.  0.
          5    1    4    4  502    0  0.23677620524E+02 -0.85830059491E+02 -0.22284221291E+02  0.91877569321E+02  0.41800000000E+01 0. -1.
         -5    1    4    4    0  502 -0.99691869117E+01  0.31186595957E+02  0.84395660334E+01  0.34068858652E+02  0.41800000000E+01 0.  1.
        -11    1    3    3    0    0 -0.50228550597E+02  0.40045969936E+02  0.36532735622E+02  0.73900120265E+02  0.00000000000E+00 0.  1.
         11    1    3    3    0    0  0.36520116985E+02  0.14597493598E+02  0.12399709920E+01  0.39348993532E+02  0.00000000000E+00 0. -1.
</event>
<event>
 8    1  0.5900800E-006  0.1125313E+03  0.7561462E-02  0.1255953E+00
         -3   -1    0    0    0  501 -0.00000000000E+00  0.00000000000E+00  0.28549898392E+03  0.28549898392E+03  0.00000000000E+00 0.  1.
          3   -1    0    0  501    0  0.00000000000E+00 -0.00000000000E+00 -0.66079649178E+02  0.66079649178E+02  0.00000000000E+00 0. -1.
         23    2    1    2    0    0  0.43735696899E+02 -0.71447176092E+02  0.10316985324E+03  0.16137229568E+03  0.91539549054E+02 0.  0.
         23    2    1    2    0    0 -0.43735696899E+02  0.71447176092E+02  0.11624948151E+03  0.19020633742E+03  0.12508796381E+03 0.  0.
          5    1    4    4  502    0 -0.78524480073E+02  0.49155054761E+02  0.11621150705E+03  0.14867716755E+03  0.41800000000E+01 0.  1.
         -5    1    4    4    0  502  0.34788783175E+02  0.22292121331E+02  0.37974456286E-01  0.41529169872E+02  0.41800000000E+01 0.  1.
        -11    1    3    3    0    0  0.22178637002E+02 -0.64410511055E+02  0.11658241884E+03  0.13502616878E+03  0.00000000000E+00 0.  1.
         11    1    3    3    0    0  0.21557059896E+02 -0.70366650370E+01 -0.13412565605E+02  0.26346126894E+02  0.00000000000E+00 0. -1.
</event>
<event>
 8    1  0.5900800E-006  0.1157397E+03  0.7561462E-02  0.1250295E+00
          1   -1    0    0  501    0  0.00000000000E+00  0.00000000000E+00  0.60785684724E+03  0.60785684724E+03  0.00000000000E+00 0. -1.
         -1   -1    0    0    0  501 -0.00000000000E+00 -0.00000000000E+00 -0.39091306014E+02  0.39091306014E+02  0.00000000000E+00 0.  1.
         23    2    1    2    0    0 -0.55916830652E+02 -0.15040122302E+02  0.69605437157E+02  0.12910491969E+03  0.92034049007E+02 0.  0.
         23    2    1    2    0    0  0.55916830652E+02  0.15040122302E+02  0.49916010407E+03  0.51784323357E+03  0.12509159775E+03 0.  0.
          5    1    4    4  502    0 -0.25366335170E+02  0.40423262650E+02  0.11985053491E+03  0.12907019114E+03  0.41800000000E+01 0.  1.
         -5    1    4    4    0  502  0.81283165822E+02 -0.25383140348E+02  0.37930956916E+03  0.38877304242E+03  0.41800000000E+01 0.  1.
        -11    1    3    3    0    0 -0.25445052047E+02 -0.47443638403E+02  0.10040667432E+02  0.54764628193E+02  0.00000000000E+00 0.  1.
         11    1    3    3    0    0 -0.30471778606E+02  0.32403516102E+02  0.59564769725E+02  0.74340291495E+02  0.00000000000E+00 0. -1.
</event>
<event>
 8    1  0.5900800E-006  0.1244020E+03  0.7561462E-02  0.1236007E+00
         -1   -1    0    0    0  501 -0.00000000000E+00  0.00000000000E+00  0.23576498807E+02  0.23576498807E+02  0.00000000000E+00 0.  1.
          1   -1    0    0  501    0  0.00000000000E+00 -0.00000000000E+00 -0.83724765878E+03  0.83724765878E+03  0.00000000000E+00 0. -1.
         23    2    1    2    0    0 -0.10561410496E+02  0.63030100131E+02 -0.18514862962E+03  0.21679635498E+03  0.92931736051E+02 0.  0.
         23    2    1    2    0    0  0.10561410496E+02 -0.63030100131E+02 -0.62852253034E+03  0.64402780261E+03  0.12508757918E+03 0.  0.
          5    1    4    4  502    0  0.34439749943E+02  0.28262011269E+02 -0.24438027864E+03  0.24844321412E+03  0.41800000000E+01 0.  1.
         -5    1    4    4    0  502 -0.23878339447E+02 -0.91292111399E+02 -0.38414225171E+03  0.39558458848E+03  0.41800000000E+01 0.  1.
        -11    1    3    3    0    0  0.21867041865E+02  0.72574352306E+02 -0.14980815917E+03  0.16789189584E+03  0.00000000000E+00 0. -1.
         11    1    3    3    0    0 -0.32428452362E+02 -0.95442521759E+01 -0.35340470452E+02  0.48904459142E+02  0.00000000000E+00 0.  1.
</event>
<event>
 8    1  0.5900800E-006  0.1294958E+03  0.7561462E-02  0.1228206E+00
          1   -1    0    0  501    0  0.00000000000E+00  0.00000000000E+00  0.19721265722E+03  0.19721265722E+03  0.00000000000E+00 0. -1.
         -1   -1    0    0    0  501 -0.00000000000E+00 -0.00000000000E+00 -0.11479677407E+03  0.11479677407E+03  0.00000000000E+00 0.  1.
         23    2    1    2    0    0 -0.41592627518E+01 -0.10254031094E+03  0.54318524943E+02  0.14778994636E+03  0.91430581646E+02 0.  0.
         23    2    1    2    0    0  0.41592627518E+01  0.10254031094E+03  0.28097358216E+02  0.16421948493E+03  0.12508702114E+03 0.  0.
          5    1    4    4  502    0 -0.42876092170E+02  0.51708078456E+02  0.57831227423E+02  0.88735606848E+02  0.41800000000E+01 0. -1.
         -5    1    4    4    0  502  0.47035354922E+02  0.50832232483E+02 -0.29733869207E+02  0.75483878079E+02  0.41800000000E+01 0. -1.
        -11    1    3    3    0    0  0.12228572471E+02 -0.10502421922E+03  0.17179800826E+02  0.10712035364E+03  0.00000000000E+00 0.  1.
         11    1    3    3    0    0 -0.16387835223E+02  0.24839082772E+01  0.37138724117E+02  0.40669592728E+02  0.00000000000E+00 0. -1.
</event>
<event>
 8    1  0.5900800E-006  0.9794016E+02  0.7561462E-02  0.1284688E+00
         -1   -1    0    0    0  501 -0.00000000000E+00  0.00000000000E+00  0.16848962626E+02  0.16848962626E+02  0.00000000000E+00 0.  1.
          1   -1    0    0  501    0  0.00000000000E+00 -0.00000000000E+00 -0.83154807641E+03  0.83154807641E+03  0.00000000000E+00 0. -1.
         23    2    1    2    0    0 -0.95412200362E+01 -0.16018406639E+02 -0.18656789624E+03  0.20927546223E+03  0.92957059724E+02 0.  0.
         23    2    1    2    0    0  0.95412200362E+01  0.16018406639E+02 -0.62813121754E+03  0.63912157681E+03  0.11653299642E+03 0.  0.
          5    1    4    4  502    0  0.55129877672E+02  0.88576906561E+01 -0.49500452115E+03  0.49816132975E+03  0.41800000000E+01 0. -1.
         -5    1    4    4    0  502 -0.45588657636E+02  0.71607159827E+01 -0.13312669639E+03  0.14096024706E+03  0.41800000000E+01 0.  1.
        -11    1    3    3    0    0 -0.50847018134E+02 -0.79653779040E+01 -0.85489686322E+02  0.99786536996E+02  0.00000000000E+00 0.  1.
         11    1    3    3    0    0  0.41305798098E+02 -0.80530287348E+01 -0.10107820992E+03  0.10948892523E+03  0.00000000000E+00 0. -1.
</event>
<event>
 7    1  0.5900800E-006  0.1644319E+03  0.7561462E-02  0.1183782E+00
         -1   -1    0    0    0  501 -0.00000000000E+00  0.00000000000E+00  0.28913287753E+02  0.28913287753E+02  0.00000000000E+00 0.  1.
          1   -1    0    0  501    0  0.00000000000E+00 -0.00000000000E+00 -0.14836413704E+04  0.14836413704E+04  0.00000000000E+00 0. -1.
         23    2    1    2    0    0 -0.86494063439E+02  0.54675744173E+01 -0.30752436670E+03  0.33214365083E+03  0.90758202338E+02 0.  0.
          5    1    1    2  502    0 -0.45389841763E+02  0.46976741339E+02 -0.83353460289E+03  0.83610074667E+03  0.41800000000E+01 0. -1.
         -5    1    1    2    0  502  0.13188390520E+03 -0.52444315756E+02 -0.31366911304E+03  0.34431026064E+03  0.41800000000E+01 0.  1.
        -11    1    3    3    0    0  0.17057727999E+02  0.53104472845E+01 -0.21514347300E+02  0.27964872154E+02  0.00000000000E+00 0.  1.
         11    1    3    3    0    0 -0.10355179144E+03  0.15712713282E+00 -0.28601001940E+03  0.30417877867E+03  0.00000000000E+00 0. -1.
</event>
<event>
 8    1  0.5900800E-006  0.1048055E+03  0.7561462E-02  0.1270503E+00
         -2   -1    0    0    0  501 -0.00000000000E+00  0.00000000000E+00  0.28072535898E+02  0.28072535898E+02  0.00000000000E+00 0.  1.
          2   -1    0    0  501    0  0.00000000000E+00 -0.00000000000E+00 -0.42980862264E+03  0.42980862264E+03  0.00000000000E+00 0. -1.
         23    2    1    2    0    0  0.83487227732E+01  0.10633059146E+02 -0.14290313450E+03  0.17008828081E+03  0.91246667333E+02 0.  0.
         23    2    1    2    0    0 -0.83487227732E+01 -0.10633059146E+02 -0.25883295224E+03  0.28779287773E+03  0.12508988843E+03 0.  0.
          5    1    4    4  502    0 -0.66335704659E+02 -0.73363693262E+01 -0.12295396000E+03  0.13996212598E+03  0.41800000000E+01 0.  1.
         -5    1    4    4    0  502  0.57986981886E+02 -0.32966898195E+01 -0.13587899224E+03  0.14783075175E+03  0.41800000000E+01 0.  1.
        -11    1    3    3    0    0 -0.32899543038E+02  0.24469966461E+02 -0.35599655687E+02  0.54300043055E+02  0.00000000000E+00 0.  1.
         11    1    3    3    0    0  0.41248265812E+02 -0.13836907315E+02 -0.10730347881E+03  0.11578823775E+03  0.00000000000E+00 0. -1.
</event>
<event>
 8    1  0.5900800E-006  0.1086596E+03  0.7561462E-02  0.1263072E+00
          3   -1    0    0  501    0  0.00000000000E+00  0.00000000000E+00  0.46520165793E+03  0.46520165793E+03  0.00000000000E+00 0. -1.
         -3   -1    0    0    0  501 -0.00000000000E+00 -0.00000000000E+00 -0.36277779597E+02  0.36277779597E+02  0.00000000000E+00 0.  1.
         23    2    1    2    0    0 -0.66286010167E+02  0.18967167471E+02  0.16444050239E+03  0.20089555455E+03  0.92545969268E+02 0.  0.
         23    2    1    2    0    0  0.66286010167E+02 -0.18967167471E+02  0.26448337595E+03  0.30058388298E+03  0.12508247666E+03 0.  0.
          5    1    4    4  502    0 -0.10255207087E+02 -0.28986498444E+02  0.70872958585E+01  0.31829051620E+02  0.41800000000E+01 0. -1.
         -5    1    4    4    0  502  0.76541217254E+02  0.10019330973E+02  0.25739608009E+03  0.26875483136E+03  0.41800000000E+01 0. -1.
        -11    1    3    3    0    0 -0.16749438083E+02  0.48499438040E+02  0.44946739488E+02  0.68212524927E+02  0.00000000000E+00 0.  1.
         11    1    3    3    0    0 -0.49536572084E+02 -0.29532270569E+02  0.11949376290E+03  0.13268302962E+03  0.00000000000E+00 0. -1.
</event>
<event>
 8    1  0.5900800E-006  0.1511052E+03  0.7561462E-02  0.1199121E+00
          2   -1    0    0  501    0  0.00000000000E+00  0.00000000000E+00  0.43505202958E+03  0.43505202958E+03  0.00000000000E+00 0. -1.
         -2   -1    0    0    0  501 -0.00000000000E+00 -0.00000000000E+00 -0.14843014278E+03  0.14843014278E+03  0.00000000000E+00 0.  1.
         23    2    1    2    0    0  0.94874337976E+02  0.83787326837E+02 -0.78587481899E+02  0.17722185836E+03  0.95969467152E+02 0.  0.
         23    2    1    2    0    0 -0.94874337976E+02 -0.83787326837E+02  0.36520936870E+03  0.40626031399E+03  0.12509238023E+03 0.  0.
          5    1    4    4  502    0 -0.85519185440E+02 -0.32169651690E+02  0.33121135517E+03  0.34360857347E+03  0.41800000000E+01 0.  1.
         -5    1    4    4    0  502 -0.93551525361E+01 -0.51617675147E+02  0.33998013534E+02  0.62651740525E+02  0.41800000000E+01 0.  1.
        -11    1    3    3    0    0  0.11447179496E+03  0.70411491042E+02 -0.72607602687E+02  0.15275285228E+03  0.00000000000E+00 0. -1.
         11    1    3    3    0    0 -0.19597456981E+02  0.13375835795E+02 -0.59798792129E+01  0.24469006084E+02  0.00000000000E+00 0.  1.
</event>
<event>
 8    1  0.5900800E-006  0.7027235E+02  0.7561462E-02  0.1359169E+00
          2   -1    0    0  501    0  0.00000000000E+00  0.00000000000E+00  0.38662645633E+03  0.38662645633E+03  0.00000000000E+00 0. -1.
         -2   -1    0    0    0  501 -0.00000000000E+00 -0.00000000000E+00 -0.36005111966E+02  0.36005111966E+02  0.00000000000E+00 0.  1.
         23    2    1    2    0    0  0.29723985123E+02  0.18978262274E+02  0.88506471154E+02  0.13006584071E+03  0.88543987678E+02 0.  0.
         23    2    1    2    0    0 -0.29723985123E+02 -0.18978262274E+02  0.26211487321E+03  0.29256572758E+03  0.12508720345E+03 0.  0.
          5    1    4    4  502    0 -0.38303354875E+02 -0.41939550929E+02  0.26156558966E+03  0.26769404741E+03  0.41800000000E+01 0.  1.
         -5    1    4    4    0  502  0.85793697516E+01  0.22961288655E+02  0.54928355073E+00  0.24871680169E+02  0.41800000000E+01 0.  1.
        -11    1    3    3    0    0 -0.42275090452E+00 -0.14022774857E+02 -0.13017278738E+02  0.19138089736E+02  0.00000000000E+00 0.  1.
         11    1    3    3    0    0  0.30146736028E+02  0.33001037131E+02  0.10152374989E+03  0.11092775098E+03  0.00000000000E+00 0. -1.
</event>
<event>
 8    1  0.5900800E-006  0.1621854E+03  0.7561462E-02  0.1186251E+00
          4   -1    0    0  501    0  0.00000000000E+00  0.00000000000E+00  0.15849434023E+03  0.15849434023E+03  0.00000000000E+00 0. -1.
         -4   -1    0    0    0  501 -0.00000000000E+00 -0.00000000000E+00 -0.22537503479E+03  0.22537503479E+03  0.00000000000E+00 0.  1.
         23    2    1    2    0    0  0.15479990670E+03 -0.24367192964E+01 -0.42707158757E+02  0.18336889178E+03  0.88494634589E+02 0.  0.
         23    2    1    2    0    0 -0.15479990670E+03  0.24367192964E+01 -0.24173535799E+02  0.20050048324E+03  0.12508850959E+03 0.  0.
          5    1    4    4  502    0 -0.19761001777E+02  0.92510799912E+01 -0.57105154693E+02  0.61274389142E+02  0.41800000000E+01 0.  1.
         -5    1    4    4    0  502 -0.13503890492E+03 -0.68143606948E+01  0.32931618893E+02  0.13922609409E+03  0.41800000000E+01 0.  1.
        -11    1    3    3    0    0  0.41951700173E+02  0.27457895598E+02 -0.43870873356E+02  0.66622328893E+02  0.00000000000E+00 0. -1.
         11    1    3    3    0    0  0.11284820652E+03 -0.29894614895E+02  0.11637145993E+01  0.11674656289E+03  0.00000000000E+00 0.  1.
</event>
<event>
 8    1  0.5900800E-006  0.2326493E+03  0.7561462E-02  0.1124789E+00
         -1   -1    0    0    0  501 -0.00000000000E+00  0.00000000000E+00  0.32922396037E+03  0.32922396037E+03  0.00000000000E+00 0.  1.
          1   -1    0    0  501    0  0.00000000000E+00 -0.00000000000E+00 -0.28662176046E+03  0.28662176046E+03  0.00000000000E+00 0. -1.
         23    2    1    2    0    0 -0.17753688720E+03 -0.12476517033E+03  0.21001964699E+03  0.31457868427E+03  0.88123790368E+02 0.  0.
         23    2    1    2    0    0  0.17753688720E+03  0.12476517033E+03 -0.16741744709E+03  0.30126703656E+03  0.12509009427E+03 0.  0.
          5    1    4    4  502    0  0.92715191561E+02  0.66769676530E+01 -0.11200872463E+03  0.14561632957E+03  0.41800000000E+01 0. -1.
         -5    1    4    4    0  502  0.84821695636E+02  0.11808820268E+03 -0.55408722452E+02  0.15565070699E+03  0.41800000000E+01 0. -1.
        -11    1    3    3    0    0 -0.85323790560E+02 -0.99719948062E+02  0.81713099782E+02  0.15460028445E+03  0.00000000000E+00 0.  1.
         11    1    3    3    0    0 -0.92213096637E+02 -0.25045222270E+02  0.12830654721E+03  0.15997839981E+03  0.00000000000E+00 0. -1.
</event>
<event>
 8    1  0.5900800E-006  0.1255360E+03  0.7561462E-02  0.1234234E+00
          2   -1    0    0  501    0  0.00000000000E+00  0.00000000000E+00  0.10880502940E+04  0.10880502940E+04  0.00000000000E+00 0. -1.
         -2   -1    0    0    0  501 -0.00000000000E+00 -0.00000000000E+00 -0.15892486283E+02  0.15892486283E+02  0.00000000000E+00 0.  1.
         23    2    1    2    0    0 -0.57689183149E+02 -0.43801480326E+02  0.40433877199E+03  0.42065961180E+03  0.90653488286E+02 0.  0.
         23    2    1    2    0    0  0.57689183149E+02  0.43801480326E+02  0.66781903569E+03  0.68328316844E+03  0.12508801826E+03 0.  0.
          5    1    4    4  502    0 -0.19906797616E+02  0.55193170069E+02  0.39600598347E+03  0.40035081861E+03  0.41800000000E+01 0.  1.
         -5    1    4    4    0  502  0.77595980765E+02 -0.11391689743E+02  0.27181305221E+03  0.28293234983E+03  0.41800000000E+01 0.  1.
        -11    1    3    3    0    0  0.19010807906E+02 -0.30391231922E+02  0.91371132961E+02  0.98151524357E+02  0.00000000000E+00 0.  1.
         11    1    3    3    0    0 -0.76699991055E+02 -0.13410248404E+02  0.31296763903E+03  0.32250808744E+03  0.00000000000E+00 0. -1.
</event>
<event>
 8    1  0.5900800E-006  0.1283414E+03  0.7561462E-02  0.1229938E+00
         -1   -1    0    0    0  501 -0.00000000000E+00  0.00000000000E+00  0.63846909448E+03  0.63846909448E+03  0.00000000000E+00 0.  1.
          1   -1    0    0  501    0  0.00000000000E+00 -0.00000000000E+00 -0.29618314280E+02  0.29618314280E+02  0.00000000000E+00 0. -1.
         23    2    1    2    0    0  0.66834370400E+02 -0.19106149526E+02  0.38535759263E+03  0.40269867289E+03  0.93988663869E+02 0.  0.
         23    2    1    2    0    0 -0.66834370400E+02  0.19106149526E+02  0.22349318757E+03  0.26538873587E+03  0.12510035259E+03 0.  0.
          5    1    4    4  502    0 -0.90078398554E+02  0.50793065684E+02  0.15725374679E+03  0.18825585432E+03  0.41800000000E+01 0.  1.
         -5    1    4    4    0  502  0.23244028154E+02 -0.31686916158E+02  0.66239440781E+02  0.77132881544E+02  0.41800000000E+01 0.  1.
        -11    1    3    3    0    0  0.76569378581E+02 -0.43034181930E+02  0.25217122102E+03  0.26703021414E+03  0.00000000000E+00 0. -1.
         11    1    3    3    0    0 -0.97350081815E+01  0.23928032404E+02  0.13318637161E+03  0.13566845875E+03  0.00000000000E+00 0.  1.
</event>
<event>
 8    1  0.5900800E-006  0.9554138E+02  0.7561462E-02  0.1289961E+00
         -4   -1    0    0    0  501 -0.00000000000E+00  0.00000000000E+00  0.13217758711E+03  0.13217758711E+03  0.00000000000E+00 0.  1.
          4   -1    0    0  501    0  0.00000000000E+00 -0.00000000000E+00 -0.10221900147E+03  0.10221900147E+03  0.00000000000E+00 0. -1.
         23    2    1    2    0    0 -0.10499315471E+02 -0.39869033732E+02  0.29823480123E+02  0.10268238126E+03  0.89187756890E+02 0.  0.
         23    2    1    2    0    0  0.10499315471E+02  0.39869033732E+02  0.13510551823E+00  0.13171420732E+03  0.12509531838E+03 0.  0.
          5    1    4    4  502    0  0.19987265957E+02 -0.42604862694E+02 -0.89852544225E+01  0.48092331224E+02  0.41800000000E+01 0.  1.
         -5    1    4    4    0  502 -0.94879504857E+01  0.82473896425E+02  0.91203599408E+01  0.83621876094E+02  0.41800000000E+01 0.  1.
        -11    1    3    3    0    0 -0.26111182736E+02 -0.36272812776E+02  0.56210206179E+02  0.71812938174E+02  0.00000000000E+00 0.  1.
         11    1    3    3    0    0  0.15611867265E+02 -0.35962209558E+01 -0.26386726055E+02  0.30869443089E+02  0.00000000000E+00 0. -1.
</event>
<event>
 8    1  0.5900800E-006  0.1093516E+03  0.7561462E-02  0.1261775E+00
          2   -1    0    0  501    0  0.00000000000E+00  0.00000000000E+00  0.45987719746E+02  0.45987719746E+02  0.00000000000E+00 0. -1.
         -2   -1    0    0    0  501 -0.00000000000E+00 -0.00000000000E+00 -0.40978030784E+03  0.40978030784E+03  0.00000000000E+00 0.  1.
         23    2    1    2    0    0  0.56913749893E+02 -0.28069025094E+02 -0.25408092564E+03  0.27769058634E+03  0.92346628927E+02 0.  0.
         23    2    1    2    0    0 -0.56913749893E+02  0.28069025094E+02 -0.10971166246E+03  0.17807744124E+03  0.12509149093E+03 0.  0.
          5    1    4    4  502    0  0.23841162603E+02 -0.18808806026E+02  0.39642804833E+01  0.30908900630E+02  0.41800000000E+01 0.  1.
         -5    1    4    4    0  502 -0.80754912496E+02  0.46877831120E+02 -0.11367594294E+03  0.14716854061E+03  0.41800000000E+01 0.  1.
        -11    1    3    3    0    0  0.31183107214E+02  0.22085101370E+02 -0.18312447133E+03  0.18706873036E+03  0.00000000000E+00 0.  1.
         11    1    3    3    0    0  0.25730642679E+02 -0.50154126464E+02 -0.70956454301E+02  0.90621855979E+02  0.00000000000E+00 0. -1.
</event>
<event>
 8    1  0.5900800E-006  0.1153187E+03  0.7561462E-02  0.1251026E+00
         -2   -1    0    0    0  501 -0.00000000000E+00  0.00000000000E+00  0.27321854727E+02  0.27321854727E+02  0.00000000000E+00 0. -1.
          2   -1    0    0  501    0  0.00000000000E+00 -0.00000000000E+00 -0.16305218369E+04  0.16305218369E+04  0.00000000000E+00 0.  1.
         23    2    1    2    0    0  0.92007669866E+02 -0.25918751341E+02 -0.16955845215E+03  0.21558399680E+03  0.92677926167E+02 0.  0.
         23    2    1    2    0    0 -0.92007669866E+02  0.25918751341E+02 -0.14336415300E+04  0.14422596948E+04  0.12509115760E+03 0.  0.
          5    1    4    4  502    0 -0.68909481902E+02  0.30123245613E+02 -0.33516493530E+03  0.34352428281E+03  0.41800000000E+01 0.  1.
         -5    1    4    4    0  502 -0.23098187964E+02 -0.42044942723E+01 -0.10984765947E+04  0.10987354120E+04  0.41800000000E+01 0.  1.
        -11    1    3    3    0    0  0.14500787870E+02 -0.48595139301E+02 -0.49299017114E+02  0.70725904031E+02  0.00000000000E+00 0.  1.
         11    1    3    3    0    0  0.77506881996E+02  0.22676387961E+02 -0.12025943503E+03  0.14485809277E+03  0.00000000000E+00 0. -1.
</event>
<event>
 8    1  0.5900800E-006  0.7296335E+02  0.7561462E-02  0.1350296E+00
          1   -1    0    0  501    0  0.00000000000E+00  0.00000000000E+00  0.80647399111E+03  0.80647399111E+03  0.00000000000E+00 0. -1.
         -1   -1    0    0    0  501 -0.00000000000E+00 -0.00000000000E+00 -0.17718509982E+02  0.17718509982E+02  0.00000000000E+00 0.  1.
         23    2    1    2    0    0 -0.44353690754E+02 -0.19821099090E+02  0.29814884860E+03  0.31556045511E+03  0.91244391903E+02 0.  0.
         23    2    1    2    0    0  0.44353690754E+02  0.19821099090E+02  0.49060663252E+03  0.50863204598E+03  0.12510621275E+03 0.  0.
          5    1    4    4  502    0  0.12227960690E+00  0.10010585136E+02  0.44170248731E+03  0.44183570076E+03  0.41800000000E+01 0. -1.
         -5    1    4    4    0  502  0.44231411148E+02  0.98105139542E+01  0.48904145212E+02  0.66796345223E+02  0.41800000000E+01 0. -1.
        -11    1    3    3    0    0 -0.44972639853E+01  0.27411120677E+02  0.32201928584E+02  0.42527157496E+02  0.00000000000E+00 0.  1.
         11    1    3    3    0    0 -0.39856426769E+02 -0.47232219768E+02  0.26594692002E+03  0.27303329762E+03  0.00000000000E+00 0. -1.
</event>
<event>
 8    1  0.5900800E-006  0.6844701E+02  0.7561462E-02  0.1365455E+00
         -3   -1    0    0    0  501 -0.00000000000E+00  0.00000000000E+00  0.38135679346E+02  0.38135679346E+02  0.00000000000E+00 0.  1.
          3   -1    0    0  501    0  0.00000000000E+00 -0.00000000000E+00 -0.43668577529E+03  0.43668577529E+03  0.00000000000E+00 0. -1.
         23    2    1    2    0    0  0.63772488039E+02  0.36860334666E+01 -0.12618007026E+03  0.16836786127E+03  0.91355402150E+02 0.  0.
         23    2    1    2    0    0 -0.63772488039E+02 -0.36860334666E+01 -0.27237002568E+03  0.30645359337E+03  0.12509139430E+03 0.  0.
          5    1    4    4  502    0 -0.44346872431E+02 -0.36909025416E+01 -0.28118544672E+03  0.28471564007E+03  0.41800000000E+01 0. -1.
         -5    1    4    4    0  502 -0.19425615608E+02  0.48690750525E-02  0.88154210395E+01  0.21737953297E+02  0.41800000000E+01 0. -1.
        -11    1    3    3    0    0  0.53119221849E+02 -0.10939055827E+02 -0.13695945819E+03  0.14730650990E+03  0.00000000000E+00 0. -1.
         11    1    3    3    0    0  0.10653266190E+02  0.14625089293E+02  0.10779387922E+02  0.21061351366E+02  0.00000000000E+00 0.  1.
</event>
<event>
 8    1  0.5900800E-006  0.1196704E+03  0.7561462E-02  0.1243642E+00
         -1   -1    0    0    0  501 -0.00000000000E+00  0.00000000000E+00  0.15203071495E+03  0.15203071495E+03  0.00000000000E+00 0.  1.
          1   -1    0    0  501    0  0.00000000000E+00 -0.00000000000E+00 -0.12485896341E+03  0.12485896341E+03  0.00000000000E+00 0. -1.
         23    2    1    2    0    0 -0.48556838665E+02  0.33173345978E+02  0.79029624862E+02  0.13572885544E+03  0.93372389541E+02 0.  0.
         23    2    1    2    0    0  0.48556838665E+02 -0.33173345978E+02 -0.51857873321E+02  0.14116082293E+03  0.11738356546E+03 0.  0.
          5    1    4    4  502    0 -0.49355582830E+01 -0.67130034320E+02 -0.21545689761E+02  0.70798943429E+02  0.41800000000E+01 0. -1.
         -5    1    4    4    0  502  0.53492396948E+02  0.33956688343E+02 -0.30312183560E+02  0.70361879499E+02  0.41800000000E+01 0.  1.
        -11    1    3    3    0    0 -0.61954303819E+02 -0.10395168290E+02  0.33047136749E+02  0.70982452287E+02  0.00000000000E+00 0. -1.
         11    1    3    3    0    0  0.13397465154E+02  0.43568514268E+02  0.45982488113E+02  0.64746403152E+02  0.00000000000E+00 0.  1.
</event>
<event>
 8    1  0.5900800E-006  0.1120702E+03  0.7561462E-02  0.1256784E+00
         -2   -1    0    0    0  501 -0.00000000000E+00  0.00000000000E+00  0.76059324821E+02  0.76059324821E+02  0.00000000000E+00 0.  1.
          2   -1    0    0  501    0  0.00000000000E+00 -0.00000000000E+00 -0.17393949863E+03  0.17393949863E+03  0.00000000000E+00 0. -1.
         23    2    1    2    0    0 -0.35992890883E+02 -0.58529844484E+01 -0.25182341676E+02  0.10079252788E+03  0.90527552284E+02 0.  0.
         23    2    1    2    0    0  0.35992890883E+02  0.58529844484E+01 -0.72697832128E+02  0.14920629557E+03  0.12509115964E+03 0.  0.
          5    1    4    4  502    0  0.30776460994E+02  0.63680084434E+02 -0.29642049969E+02  0.76801479356E+02  0.41800000000E+01 0.  1.
         -5    1    4    4    0  502  0.52164298890E+01 -0.57827099986E+02 -0.43055782159E+02  0.72404816213E+02  0.41800000000E+01 0.  1.
        -11    1    3    3    0    0  0.28447913226E+02 -0.10841909250E+02 -0.18948147433E+02  0.35858932698E+02  0.00000000000E+00 0. -1.
         11    1    3    3    0    0 -0.64440804110E+02  0.49889248018E+01 -0.62341942430E+01  0.64933595179E+02  0.00000000000E+00 0.  1.
</event>
<event>
 8    1  0.5900800E-006  0.1746282E+03  0.7561462E-02  0.1173106E+00
          1   -1    0    0  501    0  0.00000000000E+00  0.00000000000E+00  0.92368935282E+02  0.92368935282E+02  0.00000000000E+00 0. -1.
         -1   -1    0    0    0  501 -0.00000000000E+00 -0.00000000000E+00 -0.37130222385E+03  0.37130222385E+03  0.00000000000E+00 0.  1.
         23    2    1    2    0    0  0.13521314554E+03  0.34957737928E+02 -0.19992105474E+03  0.26014268696E+03  0.90560208050E+02 0.  0.
         23    2    1    2    0    0 -0.13521314554E+03 -0.34957737928E+02 -0.79012233835E+02  0.20352847218E+03  0.12520490295E+03 0.  0.
          5    1    4    4  502    0 -0.11092567364E+03  0.32554660559E+02 -0.47431787363E+02  0.12502622864E+03  0.41800000000E+01 0.  1.
         -5    1    4    4    0  502 -0.24287471904E+02 -0.67512398487E+02 -0.31580446473E+02  0.78502243537E+02  0.41800000000E+01 0.  1.
        -11    1    3    3    0    0  0.43608613205E+02 -0.26840006450E+02 -0.94175782071E+02  0.10719689837E+03  0.00000000000E+00 0. -1.
         11    1    3    3    0    0  0.91604532337E+02  0.61797744378E+02 -0.10574527267E+03  0.15294578859E+03  0.00000000000E+00 0.  1.
</event>
<event>
 8    1  0.5900800E-006  0.1407371E+03  0.7561462E-02  0.1212341E+00
          3   -1    0    0  501    0  0.00000000000E+00  0.00000000000E+00  0.39335296248E+03  0.39335296248E+03  0.00000000000E+00 0. -1.
         -3   -1    0    0    0  501 -0.00000000000E+00 -0.00000000000E+00 -0.53526046549E+02  0.53526046549E+02  0.00000000000E+00 0.  1.
         23    2    1    2    0    0  0.21426050716E+02  0.91101813340E+02  0.19724523867E+03  0.23537036061E+03  0.87948316826E+02 0.  0.
         23    2    1    2    0    0 -0.21426050716E+02 -0.91101813340E+02  0.14258167726E+03  0.21150864842E+03  0.12509099737E+03 0.  0.
          5    1    4    4  502    0 -0.71809851250E+02 -0.60163655122E+02  0.66016598191E+02  0.11468209874E+03  0.41800000000E+01 0.  1.
         -5    1    4    4    0  502  0.50383800534E+02 -0.30938158218E+02  0.76565079066E+02  0.96826549678E+02  0.41800000000E+01 0.  1.
        -11    1    3    3    0    0 -0.34446954008E+02  0.38944111310E+02  0.79950080553E+02  0.95369029704E+02  0.00000000000E+00 0. -1.
         11    1    3    3    0    0  0.55873004723E+02  0.52157702030E+02  0.11729515812E+03  0.14000133091E+03  0.00000000000E+00 0.  1.
</event>
<event>
 8    1  0.5900800E-006  0.1436364E+03  0.7561462E-02  0.1208518E+00
         -1   -1    0    0    0  501 -0.00000000000E+00  0.00000000000E+00  0.29882093472E+03  0.29882093472E+03  0.00000000000E+00 0.  1.
          1   -1    0    0  501    0  0.00000000000E+00 -0.00000000000E+00 -0.74091008980E+02  0.74091008980E+02  0.00000000000E+00 0. -1.
         23    2    1    2    0    0  0.10055178372E+03  0.77462235427E+01  0.85432263135E+02  0.16025719284E+03  0.90625774948E+02 0.  0.
         23    2    1    2    0    0 -0.10055178372E+03 -0.77462235427E+01  0.13929766261E+03  0.21265475086E+03  0.12509012377E+03 0.  0.
          5    1    4    4  502    0  0.13353887977E+02  0.30737861324E+02  0.59103290749E+02  0.68072122196E+02  0.41800000000E+01 0.  1.
         -5    1    4    4    0  502 -0.11390567170E+03 -0.38484084867E+02  0.80194371860E+02  0.14458262866E+03  0.41800000000E+01 0.  1.
        -11    1    3    3    0    0  0.11144879970E+03  0.23637140838E+02  0.61287744218E+02  0.12936667644E+03  0.00000000000E+00 0. -1.
         11    1    3    3    0    0 -0.10897015982E+02 -0.15890917295E+02  0.24144518918E+02  0.30890516401E+02  0.00000000000E+00 0.  1.
</event>
<event>
 8    1  0.5900800E-006  0.9260248E+02  0.7561462E-02  0.1296669E+00
          2   -1    0    0  501    0  0.00000000000E+00  0.00000000000E+00  0.19172446127E+03  0.19172446127E+03  0.00000000000E+00 0. -1.
         -2   -1    0    0    0  501 -0.00000000000E+00 -0.00000000000E+00 -0.13740439000E+03  0.13740439000E+03  0.00000000000E+00 0.  1.
         23    2    1    2    0    0  0.47454736206E+02  0.49995132405E+02 -0.75030782792E+02  0.13643553273E+03  0.90739026734E+02 0.  0.
         23    2    1    2    0    0 -0.47454736206E+02 -0.49995132405E+02  0.12935085406E+03  0.19269331854E+03  0.12509039255E+03 0.  0.
          5    1    4    4  502    0 -0.94832842433E+01  0.26683968802E+02  0.96974964869E+02  0.10111173563E+03  0.41800000000E+01 0. -1.
         -5    1    4    4    0  502 -0.37971451963E+02 -0.76679101208E+02  0.32375889191E+02  0.91581582903E+02  0.41800000000E+01 0. -1.
        -11    1    3    3    0    0  0.28604447140E+02  0.41083210905E+02  0.81161585563E+01  0.50714067518E+02  0.00000000000E+00 0. -1.
         11    1    3    3    0    0  0.18850289066E+02  0.89119215003E+01 -0.83146941349E+02  0.85721465213E+02  0.00000000000E+00 0.  1.
</event>
<event>
 8    1  0.5900800E-006  0.1377647E+03  0.7561462E-02  0.1216369E+00
          1   -1    0    0  501    0  0.00000000000E+00  0.00000000000E+00  0.40563652352E+03  0.40563652352E+03  0.00000000000E+00 0. -1.
         -1   -1    0    0    0  501 -0.00000000000E+00 -0.00000000000E+00 -0.62746029399E+02  0.62746029399E+02  0.00000000000E+00 0.  1.
         23    2    1    2    0    0  0.80659953454E+02 -0.57367890936E+02  0.68847610865E+02  0.15129796817E+03  0.91400102021E+02 0.  0.
         23    2    1    2    0    0 -0.80659953454E+02  0.57367890936E+02  0.27404288326E+03  0.31708458475E+03  0.12508408780E+03 0.  0.
          5    1    4    4  502    0 -0.95940336805E+02  0.74613240927E+02  0.16169731334E+03  0.20232443621E+03  0.41800000000E+01 0. -1.
         -5    1    4    4    0  502  0.15280383351E+02 -0.17245349991E+02  0.11234556992E+03  0.11476014854E+03  0.41800000000E+01 0. -1.
        -11    1    3    3    0    0 -0.97740144973E+01  0.12752563642E+02 -0.27647713446E+01  0.16303472005E+02  0.00000000000E+00 0.  1.
         11    1    3    3    0    0  0.90433967951E+02 -0.70120454577E+02  0.71612382210E+02  0.13499449617E+03  0.00000000000E+00 0. -1.
</event>
<event>
 8    1  0.5900800E-006  0.1681425E+03  0.7561462E-02  0.1179799E+00
         -2   -1    0    0    0  501 -0.00000000000E+00  0.00000000000E+00  0.17940430304E+02  0.17940430304E+02  0.00000000000E+00 0. -1.
          2   -1    0    0  501    0  0.00000000000E+00 -0.00000000000E+00 -0.16679391203E+04  0.16679391203E+04  0.00000000000E+00 0.  1.
         23    2    1    2    0    0 -0.76265987777E+02 -0.10584442463E+03 -0.62147167758E+03  0.64159336177E+03  0.91626703045E+02 0.  0.
         23    2    1    2    0    0  0.76265987777E+02  0.10584442463E+03 -0.10285270124E+04  0.10442861888E+04  0.12508511427E+03 0.  0.
          5    1    4    4  502    0  0.53451601666E+01  0.10938943831E+03 -0.61995034999E+03  0.62956376071E+03  0.41800000000E+01 0.  1.
         -5    1    4    4    0  502  0.70920827610E+02 -0.35450136802E+01 -0.40857666238E+03  0.41472242808E+03  0.41800000000E+01 0.  1.
        -11    1    3    3    0    0 -0.94887555194E+02 -0.93484508087E+02 -0.57203878317E+03  0.58734263495E+03  0.00000000000E+00 0.  1.
         11    1    3    3    0    0  0.18621567417E+02 -0.12359916539E+02 -0.49432894415E+02  0.54250726817E+02  0.00000000000E+00 0. -1.
</event>
<event>
 8    1  0.5900800E-006  0.1272450E+03  0.7561462E-02  0.1231602E+00
         -4   -1    0    0    0  501 -0.00000000000E+00  0.00000000000E+00  0.72607330780E+02  0.72607330780E+02  0.00000000000E+00 0.  1.
          4   -1    0    0  501    0  0.00000000000E+00 -0.00000000000E+00 -0.28120644436E+03  0.28120644436E+03  0.00000000000E+00 0. -1.
         23    2    1    2    0    0 -0.39312789602E+02  0.62903189497E+02 -0.25734726370E+02  0.12018681441E+03  0.90996085314E+02 0.  0.
         23    2    1    2    0    0  0.39312789602E+02 -0.62903189497E+02 -0.18286438721E+03  0.23362696072E+03  0.12505944983E+03 0.  0.
          5    1    4    4  502    0  0.29397034335E+02  0.33175338522E+02 -0.33559663939E+02  0.55754032656E+02  0.41800000000E+01 0.  1.
         -5    1    4    4    0  502  0.99157552667E+01 -0.96078528019E+02 -0.14930472327E+03  0.17787292807E+03  0.41800000000E+01 0.  1.
        -11    1    3    3    0    0 -0.33879701435E+02  0.84489212113E+02 -0.32916733601E+02  0.96797585113E+02  0.00000000000E+00 0. -1.
         11    1    3    3    0    0 -0.54330881663E+01 -0.21586022616E+02  0.71820072303E+01  0.23389229301E+02  0.00000000000E+00 0.  1.
</event>
<event>
 8    1  0.5900800E-006  0.8231730E+02  0.7561462E-02  0.1322601E+00
          2   -1    0    0  501    0  0.00000000000E+00  0.00000000000E+00  0.13234136749E+03  0.13234136749E+03  0.00000000000E+00 0. -1.
         -2   -1    0    0    0  501 -0.00000000000E+00 -0.00000000000E+00 -0.95763750497E+02  0.95763750497E+02  0.00000000000E+00 0.  1.
         23    2    1    2    0    0 -0.25134050511E+02  0.13681901861E+02  0.76658426645E+01  0.96566815136E+02  0.91910117550E+02 0.  0.
         23    2    1    2    0    0  0.25134050511E+02 -0.13681901861E+02  0.28911774328E+02  0.13153830285E+03  0.12509004552E+03 0.  0.
          5    1    4    4  502    0  0.33286460921E+02  0.16110965515E+02  0.70408518985E+02  0.79639083597E+02  0.41800000000E+01 0. -1.
         -5    1    4    4    0  502 -0.81524104097E+01 -0.29792867376E+02 -0.41496744658E+02  0.51899219254E+02  0.41800000000E+01 0. -1.
        -11    1    3    3    0    0 -0.49318569313E+02  0.37766230430E+02  0.41863535555E+01  0.62258613831E+02  0.00000000000E+00 0. -1.
         11    1    3    3    0    0  0.24184518802E+02 -0.24084328569E+02  0.34794891091E+01  0.34308201305E+02  0.00000000000E+00 0.  1.
</event>
<event>
 8    1  0.5900800E-006  0.1140356E+03  0.7561462E-02  0.1253274E+00
          1   -1    0    0  501    0  0.00000000000E+00  0.00000000000E+00  0.79817570833E+02  0.79817570833E+02  0.00000000000E+00 0. -1.
         -1   -1    0    0    0  501 -0.00000000000E+00 -0.00000000000E+00 -0.19842708087E+03  0.19842708087E+03  0.00000000000E+00 0.  1.
         23    2    1    2    0    0  0.36138338893E+02 -0.50759942247E+02 -0.65513868708E+02  0.12993543532E+03  0.93319875070E+02 0.  0.
         23    2    1    2    0    0 -0.36138338893E+02  0.50759942247E+02 -0.53095641329E+02  0.14830921639E+03  0.12366861066E+03 0.  0.
          5    1    4    4  502    0 -0.53891127890E+02  0.82049891884E+02 -0.53930720698E+02  0.11208226202E+03  0.41800000000E+01 0. -1.
         -5    1    4    4    0  502  0.17752788997E+02 -0.31289949637E+02  0.83507936870E+00  0.36226954371E+02  0.41800000000E+01 0. -1.
        -11    1    3    3    0    0  0.55314007125E+02 -0.23102291971E+02 -0.73994096256E+02  0.95228575330E+02  0.00000000000E+00 0.  1.
         11    1    3    3    0    0 -0.19175668232E+02 -0.27657650276E+02  0.84802275482E+01  0.34706859988E+02  0.00000000000E+00 0. -1.
</event>
<event>
 8    1  0.5900800E-006  0.2615470E+03  0.7561462E-02  0.1106217E+00
         -1   -1    0    0    0  501 -0.00000000000E+00  0.00000000000E+00  0.91891115120E+02  0.91891115120E+02  0.00000000000E+00 0.  1.
          1   -1    0    0  501    0  0.00000000000E+00 -0.00000000000E+00 -0.10638616032E+04  0.10638616032E+04  0.00000000000E+00 0. -1.
         23    2    1    2    0    0 -0.25259547478E+02  0.26014070802E+03 -0.23211877134E+03  0.36118423367E+03  0.90904862038E+02 0.  0.
         23    2    1    2    0    0  0.25259547478E+02 -0.26014070802E+03 -0.73985171671E+03  0.79456848461E+03  0.12508909351E+03 0.  0.
          5    1    4    4  502    0  0.50505680951E+01 -0.48490269892E+02 -0.40243363569E+02  0.63354677993E+02  0.41800000000E+01 0.  1.
         -5    1    4    4    0  502  0.20208979383E+02 -0.21165043812E+03 -0.69960835314E+03  0.73121380662E+03  0.41800000000E+01 0.  1.
        -11    1    3    3    0    0 -0.13931179072E+02  0.99736915608E+02 -0.14988412058E+03  0.18057347449E+03  0.00000000000E+00 0. -1.
         11    1    3    3    0    0 -0.11328368406E+02  0.16040379241E+03 -0.82234650753E+02  0.18061075919E+03  0.00000000000E+00 0.  1.
</event>
<event>
 8    1  0.5900800E-006  0.1024766E+03  0.7561462E-02  0.1275173E+00
          2   -1    0    0  501    0  0.00000000000E+00  0.00000000000E+00  0.16053478477E+03  0.16053478477E+03  0.00000000000E+00 0. -1.
         -2   -1    0    0    0  501 -0.00000000000E+00 -0.00000000000E+00 -0.13261299557E+03  0.13261299557E+03  0.00000000000E+00 0.  1.
         23    2    1    2    0    0 -0.82099835775E+02 -0.42375209772E+02 -0.19158728230E+02  0.13066619556E+03  0.90391129866E+02 0.  0.
         23    2    1    2    0    0  0.82099835775E+02  0.42375209772E+02  0.47080517430E+02  0.16248158478E+03  0.12509056252E+03 0.  0.
          5    1    4    4  502    0  0.44987134015E+02  0.30223717967E+02  0.89473791673E+02  0.10469167661E+03  0.41800000000E+01 0. -1.
         -5    1    4    4    0  502  0.37112701760E+02  0.12151491805E+02 -0.42393274244E+02  0.57789908168E+02  0.41800000000E+01 0. -1.
        -11    1    3    3    0    0 -0.49577541971E+02  0.91258509972E+01 -0.41999914029E+02  0.65614073207E+02  0.00000000000E+00 0.  1.
         11    1    3    3    0    0 -0.32522293804E+02 -0.51501060769E+02  0.22841185799E+02  0.65052122358E+02  0.00000000000E+00 0. -1.
</event>
<event>
 7    1  0.5900800E-006  0.1826973E+03  0.7561462E-02  0.1165218E+00
          1   -1    0    0  501    0  0.00000000000E+00  0.00000000000E+00  0.27586398626E+03  0.27586398626E+03  0.00000000000E+00 0. -1.
         -1   -1    0    0    0  501 -0.00000000000E+00 -0.00000000000E+00 -0.19546692866E+03  0.19546692866E+03  0.00000000000E+00 0.  1.
         23    2    1    2    0    0  0.95583244594E+02  0.10614420011E+03 -0.70652356869E+02  0.18396446432E+03  0.91915291094E+02 0.  0.
          5    1    1    2  502    0  0.25251732800E+02  0.18732870447E+02  0.10191537013E+03  0.10673699224E+03  0.41800000000E+01 0. -1.
         -5    1    1    2    0  502 -0.12083497739E+03 -0.12487707056E+03  0.49134044347E+02  0.18062945836E+03  0.41800000000E+01 0.  1.
        -11    1    3    3    0    0  0.35946153708E+02 -0.23824891278E+01  0.84763159163E+01  0.37008784799E+02  0.00000000000E+00 0.  1.
         11    1    3    3    0    0  0.59637090886E+02  0.10852668924E+03 -0.79128672785E+02  0.14695567952E+03  0.00000000000E+00 0. -1.
</event>
<event>
 8    1  0.5900800E-006  0.8964432E+02  0.7561462E-02  0.1303715E+00
          2   -1    0    0  501    0  0.00000000000E+00  0.00000000000E+00  0.48214683058E+03  0.48214683058E+03  0.00000000000E+00 0. -1.
         -2   -1    0    0    0  501 -0.00000000000E+00 -0.00000000000E+00 -0.44593396012E+02  0.44593396012E+02  0.00000000000E+00 0.  1.
         23    2    1    2    0    0 -0.97081153289E+01  0.73018057428E+02  0.85789837578E+02  0.14619997207E+03  0.92674977142E+02 0.  0.
         23    2    1    2    0    0  0.97081153289E+01 -0.73018057428E+02  0.35176359699E+03  0.38054025452E+03  0.12508945970E+03 0.  0.
          5    1    4    4  502    0 -0.23427141544E+01 -0.62844881218E+02  0.35767603941E+03  0.36318671365E+03  0.41800000000E+01 0.  1.
         -5    1    4    4    0  502  0.12050829483E+02 -0.10173176209E+02 -0.59124424173E+01  0.17353540871E+02  0.41800000000E+01 0.  1.
        -11    1    3    3    0    0 -0.21960335502E+02 -0.36878091854E+01  0.60564699219E+02  0.64528591054E+02  0.00000000000E+00 0. -1.
         11    1    3    3    0    0  0.12252220173E+02  0.76705866613E+02  0.25225138359E+02  0.81671381017E+02  0.00000000000E+00 0.  1.
</event>
<event>
 8    1  0.5900800E-006  0.1211732E+03  0.7561462E-02  0.1241174E+00
         -1   -1    0    0    0  501 -0.00000000000E+00  0.00000000000E+00  0.11012484901E+03  0.11012484901E+03  0.00000000000E+00 0.  1.
          1   -1    0    0  501    0  0.00000000000E+00 -0.00000000000E+00 -0.15228067944E+03  0.15228067944E+03  0.00000000000E+00 0. -1.
         23    2    1    2    0    0  0.61305649332E+02  0.29818089574E+02 -0.10152133498E+02  0.11639226409E+03  0.93790149908E+02 0.  0.
         23    2    1    2    0    0 -0.61305649332E+02 -0.29818089574E+02 -0.32003696929E+02  0.14601326436E+03  0.12509250835E+03 0.  0.
          5    1    4    4  502    0 -0.37949000824E+02 -0.77197083195E+02 -0.34948830209E+02  0.92943044120E+02  0.41800000000E+01 0. -1.
         -5    1    4    4    0  502 -0.23356648508E+02  0.47378993621E+02  0.29451332804E+01  0.53070220238E+02  0.41800000000E+01 0. -1.
        -11    1    3    3    0    0  0.87749110306E+00  0.41650915642E+02  0.21800778274E+02  0.47019599082E+02  0.00000000000E+00 0.  1.
         11    1    3    3    0    0  0.60428158228E+02 -0.11832826069E+02 -0.31952911772E+02  0.69372665008E+02  0.00000000000E+00 0. -1.
</event>
<event>
 8    1  0.5900800E-006  0.1356850E+03  0.7561462E-02  0.1219256E+00
          2   -1    0    0  501    0  0.00000000000E+00  0.00000000000E+00  0.23641665939E+03  0.23641665939E+03  0.00000000000E+00 0. -1.
         -2   -1    0    0    0  501 -0.00000000000E+00 -0.00000000000E+00 -0.99605474210E+02  0.99605474210E+02  0.00000000000E+00 0.  1.
         23    2    1    2    0    0  0.10502843872E+03  0.17368892562E+02  0.43407454213E+02  0.14709379122E+03  0.91759059308E+02 0.  0.
         23    2    1    2    0    0 -0.10502843872E+03 -0.17368892562E+02  0.93403730971E+02  0.18892834239E+03  0.12504803169E+03 0.  0.
          5    1    4    4  502    0 -0.11294391999E+03  0.29253335036E+02  0.65735947016E+02  0.13398049785E+03  0.41800000000E+01 0. -1.
         -5    1    4    4    0  502  0.79154812768E+01 -0.46622227598E+02  0.27667783955E+02  0.54947844535E+02  0.41800000000E+01 0. -1.
        -11    1    3    3    0    0  0.45865227577E+02  0.13726816563E+02  0.67797111564E+02  0.82996945306E+02  0.00000000000E+00 0. -1.
         11    1    3    3    0    0  0.59163211141E+02  0.36420759983E+01 -0.24389657351E+02  0.64096845911E+02  0.00000000000E+00 0.  1.
</event>
<event>
 8    1  0.5900800E-006  0.7889694E+02  0.7561462E-02  0.1332211E+00
          2   -1    0    0  501    0  0.00000000000E+00  0.00000000000E+00  0.15066893028E+03  0.15066893028E+03  0.00000000000E+00 0. -1.
         -2   -1    0    0    0  501 -0.00000000000E+00 -0.00000000000E+00 -0.97445116131E+02  0.97445116131E+02  0.00000000000E+00 0.  1.
         23    2    1    2    0    0 -0.18115394639E+02  0.26679817580E+02 -0.22315178241E+02  0.98464351008E+02  0.90317667433E+02 0.  0.
         23    2    1    2    0    0  0.18115394639E+02 -0.26679817580E+02  0.75538992389E+02  0.14964969540E+03  0.12509561053E+03 0.  0.
          5    1    4    4  502    0  0.61735019074E+02 -0.35523272362E+02  0.76932947528E+02  0.10492505075E+03  0.41800000000E+01 0. -1.
         -5    1    4    4    0  502 -0.43619624435E+02  0.88434547826E+01 -0.13939551392E+01  0.44724644652E+02  0.41800000000E+01 0. -1.
        -11    1    3    3    0    0  0.66968254304E+01  0.92523407492E+01 -0.53655243587E+02  0.54857437459E+02  0.00000000000E+00 0.  1.
         11    1    3    3    0    0 -0.24812220069E+02  0.17427476830E+02  0.31340065345E+02  0.43606913549E+02  0.00000000000E+00 0. -1.
</event>
<event>
 8    1  0.5900800E-006  0.2004529E+03  0.7561462E-02  0.1149357E+00
          1   -1    0    0  501    0  0.00000000000E+00  0.00000000000E+00  0.25421332145E+04  0.25421332145E+04  0.00000000000E+00 0. -1.
         -1   -1    0    0    0  501 -0.00000000000E+00 -0.00000000000E+00 -0.22311051051E+02  0.22311051051E+02  0.00000000000E+00 0.  1.
         23    2    1    2    0    0  0.11945051210E+03  0.13665960298E+03  0.63517896925E+03  0.66695329467E+03  0.91815588900E+02 0.  0.
         23    2    1    2    0    0 -0.11945051210E+03 -0.13665960298E+03  0.18846431942E+04  0.18974909709E+04  0.12509093976E+03 0.  0.
          5    1    4    4  502    0 -0.60778125137E+02 -0.88112041151E+01  0.27989720750E+03  0.28658600276E+03  0.41800000000E+01 0. -1.
         -5    1    4    4    0  502 -0.58672386959E+02 -0.12784839887E+03  0.16047459867E+04  0.16109049681E+04  0.41800000000E+01 0. -1.
        -11    1    3    3    0    0  0.14646625782E+02  0.76266342982E+02  0.18129899088E+03  0.19723185040E+03  0.00000000000E+00 0. -1.
         11    1    3    3    0    0  0.10480388631E+03  0.60393260001E+02  0.45387997836E+03  0.46972144426E+03  0.00000000000E+00 0.  1.
</event>
<event>
 8    1  0.5900800E-006  0.1222462E+03  0.7561462E-02  0.1239437E+00
         -1   -1    0    0    0  501 -0.00000000000E+00  0.00000000000E+00  0.12477876959E+02  0.12477876959E+02  0.00000000000E+00 0.  1.
          1   -1    0    0  501    0  0.00000000000E+00 -0.00000000000E+00 -0.23976643393E+04  0.23976643393E+04  0.00000000000E+00 0. -1.
         23    2    1    2    0    0 -0.30595654436E+02 -0.59584811978E+02 -0.31867467319E+03  0.33892847596E+03  0.93981490718E+02 0.  0.
         23    2    1    2    0    0  0.30595654436E+02  0.59584811978E+02 -0.20665117891E+04  0.20712137403E+04  0.12234761704E+03 0.  0.
          5    1    4    4  502    0  0.68244412671E+01 -0.32799191068E+02 -0.26037264147E+03  0.26255236574E+03  0.41800000000E+01 0. -1.
         -5    1    4    4    0  502  0.23771213169E+02  0.92384003046E+02 -0.18061391476E+04  0.18086613745E+04  0.41800000000E+01 0.  1.
        -11    1    3    3    0    0 -0.31121599899E+02  0.19129113223E+02 -0.92830516631E+02  0.99759619942E+02  0.00000000000E+00 0.  1.
         11    1    3    3    0    0  0.52594546214E+00 -0.78713925200E+02 -0.22584415656E+03  0.23916885602E+03  0.00000000000E+00 0. -1.
</event>
<event>
 8    1  0.5900800E-006  0.9946525E+02  0.7561462E-02  0.1281424E+00
          2   -1    0    0  501    0  0.00000000000E+00  0.00000000000E+00  0.20244644116E+03  0.20244644116E+03  0.00000000000E+00 0. -1.
         -2   -1    0    0    0  501 -0.00000000000E+00 -0.00000000000E+00 -0.81336267192E+02  0.81336267192E+02  0.00000000000E+00 0.  1.
         23    2    1    2    0    0 -0.88696062268E+01 -0.41310297873E+02 -0.80375556828E+01  0.99087123325E+02  0.89266147461E+02 0.  0.
         23    2    1    2    0    0  0.88696062268E+01  0.41310297873E+02  0.12914772965E+03  0.18469558503E+03  0.12509241555E+03 0.  0.
          5    1    4    4  502    0  0.55439517521E+02  0.16562385859E+02  0.11673709778E+03  0.13035672259E+03  0.41800000000E+01 0.  1.
         -5    1    4    4    0  502 -0.46569911295E+02  0.24747912014E+02  0.12410631877E+02  0.54338862434E+02  0.41800000000E+01 0.  1.
        -11    1    3    3    0    0  0.89209892186E+01 -0.60902341867E+02  0.15715106669E+02  0.63526717774E+02  0.00000000000E+00 0. -1.
         11    1    3    3    0    0 -0.17790595445E+02  0.19592043994E+02 -0.23752662352E+02  0.35560405551E+02  0.00000000000E+00 0.  1.
</event>
<event>
 8    1  0.5900800E-006  0.1194400E+03  0.7561462E-02  0.1244024E+00
          1   -1    0    0  501    0  0.00000000000E+00  0.00000000000E+00  0.51793201837E+03  0.51793201837E+03  0.00000000000E+00 0. -1.
         -1   -1    0    0    0  501 -0.00000000000E+00 -0.00000000000E+00 -0.31235279635E+02  0.31235279635E+02  0.00000000000E+00 0.  1.
         23    2    1    2    0    0 -0.53277096080E+02  0.18907452468E+02  0.13794536657E+03  0.17382487692E+03  0.89388047025E+02 0.  0.
         23    2    1    2    0    0  0.53277096080E+02 -0.18907452468E+02  0.34875137217E+03  0.37534242109E+03  0.12672202949E+03 0.  0.
          5    1    4    4  502    0  0.92061908002E+02  0.17877921173E+01  0.26644761197E+03  0.28194040758E+03  0.41800000000E+01 0. -1.
         -5    1    4    4    0  502 -0.38784811922E+02 -0.20695244585E+02  0.82303760199E+02  0.93402013507E+02  0.41800000000E+01 0.  1.
        -11    1    3    3    0    0  0.47031434966E+01  0.40428574273E+02  0.76449641895E+02  0.86609104154E+02  0.00000000000E+00 0. -1.
         11    1    3    3    0    0 -0.57980239576E+02 -0.21521121805E+02  0.61495724677E+02  0.87215772763E+02  0.00000000000E+00 0.  1.
</event>
<event>
 8    1  0.5900800E-006  0.1931405E+03  0.7561462E-02  0.1155659E+00
         -2   -1    0    0    0  501 -0.00000000000E+00  0.00000000000E+00  0.23931356086E+02  0.23931356086E+02  0.00000000000E+00 0.  1.
          2   -1    0    0  501    0  0.00000000000E+00 -0.00000000000E+00 -0.23883317551E+04  0.23883317551E+04  0.00000000000E+00 0. -1.
         23    2    1    2    0    0 -0.64053117118E+02 -0.15023788441E+03 -0.43496018525E+03  0.47188716381E+03  0.82540347063E+02 0.  0.
         23    2    1    2    0    0  0.64053117118E+02  0.15023788441E+03 -0.19294402138E+04  0.19403759474E+04  0.12508019403E+03 0.  0.
          5    1    4    4  502    0 -0.35159285661E+02  0.57163310531E+02 -0.50700374039E+03  0.51144313917E+03  0.41800000000E+01 0.  1.
         -5    1    4    4    0  502  0.99212402779E+02  0.93074573877E+02 -0.14224364734E+04  0.14289328082E+04  0.41800000000E+01 0.  1.
        -11    1    3    3    0    0  0.18802591447E+02 -0.46613740399E+02 -0.11438289438E+03  0.12493928432E+03  0.00000000000E+00 0.  1.
         11    1    3    3    0    0 -0.82855708565E+02 -0.10362414401E+03 -0.32057729087E+03  0.34694787950E+03  0.00000000000E+00 0. -1.
</event>
<event>
 8    1  0.5900800E-006  0.8575484E+02  0.7561462E-02  0.1313470E+00
         -1   -1    0    0    0  501 -0.00000000000E+00  0.00000000000E+00  0.25269847027E+02  0.25269847027E+02  0.00000000000E+00 0.  1.
          1   -1    0    0  501    0  0.00000000000E+00 -0.00000000000E+00 -0.62673583789E+03  0.62673583789E+03  0.00000000000E+00 0. -1.
         23    2    1    2    0    0 -0.82761883280E-02  0.61754301372E+02 -0.19703128249E+03  0.22620187329E+03  0.92370814621E+02 0.  0.
         23    2    1    2    0    0  0.82761883280E-02 -0.61754301372E+02 -0.40443470837E+03  0.42580381162E+03  0.11801634994E+03 0.  0.
          5    1    4    4  502    0 -0.13291942352E+02 -0.10040103161E+02 -0.34641974850E+03  0.34684520172E+03  0.41800000000E+01 0. -1.
         -5    1    4    4    0  502  0.13300218541E+02 -0.51714198211E+02 -0.58014959869E+02  0.78958609907E+02  0.41800000000E+01 0.  1.
        -11    1    3    3    0    0  0.39809891718E+02  0.31618376599E+02 -0.14687815004E+03  0.15542760429E+03  0.00000000000E+00 0.  1.
         11    1    3    3    0    0 -0.39818167906E+02  0.30135924773E+02 -0.50153132447E+02  0.70774268993E+02  0.00000000000E+00 0. -1.
</event>
<event>
 8    1  0.5900800E-006  0.1096087E+03  0.7561462E-02  0.1261296E+00
         -1   -1    0    0    0  501 -0.00000000000E+00  0.00000000000E+00  0.19145572662E+02  0.19145572662E+02  0.00000000000E+00 0. -1.
          1   -1    0    0  501    0  0.00000000000E+00 -0.00000000000E+00 -0.67542817812E+03  0.67542817812E+03  0.00000000000E+00 0.  1.
         23    2    1    2    0    0  0.16046100207E+02 -0.22942338001E+02 -0.21653737988E+03  0.23652663380E+03  0.90953743232E+02 0.  0.
         23    2    1    2    0    0 -0.16046100207E+02  0.22942338001E+02 -0.43974522558E+03  0.45804711698E+03  0.12508984671E+03 0.  0.
          5    1    4    4  502    0  0.12666999046E+02 -0.46784400709E+02 -0.23081081853E+03  0.23588204545E+03  0.41800000000E+01 0.  1.
         -5    1    4    4    0  502 -0.28713099253E+02  0.69726738710E+02 -0.20893440705E+03  0.22216507153E+03  0.41800000000E+01 0.  1.
        -11    1    3    3    0    0 -0.32338965402E+02 -0.32363756330E+02 -0.98319476567E+02  0.10844326111E+03  0.00000000000E+00 0.  1.
         11    1    3    3    0    0  0.48385065610E+02  0.94214183292E+01 -0.11821790331E+03  0.12808337269E+03  0.00000000000E+00 0. -1.
</event>
<event>
 8    1  0.5900800E-006  0.1257597E+03  0.7561462E-02  0.1233887E+00
         -1   -1    0    0    0  501 -0.00000000000E+00  0.00000000000E+00  0.10763147297E+03  0.10763147297E+03  0.00000000000E+00 0.  1.
          1   -1    0    0  501    0  0.00000000000E+00 -0.00000000000E+00 -0.27221342530E+03  0.27221342530E+03  0.00000000000E+00 0. -1.
         23    2    1    2    0    0  0.69689579863E+02 -0.10261739130E+03 -0.12807017153E+03  0.19992965863E+03  0.90459565699E+02 0.  0.
         23    2    1    2    0    0 -0.69689579863E+02  0.10261739130E+03 -0.36511780800E+02  0.17991523964E+03  0.12509762899E+03 0.  0.
          5    1    4    4  502    0 -0.63640851524E+02  0.86510423385E+02 -0.79327185238E+02  0.13358325514E+03  0.41800000000E+01 0.  1.
         -5    1    4    4    0  502 -0.60487283396E+01  0.16106967919E+02  0.42815404438E+02  0.46331984496E+02  0.41800000000E+01 0.  1.
        -11    1    3    3    0    0  0.33305721884E+02 -0.28771169231E+02 -0.10588825235E+03  0.11467071673E+03  0.00000000000E+00 0. -1.
         11    1    3    3    0    0  0.36383857980E+02 -0.73846222073E+02 -0.22181919173E+02  0.85258941901E+02  0.00000000000E+00 0.  1.
</event>
<event>
 8    1  0.5900800E-006  0.8975403E+02  0.7561462E-02  0.1303448E+00
         -1   -1    0    0    0  501 -0.00000000000E+00  0.00000000000E+00  0.11055451138E+03  0.11055451138E+03  0.00000000000E+00 0.  1.
          1   -1    0    0  501    0  0.00000000000E+00 -0.00000000000E+00 -0.15053838674E+03  0.15053838674E+03  0.00000000000E+00 0. -1.
         23    2    1    2    0    0 -0.55215967428E+02  0.13412780511E+02  0.24975915683E+02  0.10912258382E+03  0.89750967655E+02 0.  0.
         23    2    1    2    0    0  0.55215967428E+02 -0.13412780511E+02 -0.64959791037E+02  0.15197031430E+03  0.12508595540E+03 0.  0.
          5    1    4    4  502    0  0.23899776038E+02 -0.40319182803E+02 -0.91373625642E+02  0.10277863426E+03  0.41800000000E+01 0.  1.
         -5    1    4    4    0  502  0.31316191390E+02  0.26906402292E+02  0.26413834604E+02  0.49191680048E+02  0.41800000000E+01 0.  1.
        -11    1    3    3    0    0 -0.41350246389E+02 -0.26221514396E+02  0.41315810557E+02  0.64065645206E+02  0.00000000000E+00 0.  1.
         11    1    3    3    0    0 -0.13865721039E+02  0.39634294907E+02 -0.16339894873E+02  0.45056938613E+02  0.00000000000E+00 0. -1.
</event>
<event>
 8    1  0.5900800E-006  0.1375173E+03  0.7561462E-02  0.1216709E+00
         -2   -1    0    0    0  501 -0.00000000000E+00  0.00000000000E+00  0.17815108115E+02  0.17815108115E+02  0.00000000000E+00 0.  1.
          2   -1    0    0  501    0  0.00000000000E+00 -0.00000000000E+00 -0.17636820861E+04  0.17636820861E+04  0.00000000000E+00 0. -1.
         23    2    1    2    0    0 -0.20013265772E+02  0.96751982567E+02 -0.33641258336E+03  0.36305845856E+03  0.94215397605E+02 0.  0.
         23    2    1    2    0    0  0.20013265772E+02 -0.96751982567E+02 -0.14094543946E+04  0.14184387357E+04  0.12508109116E+03 0.  0.
          5    1    4    4  502    0 -0.15887005289E+02  0.17096167693E+02 -0.57391116668E+03  0.57440070990E+03  0.41800000000E+01 0.  1.
         -5    1    4    4    0  502  0.35900271061E+02 -0.11384815026E+03 -0.83554322793E+03  0.84403802576E+03  0.41800000000E+01 0.  1.
        -11    1    3    3    0    0 -0.91625295646E+01  0.11243445355E+03 -0.24564189927E+03  0.27030612455E+03  0.00000000000E+00 0.  1.
         11    1    3    3    0    0 -0.10850736207E+02 -0.15682470983E+02 -0.90770684093E+02  0.92752334004E+02  0.00000000000E+00 0. -1.
</event>
<event>
 8    1  0.5900800E-006  0.9285531E+02  0.7561462E-02  0.1296081E+00
          2   -1    0    0  501    0  0.00000000000E+00  0.00000000000E+00  0.14600648568E+04  0.14600648568E+04  0.00000000000E+00 0.  1.
         -2   -1    0    0    0  501 -0.00000000000E+00 -0.00000000000E+00 -0.15872241712E+02  0.15872241712E+02  0.00000000000E+00 0. -1.
         23    2    1    2    0    0  0.54441879848E+02 -0.18358549092E+02  0.23724105483E+03  0.26116443100E+03  0.92857887724E+02 0.  0.
         23    2    1    2    0    0 -0.54441879848E+02  0.18358549092E+02  0.12069515603E+04  0.12147726675E+04  0.12505842770E+03 0.  0.
          5    1    4    4  502    0 -0.12064875933E+02 -0.17216264638E+02  0.32022218623E+02  0.38533827800E+02  0.41800000000E+01 0. -1.
         -5    1    4    4    0  502 -0.42377003915E+02  0.35574813730E+02  0.11749293417E+04  0.11762388397E+04  0.41800000000E+01 0. -1.
        -11    1    3    3    0    0 -0.19845741677E+02  0.17353777131E+02  0.48289175723E+02  0.55016829565E+02  0.00000000000E+00 0.  1.
         11    1    3    3    0    0  0.74287621525E+02 -0.35712326223E+02  0.18895187911E+03  0.20614760143E+03  0.00000000000E+00 0. -1.
</event>
<event>
 7    1  0.5900800E-006  0.2338784E+03  0.7561462E-02  0.1123939E+00
          1   -1    0    0  501    0  0.00000000000E+00  0.00000000000E+00  0.13477686088E+04  0.13477686088E+04  0.00000000000E+00 0. -1.
         -1   -1    0    0    0  501 -0.00000000000E+00 -0.00000000000E+00 -0.73840079937E+02  0.73840079937E+02  0.00000000000E+00 0.  1.
         23    2    1    2    0    0  0.58465280347E+02  0.12624038418E+03  0.27245783384E+03  0.31904401737E+03  0.90559318673E+02 0.  0.
          5    1    1    2  502    0 -0.15766683329E+03 -0.24486996749E+02  0.96544909021E+02  0.18653909828E+03  0.41800000000E+01 0. -1.
         -5    1    1    2    0  502  0.99201552947E+02 -0.10175338743E+03  0.90492578600E+03  0.91602557308E+03  0.41800000000E+01 0.  1.
        -11    1    3    3    0    0  0.67639994538E+02  0.13642203534E+03  0.25141892588E+03  0.29393471533E+03  0.00000000000E+00 0.  1.
         11    1    3    3    0    0 -0.91747141915E+01 -0.10181651162E+02  0.21038907961E+02  0.25109302043E+02  0.00000000000E+00 0. -1.
</event>
<event>
 8    1  0.5900800E-006  0.1011014E+03  0.7561462E-02  0.1277997E+00
          4   -1    0    0  501    0  0.00000000000E+00  0.00000000000E+00  0.13693566948E+03  0.13693566948E+03  0.00000000000E+00 0. -1.
         -4   -1    0    0    0  501 -0.00000000000E+00 -0.00000000000E+00 -0.10687090729E+03  0.10687090729E+03  0.00000000000E+00 0.  1.
         23    2    1    2    0    0  0.27038128476E+02 -0.31095051404E+02  0.27931148725E+02  0.11208630323E+03  0.10042523433E+03 0.  0.
         23    2    1    2    0    0 -0.27038128476E+02  0.31095051404E+02  0.21336134657E+01  0.13172027354E+03  0.12509082917E+03 0.  0.
          5    1    4    4  502    0 -0.11463677664E+01  0.68739430258E+02 -0.30592751626E+02  0.75364529344E+02  0.41800000000E+01 0. -1.
         -5    1    4    4    0  502 -0.25891760710E+02 -0.37644378854E+02  0.32726365092E+02  0.56355744198E+02  0.41800000000E+01 0. -1.
        -11    1    3    3    0    0  0.41214265703E+02 -0.49374129248E+02  0.48955636952E+02  0.80827437952E+02  0.00000000000E+00 0. -1.
         11    1    3    3    0    0 -0.14176137227E+02  0.18279077845E+02 -0.21024488227E+02  0.31258865282E+02  0.00000000000E+00 0.  1.
</event>
<event>
 8    1  0.5900800E-006  0.1204720E+03  0.7561462E-02  0.1242320E+00
          2   -1    0    0  501    0  0.00000000000E+00  0.00000000000E+00  0.30594805966E+03  0.30594805966E+03  0.00000000000E+00 0. -1.
         -2   -1    0    0    0  501 -0.00000000000E+00 -0.00000000000E+00 -0.57601727705E+02  0.57601727705E+02  0.00000000000E+00 0.  1.
         23    2    1    2    0    0  0.55338736734E+02  0.53492491581E+02  0.12572705820E+03  0.17221432164E+03  0.89031775099E+02 0.  0.
         23    2    1    2    0    0 -0.55338736734E+02 -0.53492491581E+02  0.12261927376E+03  0.19133546572E+03  0.12509976701E+03 0.  0.
          5    1    4    4  502    0 -0.48308124391E+02  0.17764380188E+02  0.10570294692E+03  0.11764282160E+03  0.41800000000E+01 0. -1.
         -5    1    4    4    0  502 -0.70306123432E+01 -0.71256871769E+02  0.16916326837E+02  0.73692644124E+02  0.41800000000E+01 0. -1.
        -11    1    3    3    0    0  0.51646441665E+02 -0.11145663844E+02  0.52820515304E+02  0.74710023398E+02  0.00000000000E+00 0.  1.
         11    1    3    3    0    0  0.36922950696E+01  0.64638155425E+02  0.72906542894E+02  0.97504298246E+02  0.00000000000E+00 0. -1.
</event>
<event>
 8    1  0.5900800E-006  0.1245074E+03  0.7561462E-02  0.1235841E+00
         -2   -1    0    0    0  501 -0.00000000000E+00  0.00000000000E+00  0.60213372106E+02  0.60213372106E+02  0.00000000000E+00 0.  1.
          2   -1    0    0  501    0  0.00000000000E+00 -0.00000000000E+00 -0.41333334878E+03  0.41333334878E+03  0.00000000000E+00 0. -1.
         23    2    1    2    0    0 -0.43569145951E+02  0.10004585890E+03 -0.21423938501E+03  0.25711796882E+03  0.91124592937E+02 0.  0.
         23    2    1    2    0    0  0.43569145951E+02 -0.10004585890E+03 -0.13888059166E+03  0.21642875206E+03  0.12508453788E+03 0.  0.
          5    1    4    4  502    0  0.56162979648E+02 -0.22220689317E+02 -0.12126567254E+03  0.13553920117E+03  0.41800000000E+01 0.  1.
         -5    1    4    4    0  502 -0.12593833696E+02 -0.77825169587E+02 -0.17614919122E+02  0.80889550896E+02  0.41800000000E+01 0.  1.
        -11    1    3    3    0    0 -0.27691072018E+02  0.74092121403E+02 -0.58360295433E+02  0.98297314340E+02  0.00000000000E+00 0.  1.
         11    1    3    3    0    0 -0.15878073933E+02  0.25953737501E+02 -0.15587908957E+03  0.15882065448E+03  0.00000000000E+00 0. -1.
</event>
<event>
 8    1  0.5900800E-006  0.1151492E+03  0.7561462E-02  0.1251321E+00
          2   -1    0    0  501    0  0.00000000000E+00  0.00000000000E+00  0.37798233518E+03  0.37798233518E+03  0.00000000000E+00 0. -1.
         -2   -1    0    0    0  501 -0.00000000000E+00 -0.00000000000E+00 -0.50441321248E+02  0.50441321248E+02  0.00000000000E+00 0.  1.
         23    2    1    2    0    0  0.45028156554E+01 -0.69631187432E+02  0.66503208723E+02  0.13066959424E+03  0.88221814063E+02 0.  0.
         23    2    1    2    0    0 -0.45028156554E+01  0.69631187432E+02  0.26103780521E+03  0.29775406219E+03  0.12509183902E+03 0.  0.
          5    1    4    4  502    0 -0.37344179155E+02  0.89513664569E+02  0.22449614117E+03  0.24458796712E+03  0.41800000000E+01 0.  1.
         -5    1    4    4    0  502  0.32841363500E+02 -0.19882477138E+02  0.36541664039E+02  0.53166095064E+02  0.41800000000E+01 0.  1.
        -11    1    3    3    0    0  0.32068616625E+02 -0.54284962589E+02  0.71520372266E+01  0.63453959467E+02  0.00000000000E+00 0.  1.
         11    1    3    3    0    0 -0.27565800970E+02 -0.15346224843E+02  0.59351171497E+02  0.67215634774E+02  0.00000000000E+00 0. -1.
</event>
<event>
 8    1  0.5900800E-006  0.1113821E+03  0.7561462E-02  0.1258032E+00
         -2   -1    0    0    0  501 -0.00000000000E+00  0.00000000000E+00  0.15693419794E+02  0.15693419794E+02  0.00000000000E+00 0.  1.
          2   -1    0    0  501    0  0.00000000000E+00 -0.00000000000E+00 -0.84013581833E+03  0.84013581833E+03  0.00000000000E+00 0. -1.
         23    2    1    2    0    0 -0.39836092788E+02 -0.16989588528E+02 -0.29352637607E+03  0.31035323665E+03  0.91026576561E+02 0.  0.
         23    2    1    2    0    0  0.39836092788E+02  0.16989588528E+02 -0.53091602246E+03  0.54547600148E+03  0.11745929028E+03 0.  0.
          5    1    4    4  502    0  0.75318286837E+01  0.65879964106E+02 -0.28118840984E+03  0.28893129346E+03  0.41800000000E+01 0. -1.
         -5    1    4    4    0  502  0.32304264104E+02 -0.48890375578E+02 -0.24972761263E+03  0.25654470802E+03  0.41800000000E+01 0.  1.
        -11    1    3    3    0    0 -0.36604720650E+02 -0.51351270185E+02 -0.22435846698E+03  0.23305274131E+03  0.00000000000E+00 0.  1.
         11    1    3    3    0    0 -0.32313721378E+01  0.34361681657E+02 -0.69167909091E+02  0.77300495343E+02  0.00000000000E+00 0. -1.
</event>
<event>
 8    1  0.5900800E-006  0.1077118E+03  0.7561462E-02  0.1264867E+00
         -2   -1    0    0    0  501 -0.00000000000E+00  0.00000000000E+00  0.54052784041E+02  0.54052784041E+02  0.00000000000E+00 0.  1.
          2   -1    0    0  501    0  0.00000000000E+00 -0.00000000000E+00 -0.30834266829E+03  0.30834266829E+03  0.00000000000E+00 0. -1.
         23    2    1    2    0    0 -0.10191051493E+02 -0.65512003231E+02 -0.14611468502E+03  0.18422361726E+03  0.90516075242E+02 0.  0.
         23    2    1    2    0    0  0.10191051493E+02  0.65512003231E+02 -0.10817519923E+03  0.17817183508E+03  0.12509056315E+03 0.  0.
          5    1    4    4  502    0  0.11790189494E+02  0.10262839939E+03 -0.87533941166E+02  0.13546682319E+03  0.41800000000E+01 0.  1.
         -5    1    4    4    0  502 -0.15991380013E+01 -0.37116396156E+02 -0.20641258060E+02  0.42705011887E+02  0.41800000000E+01 0.  1.
        -11    1    3    3    0    0 -0.12175543744E+02 -0.35860496319E+01  0.10067712219E+02  0.16200692786E+02  0.00000000000E+00 0.  1.
         11    1    3    3    0    0  0.19844922509E+01 -0.61925953599E+02 -0.15618239724E+03  0.16802292447E+03  0.00000000000E+00 0. -1.
</event>
<event>
 7    1  0.5900800E-006  0.1734694E+03  0.7561462E-02  0.1174277E+00
         -1   -1    0    0    0  501 -0.00000000000E+00  0.00000000000E+00  0.53962477889E+02  0.53962477889E+02  0.00000000000E+00 0.  1.
          1   -1    0    0  501    0  0.00000000000E+00 -0.00000000000E+00 -0.74351611427E+03  0.74351611427E+03  0.00000000000E+00 0. -1.
         23    2    1    2    0    0 -0.12888087694E+03  0.32190145463E+02 -0.21013256254E+03  0.26294217157E+03  0.85652821588E+02 0.  0.
          5    1    1    2  502    0  0.14127752474E+03  0.32577648581E+02 -0.42456468677E+03  0.44865720527E+03  0.41800000000E+01 0. -1.
         -5    1    1    2    0  502 -0.12396647794E+02 -0.64767794044E+02 -0.54856387075E+02  0.85879215325E+02  0.41800000000E+01 0.  1.
        -11    1    3    3    0    0 -0.21799243459E+02 -0.51735152123E+01 -0.10806566247E+03  0.11036376072E+03  0.00000000000E+00 0. -1.
         11    1    3    3    0    0 -0.10708163348E+03  0.37363660675E+02 -0.10206690006E+03  0.15257841085E+03  0.00000000000E+00 0.  1.
</event>
<event>
 8    1  0.5900800E-006  0.1238851E+03  0.7561462E-02  0.1236822E+00
          1   -1    0    0  501    0  0.00000000000E+00  0.00000000000E+00  0.20532809297E+03  0.20532809297E+03  0.00000000000E+00 0. -1.
         -1   -1    0    0    0  501 -0.00000000000E+00 -0.00000000000E+00 -0.14893507214E+03  0.14893507214E+03  0.00000000000E+00 0.  1.
         23    2    1    2    0    0  0.81360246509E+02 -0.20314381142E+02 -0.83264997044E+02  0.14888177359E+03  0.90556937780E+02 0.  0.
         23    2    1    2    0    0 -0.81360246509E+02  0.20314381142E+02  0.13965801787E+03  0.20538139152E+03  0.12507993538E+03 0.  0.
          5    1    4    4  502    0  0.18031164266E+02  0.44514105593E+02  0.44715328566E+02  0.65753794494E+02  0.41800000000E+01 0. -1.
         -5    1    4    4    0  502 -0.99391410775E+02 -0.24199724451E+02  0.94942689308E+02  0.13962759703E+03  0.41800000000E+01 0. -1.
        -11    1    3    3    0    0  0.72485535141E+02  0.26781738594E+01 -0.12058221751E+02  0.73530443571E+02  0.00000000000E+00 0. -1.
         11    1    3    3    0    0  0.88747113675E+01 -0.22992555002E+02 -0.71206775293E+02  0.75351330015E+02  0.00000000000E+00 0.  1.
</event>
<event>
 8    1  0.5900800E-006  0.9991881E+02  0.7561462E-02  0.1280467E+00
         -3   -1    0    0    0  501 -0.00000000000E+00  0.00000000000E+00  0.24901489998E+03  0.24901489998E+03  0.00000000000E+00 0.  1.
          3   -1    0    0  501    0  0.00000000000E+00 -0.00000000000E+00 -0.68847773627E+02  0.68847773627E+02  0.00000000000E+00 0. -1.
         23    2    1    2    0    0 -0.11887555136E+02 -0.46855933568E+02  0.14655492835E+03  0.17961252548E+03  0.91899509287E+02 0.  0.
         23    2    1    2    0    0  0.11887555136E+02  0.46855933568E+02  0.33612198010E+02  0.13825014813E+03  0.12508609486E+03 0.  0.
          5    1    4    4  502    0  0.36063261515E+02  0.79651607577E+02  0.38473021841E+01  0.87619698441E+02  0.41800000000E+01 0.  1.
         -5    1    4    4    0  502 -0.24175706379E+02 -0.32795674010E+02  0.29764895826E+02  0.50630449694E+02  0.41800000000E+01 0.  1.
        -11    1    3    3    0    0 -0.26310991088E+02 -0.50075342248E+02  0.15327350768E+03  0.16337862868E+03  0.00000000000E+00 0.  1.
         11    1    3    3    0    0  0.14423435952E+02  0.32194086800E+01 -0.67185793318E+01  0.16233896795E+02  0.00000000000E+00 0. -1.
</event>
<event>
 8    1  0.5900800E-006  0.1486711E+03  0.7561462E-02  0.1202115E+00
         -1   -1    0    0    0  501 -0.00000000000E+00  0.00000000000E+00  0.27043095591E+02  0.27043095591E+02  0.00000000000E+00 0.  1.
          1   -1    0    0  501    0  0.00000000000E+00 -0.00000000000E+00 -0.10605317908E+04  0.10605317908E+04  0.00000000000E+00 0. -1.
         23    2    1    2    0    0  0.50655647994E+02  0.10392948616E+03 -0.27295391066E+03  0.30819896711E+03  0.84353027310E+02 0.  0.
         23    2    1    2    0    0 -0.50655647994E+02 -0.10392948616E+03 -0.76053478451E+03  0.77937591924E+03  0.12508529999E+03 0.  0.
          5    1    4    4  502    0  0.31952922671E+02 -0.43578371237E+02 -0.42844933819E+03  0.43186383444E+03  0.41800000000E+01 0. -1.
         -5    1    4    4    0  502 -0.82608570665E+02 -0.60351114927E+02 -0.33208544632E+03  0.34751208480E+03  0.41800000000E+01 0. -1.
        -11    1    3    3    0    0  0.45918559127E+02  0.10372534023E+02 -0.66390527116E+02  0.81386765663E+02  0.00000000000E+00 0.  1.
         11    1    3    3    0    0  0.47370888669E+01  0.93556952141E+02 -0.20656338354E+03  0.22681220145E+03  0.00000000000E+00 0. -1.
</event>
<event>
 8    1  0.5900800E-006  0.1082635E+03  0.7561462E-02  0.1263820E+00
          1   -1    0    0  501    0  0.00000000000E+00  0.00000000000E+00  0.39207717076E+03  0.39207717076E+03  0.00000000000E+00 0. -1.
         -1   -1    0    0    0  501 -0.00000000000E+00 -0.00000000000E+00 -0.56154882559E+02  0.56154882559E+02  0.00000000000E+00 0.  1.
         23    2    1    2    0    0  0.47356488223E+02  0.45697608322E+02  0.39248779072E+02  0.11960756442E+03  0.91840048040E+02 0.  0.
         23    2    1    2    0    0 -0.47356488223E+02 -0.45697608322E+02  0.29667350913E+03  0.32862448890E+03  0.12509186745E+03 0.  0.
          5    1    4    4  502    0  0.21550678554E+02  0.29907167822E+02  0.57122043765E+02  0.68112192133E+02  0.41800000000E+01 0. -1.
         -5    1    4    4    0  502 -0.68907166777E+02 -0.75604776144E+02  0.23955146536E+03  0.26051229677E+03  0.41800000000E+01 0. -1.
        -11    1    3    3    0    0  0.41473605047E+02  0.12476730546E+02  0.64342466797E+02  0.77560826157E+02  0.00000000000E+00 0. -1.
         11    1    3    3    0    0  0.58828831759E+01  0.33220877776E+02 -0.25093687725E+02  0.42046738260E+02  0.00000000000E+00 0.  1.
</event>
<event>
 8    1  0.5900800E-006  0.1442984E+03  0.7561462E-02  0.1207659E+00
         -2   -1    0    0    0  501 -0.00000000000E+00  0.00000000000E+00  0.47787831265E+02  0.47787831265E+02  0.00000000000E+00 0.  1.
          2   -1    0    0  501    0  0.00000000000E+00 -0.00000000000E+00 -0.92007184269E+03  0.92007184269E+03  0.00000000000E+00 0. -1.
         23    2    1    2    0    0 -0.12556345675E+03 -0.17249220796E+02 -0.13385852140E+03  0.20826524972E+03  0.96915391965E+02 0.  0.
         23    2    1    2    0    0  0.12556345675E+03  0.17249220796E+02 -0.73842549003E+03  0.75959442424E+03  0.12509103776E+03 0.  0.
          5    1    4    4  502    0  0.10169674859E+03 -0.55332326104E+01 -0.24922363555E+03  0.26926332512E+03  0.41800000000E+01 0. -1.
         -5    1    4    4    0  502  0.23866708152E+02  0.22782453406E+02 -0.48920185447E+03  0.49033109912E+03  0.41800000000E+01 0. -1.
        -11    1    3    3    0    0 -0.46103211241E+02 -0.49504709215E+02 -0.31188444254E+02  0.74491216772E+02  0.00000000000E+00 0.  1.
         11    1    3    3    0    0 -0.79460245506E+02  0.32255488419E+02 -0.10267007715E+03  0.13377403294E+03  0.00000000000E+00 0. -1.
</event>
<event>
 8    1  0.5900800E-006  0.1077020E+03  0.7561462E-02  0.1264886E+00
          2   -1    0    0  501    0  0.00000000000E+00  0.00000000000E+00  0.28679739616E+03  0.28679739616E+03  0.00000000000E+00 0. -1.
         -2   -1    0    0    0  501 -0.00000000000E+00 -0.00000000000E+00 -0.50456135501E+02  0.50456135501E+02  0.00000000000E+00 0.  1.
         23    2    1    2    0    0  0.18400143742E+02  0.69756834086E+01  0.33544173517E+02  0.98168945951E+02  0.90137145081E+02 0.  0.
         23    2    1    2    0    0 -0.18400143742E+02 -0.69756834086E+01  0.20279708714E+03  0.23908458571E+03  0.12509018795E+03 0.  0.
          5    1    4    4  502    0 -0.69678681318E+02 -0.14077419933E+02  0.88887714948E+02  0.11389376915E+03  0.41800000000E+01 0. -1.
         -5    1    4    4    0  502  0.51278537575E+02  0.71017365249E+01  0.11390937219E+03  0.12519081656E+03  0.41800000000E+01 0. -1.
        -11    1    3    3    0    0  0.54422020566E+02  0.12436277550E+02  0.19995134826E+02  0.59297746487E+02  0.00000000000E+00 0.  1.
         11    1    3    3    0    0 -0.36021876824E+02 -0.54605941415E+01  0.13549038691E+02  0.38871199463E+02  0.00000000000E+00 0. -1.
</event>
<event>
 8    1  0.5900800E-006  0.1502186E+03  0.7561462E-02  0.1200205E+00
         -2   -1    0    0    0  501 -0.00000000000E+00  0.00000000000E+00  0.25631696651E+03  0.25631696651E+03  0.00000000000E+00 0.  1.
          2   -1    0    0  501    0  0.00000000000E+00 -0.00000000000E+00 -0.92364065470E+02  0.92364065470E+02  0.00000000000E+00 0. -1.
         23    2    1    2    0    0 -0.52878055610E+02  0.92557545319E+02  0.99448754119E+02  0.17212773375E+03  0.91514556596E+02 0.  0.
         23    2    1    2    0    0  0.52878055610E+02 -0.92557545319E+02  0.64504146926E+02  0.17655329824E+03  0.12508914496E+03 0.  0.
          5    1    4    4  502    0 -0.41140023595E+02 -0.25016664726E+02  0.15263047516E+02  0.50683015645E+02  0.41800000000E+01 0. -1.
         -5    1    4    4    0  502  0.94018079205E+02 -0.67540880593E+02  0.49241099410E+02  0.12587028259E+03  0.41800000000E+01 0. -1.
        -11    1    3    3    0    0 -0.66789202892E+02  0.10018210611E+03  0.99604157613E+02  0.15626336814E+03  0.00000000000E+00 0.  1.
         11    1    3    3    0    0  0.13911147283E+02 -0.76245607917E+01 -0.15540349417E+00  0.15864365611E+02  0.00000000000E+00 0. -1.
</event>
<event>
 8    1  0.5900800E-006  0.1995839E+03  0.7561462E-02  0.1150091E+00
          2   -1    0    0  501    0  0.00000000000E+00  0.00000000000E+00  0.85061783393E+02  0.85061783393E+02  0.00000000000E+00 0. -1.
         -2   -1    0    0    0  501 -0.00000000000E+00 -0.00000000000E+00 -0.55126181721E+03  0.55126181721E+03  0.00000000000E+00 0.  1.
         23    2    1    2    0    0  0.13758235148E+03 -0.10779611060E+03 -0.32015448117E+03  0.37646951169E+03  0.93174548643E+02 0.  0.
         23    2    1    2    0    0 -0.13758235148E+03  0.10779611060E+03 -0.14604555264E+03  0.25985408891E+03  0.12508372867E+03 0.  0.
          5    1    4    4  502    0 -0.93203152612E+02  0.13362399637E+03 -0.11792346267E+03  0.20116067088E+03  0.41800000000E+01 0. -1.
         -5    1    4    4    0  502 -0.44379198872E+02 -0.25827885765E+02 -0.28122089971E+02  0.58693418029E+02  0.41800000000E+01 0. -1.
        -11    1    3    3    0    0  0.66845566540E+02 -0.89330165103E+02 -0.12232829085E+03  0.16556696200E+03  0.00000000000E+00 0. -1.
         11    1    3    3    0    0  0.70736784944E+02 -0.18465945500E+02 -0.19782619033E+03  0.21090254969E+03  0.00000000000E+00 0.  1.
</event>
<event>
 8    1  0.5900800E-006  0.1286314E+03  0.7561462E-02  0.1229501E+00
          2   -1    0    0  501    0  0.00000000000E+00  0.00000000000E+00  0.14343156273E+04  0.14343156273E+04  0.00000000000E+00 0.  1.
         -2   -1    0    0    0  501 -0.00000000000E+00 -0.00000000000E+00 -0.17944169159E+02  0.17944169159E+02  0.00000000000E+00 0. -1.
         23    2    1    2    0    0  0.83283065287E+02 -0.43314254364E+01  0.27984680949E+03  0.30583432067E+03  0.90915151169E+02 0.  0.
         23    2    1    2    0    0 -0.83283065287E+02  0.43314254364E+01  0.11365246487E+04  0.11464254758E+04  0.12509302268E+03 0.  0.
          5    1    4    4  502    0 -0.10514981988E+03 -0.23320963020E+02  0.98083776167E+03  0.98674238738E+03  0.41800000000E+01 0.  1.
         -5    1    4    4    0  502  0.21866754593E+02  0.27652388457E+02  0.15568688700E+03  0.15968308842E+03  0.41800000000E+01 0.  1.
        -11    1    3    3    0    0 -0.11804606562E+02 -0.14098888859E+02  0.13378924622E+02  0.22740339205E+02  0.00000000000E+00 0. -1.
         11    1    3    3    0    0  0.95087671848E+02  0.97674634224E+01  0.26646788486E+03  0.28309398147E+03  0.00000000000E+00 0.  1.
</event>
<event>
 8    1  0.5900800E-006  0.9412963E+02  0.7561462E-02  0.1293149E+00
         -1   -1    0    0    0  501 -0.00000000000E+00  0.00000000000E+00  0.56847359024E+02  0.56847359024E+02  0.00000000000E+00 0.  1.
          1   -1    0    0  501    0  0.00000000000E+00 -0.00000000000E+00 -0.21384738546E+03  0.21384738546E+03  0.00000000000E+00 0. -1.
         23    2    1    2    0    0 -0.56327269435E+01  0.11561441359E+02 -0.41734441745E+02  0.10011029506E+03  0.90082811954E+02 0.  0.
         23    2    1    2    0    0  0.56327269435E+01 -0.11561441359E+02 -0.11526558470E+03  0.17058444943E+03  0.12508998694E+03 0.  0.
          5    1    4    4  502    0  0.44504370846E+02  0.29582149904E+02 -0.97238682730E+02  0.11103412285E+03  0.41800000000E+01 0.  1.
         -5    1    4    4    0  502 -0.38871643902E+02 -0.41143591264E+02 -0.18026901966E+02  0.59550326584E+02  0.41800000000E+01 0.  1.
        -11    1    3    3    0    0 -0.15499369795E+02  0.42599773764E+02  0.22415842973E+01  0.45387177583E+02  0.00000000000E+00 0.  1.
         11    1    3    3    0    0  0.98666428517E+01 -0.31038332404E+02 -0.43976026042E+02  0.54723117474E+02  0.00000000000E+00 0. -1.
</event>
<event>
 8    1  0.5900800E-006  0.1786076E+03  0.7561462E-02  0.1169157E+00
          1   -1    0    0  501    0  0.00000000000E+00  0.00000000000E+00  0.31240462574E+02  0.31240462574E+02  0.00000000000E+00 0. -1.
         -1   -1    0    0    0  501 -0.00000000000E+00 -0.00000000000E+00 -0.13282827606E+04  0.13282827606E+04  0.00000000000E+00 0.  1.
         23    2    1    2    0    0 -0.87758032813E+02  0.11223339986E+03 -0.94308247698E+03  0.95798358499E+03  0.89611284744E+02 0.  0.
         23    2    1    2    0    0  0.87758032813E+02 -0.11223339986E+03 -0.35395982109E+03  0.40153963823E+03  0.12509483505E+03 0.  0.
          5    1    4    4  502    0  0.29296499765E+02 -0.12583919460E+03 -0.24897529923E+03  0.28053513118E+03  0.41800000000E+01 0. -1.
         -5    1    4    4    0  502  0.58461533048E+02  0.13605794748E+02 -0.10498452186E+03  0.12100450705E+03  0.41800000000E+01 0. -1.
        -11    1    3    3    0    0 -0.95395980855E+02  0.55167546085E+02 -0.65476589390E+03  0.66397456813E+03  0.00000000000E+00 0.  1.
         11    1    3    3    0    0  0.76379480425E+01  0.57065853770E+02 -0.28831658308E+03  0.29400901686E+03  0.00000000000E+00 0. -1.
</event>
<event>
 8    1  0.5900800E-006  0.1178728E+03  0.7561462E-02  0.1246648E+00
          1   -1    0    0  501    0  0.00000000000E+00  0.00000000000E+00  0.11963508461E+03  0.11963508461E+03  0.00000000000E+00 0. -1.
         -1   -1    0    0    0  501 -0.00000000000E+00 -0.00000000000E+00 -0.13629493034E+03  0.13629493034E+03  0.00000000000E+00 0.  1.
         23    2    1    2    0    0  0.61077194729E+02 -0.28405503277E+02 -0.13518128401E+02  0.11382482918E+03  0.90752716820E+02 0.  0.
         23    2    1    2    0    0 -0.61077194729E+02  0.28405503277E+02 -0.31417173291E+01  0.14210518577E+03  0.12508683825E+03 0.  0.
          5    1    4    4  502    0 -0.48025632470E+02  0.76992027050E+02  0.49725003415E+01  0.90974896334E+02  0.41800000000E+01 0. -1.
         -5    1    4    4    0  502 -0.13051562259E+02 -0.48586523773E+02 -0.81142176705E+01  0.51130289439E+02  0.41800000000E+01 0. -1.
        -11    1    3    3    0    0  0.60229507753E+01 -0.38056958200E+02 -0.36795457593E+02  0.53277703619E+02  0.00000000000E+00 0.  1.
         11    1    3    3    0    0  0.55054243954E+02  0.96514549233E+01  0.23277329192E+02  0.60547125562E+02  0.00000000000E+00 0. -1.
</event>
<event>
 8    1  0.5900800E-006  0.1081126E+03  0.7561462E-02  0.1264105E+00
         -2   -1    0    0    0  501 -0.00000000000E+00  0.00000000000E+00  0.58645760707E+02  0.58645760707E+02  0.00000000000E+00 0.  1.
          2   -1    0    0  501    0  0.00000000000E+00 -0.00000000000E+00 -0.28909360091E+03  0.28909360091E+03  0.00000000000E+00 0. -1.
         23    2    1    2    0    0  0.47011445160E+02  0.15087854029E+02 -0.38905304843E+02  0.11370363829E+03  0.94747956709E+02 0.  0.
         23    2    1    2    0    0 -0.47011445160E+02 -0.15087854029E+02 -0.19154253536E+03  0.23403572332E+03  0.12508580105E+03 0.  0.
          5    1    4    4  502    0 -0.76517815224E+02 -0.14866410388E+01 -0.56880544860E+02  0.95446607755E+02  0.41800000000E+01 0.  1.
         -5    1    4    4    0  502  0.29506370064E+02 -0.13601212990E+02 -0.13466199050E+03  0.13858911557E+03  0.41800000000E+01 0.  1.
        -11    1    3    3    0    0  0.14741050921E+02  0.54168691069E+02 -0.19357471952E+02  0.59382298665E+02  0.00000000000E+00 0.  1.
         11    1    3    3    0    0  0.32270394239E+02 -0.39080837040E+02 -0.19547832890E+02  0.54321339626E+02  0.00000000000E+00 0. -1.
</event>
<event>
 8    1  0.5900800E-006  0.1354671E+03  0.7561462E-02  0.1219562E+00
          2   -1    0    0  501    0  0.00000000000E+00  0.00000000000E+00  0.56525163790E+03  0.56525163790E+03  0.00000000000E+00 0. -1.
         -2   -1    0    0    0  501 -0.00000000000E+00 -0.00000000000E+00 -0.36720283065E+02  0.36720283065E+02  0.00000000000E+00 0.  1.
         23    2    1    2    0    0  0.84928329133E+02 -0.20947903216E+02  0.16523853866E+03  0.20791373901E+03  0.90954452744E+02 0.  0.
         23    2    1    2    0    0 -0.84928329133E+02  0.20947903216E+02  0.36329281618E+03  0.39405818195E+03  0.12509414350E+03 0.  0.
          5    1    4    4  502    0  0.29632127499E+02 -0.48167487980E+01  0.40792652946E+02  0.50821028949E+02  0.41800000000E+01 0. -1.
         -5    1    4    4    0  502 -0.11456045663E+03  0.25764652014E+02  0.32250016323E+03  0.34323715300E+03  0.41800000000E+01 0. -1.
        -11    1    3    3    0    0  0.33934035631E+02 -0.52973569877E+02  0.61574178374E+02  0.88028957293E+02  0.00000000000E+00 0.  1.
         11    1    3    3    0    0  0.50994293502E+02  0.32025666661E+02  0.10366436029E+03  0.11988478172E+03  0.00000000000E+00 0. -1.
</event>
<event>
 8    1  0.5900800E-006  0.1441620E+03  0.7561462E-02  0.1207836E+00
         -2   -1    0    0    0  501 -0.00000000000E+00  0.00000000000E+00  0.33772975387E+02  0.33772975387E+02  0.00000000000E+00 0.  1.
          2   -1    0    0  501    0  0.00000000000E+00 -0.00000000000E+00 -0.80271333773E+03  0.80271333773E+03  0.00000000000E+00 0. -1.
         23    2    1    2    0    0 -0.11058794108E+03 -0.52657166752E+02 -0.32957433293E+03  0.36352460632E+03  0.92349491315E+02 0.  0.
         23    2    1    2    0    0  0.11058794108E+03  0.52657166752E+02 -0.43936602941E+03  0.47296170680E+03  0.12509116027E+03 0.  0.
          5    1    4    4  502    0  0.12666596469E+02  0.32313776358E+02 -0.16956618264E+02  0.38853855814E+02  0.41800000000E+01 0. -1.
         -5    1    4    4    0  502  0.97921344613E+02  0.20343390394E+02 -0.42240941115E+03  0.43410785099E+03  0.41800000000E+01 0. -1.
        -11    1    3    3    0    0 -0.99316539240E+01 -0.51658631269E+02 -0.10604959377E+03  0.11837976293E+03  0.00000000000E+00 0. -1.
         11    1    3    3    0    0 -0.10065628716E+03 -0.99853548318E+00 -0.22352473916E+03  0.24514484338E+03  0.00000000000E+00 0.  1.
</event>
<event>
 8    1  0.5900800E-006  0.1149538E+03  0.7561462E-02  0.1251662E+00
          3   -1    0    0  501    0  0.00000000000E+00  0.00000000000E+00  0.85304158738E+02  0.85304158738E+02  0.00000000000E+00 0. -1.
         -3   -1    0    0    0  501 -0.00000000000E+00 -0.00000000000E+00 -0.18951221124E+03  0.18951221124E+03  0.00000000000E+00 0.  1.
         23    2    1    2    0    0 -0.37879907779E+02  0.23147300252E+02 -0.98142991778E+02  0.13874397594E+03  0.87448036584E+02 0.  0.
         23    2    1    2    0    0  0.37879907779E+02 -0.23147300252E+02 -0.60650607288E+01  0.13607239404E+03  0.12848434355E+03 0.  0.
          5    1    4    4  502    0  0.11108572054E+02 -0.75255379289E+02 -0.11667994882E+02  0.77073906022E+02  0.41800000000E+01 0. -1.
         -5    1    4    4    0  502  0.26771335726E+02  0.52108079037E+02  0.56029341527E+01  0.58998488019E+02  0.41800000000E+01 0.  1.
        -11    1    3    3    0    0 -0.30291525768E+00 -0.29944400905E+02 -0.15953334552E+02  0.33930337259E+02  0.00000000000E+00 0. -1.
         11    1    3    3    0    0 -0.37576992522E+02  0.53091701157E+02 -0.82189657226E+02  0.10481363868E+03  0.00000000000E+00 0.  1.
</event>
<event>
 7    1  0.5900800E-006  0.1027202E+03  0.7561462E-02  0.1274678E+00
         -1   -1    0    0    0  501 -0.00000000000E+00  0.00000000000E+00  0.87620669694E+02  0.87620669694E+02  0.00000000000E+00 0.  1.
          1   -1    0    0  501    0  0.00000000000E+00 -0.00000000000E+00 -0.21210477568E+03  0.21210477568E+03  0.00000000000E+00 0. -1.
         23    2    1    2    0    0 -0.52973102717E+00 -0.46999860790E+02  0.12975643312E+02  0.10127357692E+03  0.88762055703E+02 0.  0.
          5    1    1    2  502    0 -0.49385919229E+02  0.68603755237E+02 -0.60139299390E+02  0.10382510285E+03  0.41800000000E+01 0. -1.
         -5    1    1    2    0  502  0.49915650256E+02 -0.21603894447E+02 -0.77320449908E+02  0.94626765610E+02  0.41800000000E+01 0.  1.
        -11    1    3    3    0    0 -0.13657785938E+02 -0.50787745120E+02  0.43228574856E+02  0.68078189277E+02  0.00000000000E+00 0.  1.
         11    1    3    3    0    0  0.13128054910E+02  0.37878843308E+01 -0.30252931544E+02  0.33195387638E+02  0.00000000000E+00 0. -1.
</event>
<event>
 8    1  0.5900800E-006  0.1139407E+03  0.7561462E-02  0.1253442E+00
          1   -1    0    0  501    0  0.00000000000E+00  0.00000000000E+00  0.33190194808E+02  0.33190194808E+02  0.00000000000E+00 0. -1.
         -1   -1    0    0    0  501 -0.00000000000E+00 -0.00000000000E+00 -0.39731050783E+03  0.39731050783E+03  0.00000000000E+00 0.  1.
         23    2    1    2    0    0 -0.33078256773E+02 -0.11925815107E+02 -0.18034849990E+03  0.20543011341E+03  0.91867044921E+02 0.  0.
         23    2    1    2    0    0  0.33078256773E+02  0.11925815107E+02 -0.18377181312E+03  0.22507058923E+03  0.12509314410E+03 0.  0.
          5    1    4    4  502    0  0.74202487428E+02 -0.20694213817E+02 -0.10411566397E+03  0.12958319146E+03  0.41800000000E+01 0. -1.
         -5    1    4    4    0  502 -0.41124230655E+02  0.32620028923E+02 -0.79656149154E+02  0.95487397765E+02  0.41800000000E+01 0. -1.
        -11    1    3    3    0    0 -0.40692113580E+02  0.33073843358E+02 -0.10424178167E+03  0.11668794397E+03  0.00000000000E+00 0. -1.
         11    1    3    3    0    0  0.76138568066E+01 -0.44999658464E+02 -0.76106718227E+02  0.88742169438E+02  0.00000000000E+00 0.  1.
</event>
<event>
 8    1  0.5900800E-006  0.1487783E+03  0.7561462E-02  0.1201982E+00
         -2   -1    0    0    0  501 -0.00000000000E+00  0.00000000000E+00  0.32050881195E+03  0.32050881195E+03  0.00000000000E+00 0.  1.
          2   -1    0    0  501    0  0.00000000000E+00 -0.00000000000E+00 -0.81796707465E+02  0.81796707465E+02  0.00000000000E+00 0. -1.
         23    2    1    2    0    0 -0.83668264458E+02 -0.77724809310E+02  0.15838466868E+03  0.21484384956E+03  0.89613904962E+02 0.  0.
         23    2    1    2    0    0  0.83668264458E+02  0.77724809310E+02  0.80327435802E+02  0.18746166985E+03  0.12509139163E+03 0.  0.
          5    1    4    4  502    0 -0.26650778246E+02  0.58936160969E+01 -0.81529824192E+01  0.28791356588E+02  0.41800000000E+01 0. -1.
         -5    1    4    4    0  502  0.11031904270E+03  0.71831193213E+02  0.88480418221E+02  0.15867031326E+03  0.41800000000E+01 0. -1.
        -11    1    3    3    0    0 -0.59062352411E+02 -0.25310022521E+01  0.10128048134E+03  0.11727106781E+03  0.00000000000E+00 0. -1.
         11    1    3    3    0    0 -0.24605912048E+02 -0.75193807058E+02  0.57104187342E+02  0.97572781756E+02  0.00000000000E+00 0.  1.
</event>
<event>
 8    1  0.5900800E-006  0.8860778E+02  0.7561462E-02  0.1306259E+00
          2   -1    0    0  501    0  0.00000000000E+00  0.00000000000E+00  0.82296666443E+02  0.82296666443E+02  0.00000000000E+00 0. -1.
         -2   -1    0    0    0  501 -0.00000000000E+00 -0.00000000000E+00 -0.43081186150E+03  0.43081186150E+03  0.00000000000E+00 0.  1.
         23    2    1    2    0    0 -0.38928477887E+02 -0.49649693917E+02 -0.35579781794E+03  0.37282088969E+03  0.91775868548E+02 0.  0.
         23    2    1    2    0    0  0.38928477887E+02  0.49649693917E+02  0.72826228742E+01  0.14028763825E+03  0.12508823428E+03 0.  0.
          5    1    4    4  502    0  0.10613364629E+02  0.35777195847E+01  0.62059816846E+02  0.63200766239E+02  0.41800000000E+01 0. -1.
         -5    1    4    4    0  502  0.28315113258E+02  0.46071974332E+02 -0.54777193972E+02  0.77086872015E+02  0.41800000000E+01 0. -1.
        -11    1    3    3    0    0 -0.25464446506E+02 -0.76694321878E+02 -0.27159453935E+03  0.28336204907E+03  0.00000000000E+00 0.  1.
         11    1    3    3    0    0 -0.13464031381E+02  0.27044627961E+02 -0.84203278582E+02  0.89458840628E+02  0.00000000000E+00 0. -1.
</event>
<event>
 8    1  0.5900800E-006  0.1146513E+03  0.7561462E-02  0.1252191E+00
          2   -1    0    0  501    0  0.00000000000E+00  0.00000000000E+00  0.36567955261E+03  0.36567955261E+03  0.00000000000E+00 0. -1.
         -2   -1    0    0    0  501 -0.00000000000E+00 -0.00000000000E+00 -0.50257236660E+02  0.50257236660E+02  0.00000000000E+00 0.  1.
         23    2    1    2    0    0 -0.74573272116E+02  0.31200128537E+02  0.11338579893E+03  0.16494862722E+03  0.88414304773E+02 0.  0.
         23    2    1    2    0    0  0.74573272116E+02 -0.31200128537E+02  0.20203651702E+03  0.25098816205E+03  0.12506671157E+03 0.  0.
          5    1    4    4  502    0 -0.17889587169E+02  0.63448179162E+01 -0.58953278223E+01  0.20310621202E+02  0.41800000000E+01 0. -1.
         -5    1    4    4    0  502  0.92462859285E+02 -0.37544946453E+02  0.20793184484E+03  0.23067754085E+03  0.41800000000E+01 0. -1.
        -11    1    3    3    0    0 -0.89593061038E+02  0.21605873349E+02  0.11462819604E+03  0.14708281231E+03  0.00000000000E+00 0. -1.
         11    1    3    3    0    0  0.15019788922E+02  0.95942551878E+01 -0.12423971108E+01  0.17865814912E+02  0.00000000000E+00 0.  1.
</event>
<event>
 8    1  0.5900800E-006  0.1047911E+03  0.7561462E-02  0.1270532E+00
          1   -1    0    0  501    0  0.00000000000E+00  0.00000000000E+00  0.18334381642E+03  0.18334381642E+03  0.00000000000E+00 0. -1.
         -1   -1    0    0    0  501 -0.00000000000E+00 -0.00000000000E+00 -0.74240033960E+02  0.74240033960E+02  0.00000000000E+00 0.  1.
         23    2    1    2    0    0  0.20465711576E+02  0.42599268445E+01  0.52035949120E+01  0.93633392398E+02  0.91121580566E+02 0.  0.
         23    2    1    2    0    0 -0.20465711576E+02 -0.42599268445E+01  0.10390018755E+03  0.16395045798E+03  0.12509001308E+03 0.  0.
          5    1    4    4  502    0 -0.25218654125E+02 -0.62848826883E+02  0.53392121041E+02  0.86337399462E+02  0.41800000000E+01 0.  1.
         -5    1    4    4    0  502  0.47529425490E+01  0.58588900039E+02  0.50508066504E+02  0.77613058519E+02  0.41800000000E+01 0.  1.
        -11    1    3    3    0    0  0.36461131758E+02 -0.28545765872E+02 -0.18770652035E+02  0.49966111076E+02  0.00000000000E+00 0.  1.
         11    1    3    3    0    0 -0.15995420182E+02  0.32805692716E+02  0.23974246947E+02  0.43667281322E+02  0.00000000000E+00 0. -1.
</event>
<event>
 8    1  0.5900800E-006  0.1372296E+03  0.7561462E-02  0.1217106E+00
         -2   -1    0    0    0  501 -0.00000000000E+00  0.00000000000E+00  0.23602035963E+02  0.23602035963E+02  0.00000000000E+00 0.  1.
          2   -1    0    0  501    0  0.00000000000E+00 -0.00000000000E+00 -0.11353405666E+04  0.11353405666E+04  0.00000000000E+00 0. -1.
         23    2    1    2    0    0 -0.58614193017E+02  0.94881575095E+02 -0.33586148006E+03  0.36517254592E+03  0.90055080859E+02 0.  0.
         23    2    1    2    0    0  0.58614193017E+02 -0.94881575095E+02 -0.77587705056E+03  0.79377005662E+03  0.12509024062E+03 0.  0.
          5    1    4    4  502    0 -0.23364092624E+02 -0.89725935841E+01 -0.36971327804E+03  0.37058301178E+03  0.41800000000E+01 0. -1.
         -5    1    4    4    0  502  0.81978285641E+02 -0.85908981511E+02 -0.40616377252E+03  0.42318704485E+03  0.41800000000E+01 0. -1.
        -11    1    3    3    0    0 -0.40759369746E+02  0.79616177911E+01 -0.18962945193E+03  0.19412378169E+03  0.00000000000E+00 0. -1.
         11    1    3    3    0    0 -0.17854823271E+02  0.86919957304E+02 -0.14623202814E+03  0.17104876423E+03  0.00000000000E+00 0.  1.
</event>
<event>
 8    1  0.5900800E-006  0.8441520E+02  0.7561462E-02  0.1316969E+00
         -1   -1    0    0    0  501 -0.00000000000E+00  0.00000000000E+00  0.19975606206E+02  0.19975606206E+02  0.00000000000E+00 0.  1.
          1   -1    0    0  501    0  0.00000000000E+00 -0.00000000000E+00 -0.64398051412E+03  0.64398051412E+03  0.00000000000E+00 0. -1.
         23    2    1    2    0    0  0.31670095176E+02  0.58835361381E+01 -0.23106802899E+03  0.25033208812E+03  0.90753013148E+02 0.  0.
         23    2    1    2    0    0 -0.31670095176E+02 -0.58835361381E+01 -0.39293687892E+03  0.41362403221E+03  0.12509131974E+03 0.  0.
          5    1    4    4  502    0  0.33446026199E+02  0.39822989013E+01 -0.31810296412E+02  0.46517337960E+02  0.41800000000E+01 0. -1.
         -5    1    4    4    0  502 -0.65116121375E+02 -0.98658350394E+01 -0.36112658251E+03  0.36710669425E+03  0.41800000000E+01 0. -1.
        -11    1    3    3    0    0  0.36043249379E+02 -0.20964006400E+02 -0.21442856733E+03  0.21844499509E+03  0.00000000000E+00 0. -1.
         11    1    3    3    0    0 -0.43731542031E+01  0.26847542538E+02 -0.16639461663E+02  0.31887093039E+02  0.00000000000E+00 0.  1.
</event>
<event>
 8    1  0.5900800E-006  0.1126312E+03  0.7561462E-02  0.1255773E+00
          3   -1    0    0  501    0  0.00000000000E+00  0.00000000000E+00  0.95386452604E+02  0.95386452604E+02  0.00000000000E+00 0. -1.
         -3   -1    0    0    0  501 -0.00000000000E+00 -0.00000000000E+00 -0.19526846914E+03  0.19526846914E+03  0.00000000000E+00 0.  1.
         23    2    1    2    0    0 -0.49031759224E+02  0.45541507151E+02 -0.96584011305E+02  0.14875127334E+03  0.91215830838E+02 0.  0.
         23    2    1    2    0    0  0.49031759224E+02 -0.45541507151E+02 -0.32980052296E+01  0.14190364840E+03  0.12509047248E+03 0.  0.
          5    1    4    4  502    0  0.33304807951E+02  0.36983144243E+02 -0.23803219396E+02  0.55326565449E+02  0.41800000000E+01 0.  1.
         -5    1    4    4    0  502  0.15726951273E+02 -0.82524651394E+02  0.20505214166E+02  0.86577082950E+02  0.41800000000E+01 0.  1.
        -11    1    3    3    0    0 -0.15857202883E+02 -0.15217999225E+02 -0.72015591076E+02  0.75294646168E+02  0.00000000000E+00 0.  1.
         11    1    3    3    0    0 -0.33174556342E+02  0.60759506375E+02 -0.24568420230E+02  0.73456627176E+02  0.00000000000E+00 0. -1.
</event>
<event>
 8    1  0.5900800E-006  0.6297300E+02  0.7561462E-02  0.1385763E+00
         -2   -1    0    0    0  501 -0.00000000000E+00  0.00000000000E+00  0.28499664961E+02  0.28499664961E+02  0.00000000000E+00 0.  1.
          2   -1    0    0  501    0  0.00000000000E+00 -0.00000000000E+00 -0.58713929626E+03  0.58713929626E+03  0.00000000000E+00 0. -1.
         23    2    1    2    0    0  0.49108809041E+02  0.65872016769E+01 -0.12578503435E+03  0.16235499372E+03  0.89901072125E+02 0.  0.
         23    2    1    2    0    0 -0.49108809041E+02 -0.65872016769E+01 -0.43285459696E+03  0.45328396750E+03  0.12509271257E+03 0.  0.
          5    1    4    4  502    0 -0.48325957380E+02  0.17646203407E+02 -0.42400787221E+03  0.42713807457E+03  0.41800000000E+01 0.  1.
         -5    1    4    4    0  502 -0.78285166077E+00 -0.24233405084E+02 -0.88467247494E+01  0.26145892937E+02  0.41800000000E+01 0.  1.
        -11    1    3    3    0    0  0.22537583130E+02  0.51336656778E+01  0.91210626534E+01  0.24849365396E+02  0.00000000000E+00 0.  1.
         11    1    3    3    0    0  0.26571225910E+02  0.14535359991E+01 -0.13490609700E+03  0.13750562833E+03  0.00000000000E+00 0. -1.
</event>
<event>
 8    1  0.5900800E-006  0.1185648E+03  0.7561462E-02  0.1245484E+00
         -2   -1    0    0    0  501 -0.00000000000E+00  0.00000000000E+00  0.33868892597E+02  0.33868892597E+02  0.00000000000E+00 0.  1.
          2   -1    0    0  501    0  0.00000000000E+00 -0.00000000000E+00 -0.47618678983E+03  0.47618678983E+03  0.00000000000E+00 0. -1.
         23    2    1    2    0    0 -0.18288084685E+02  0.56253073629E+02 -0.13738157367E+03  0.17519352636E+03  0.91215199163E+02 0.  0.
         23    2    1    2    0    0  0.18288084685E+02 -0.56253073629E+02 -0.30493632356E+03  0.33486215607E+03  0.12509052645E+03 0.  0.
          5    1    4    4  502    0  0.60557353882E+02 -0.60536464343E+02 -0.25573564586E+03  0.26972217111E+03  0.41800000000E+01 0.  1.
         -5    1    4    4    0  502 -0.42269269197E+02  0.42833907136E+01 -0.49200677701E+02  0.65139984961E+02  0.41800000000E+01 0.  1.
        -11    1    3    3    0    0  0.22537051714E+02  0.63380209982E+02 -0.85830754175E+02  0.10904993388E+03  0.00000000000E+00 0.  1.
         11    1    3    3    0    0 -0.40825136399E+02 -0.71271363532E+01 -0.51550819496E+02  0.66143592474E+02  0.00000000000E+00 0. -1.
</event>
<event>
 8    1  0.5900800E-006  0.1440955E+03  0.7561462E-02  0.1207922E+00
         -2   -1    0    0    0  501 -0.00000000000E+00  0.00000000000E+00  0.17565117107E+03  0.17565117107E+03  0.00000000000E+00 0.  1.
          2   -1    0    0  501    0  0.00000000000E+00 -0.00000000000E+00 -0.22825429310E+03  0.22825429310E+03  0.00000000000E+00 0. -1.
         23    2    1    2    0    0 -0.93855376215E+02 -0.43392440415E+02  0.10854878254E+03  0.17519204763E+03  0.90651419353E+02 0.  0.
         23    2    1    2    0    0  0.93855376215E+02  0.43392440415E+02 -0.16115190458E+03  0.22871341654E+03  0.12509258582E+03 0.  0.
          5    1    4    4  502    0 -0.22755524558E+02  0.37467545264E+02 -0.58260232345E+02  0.73029842660E+02  0.41800000000E+01 0.  1.
         -5    1    4    4    0  502  0.11661090077E+03  0.59248951508E+01 -0.10289167223E+03  0.15568357388E+03  0.41800000000E+01 0.  1.
        -11    1    3    3    0    0 -0.10670899448E+03 -0.36817857339E+02  0.67142857080E+02  0.13134126304E+03  0.00000000000E+00 0. -1.
         11    1    3    3    0    0  0.12853618262E+02 -0.65745830756E+01  0.41405925463E+02  0.43850784582E+02  0.00000000000E+00 0.  1.
</event>
<event>
 8    1  0.5900800E-006  0.2938846E+03  0.7561462E-02  0.1088338E+00
          2   -1    0    0  501    0  0.00000000000E+00  0.00000000000E+00  0.17394916728E+03  0.17394916728E+03  0.00000000000E+00 0. -1.
         -2   -1    0    0    0  501 -0.00000000000E+00 -0.00000000000E+00 -0.63200962901E+03  0.63200962901E+03  0.00000000000E+00 0.  1.
         23    2    1    2    0    0 -0.18473107990E+03 -0.21304536020E+03 -0.39033379343E+03  0.49012917989E+03  0.91390619378E+02 0.  0.
         23    2    1    2    0    0  0.18473107990E+03  0.21304536020E+03 -0.67726668310E+02  0.31582961639E+03  0.12509015792E+03 0.  0.
          5    1    4    4  502    0  0.12214054331E+03  0.55082930164E+02 -0.33801903458E+01  0.13409451742E+03  0.41800000000E+01 0. -1.
         -5    1    4    4    0  502  0.62590536590E+02  0.15796243003E+03 -0.64346477964E+02  0.18173509897E+03  0.41800000000E+01 0. -1.
        -11    1    3    3    0    0 -0.73555099155E+02 -0.61962518355E+02 -0.70136465117E+02  0.11903289475E+03  0.00000000000E+00 0.  1.
         11    1    3    3    0    0 -0.11117598074E+03 -0.15108284184E+03 -0.32019732831E+03  0.37109628515E+03  0.00000000000E+00 0. -1.
</event>
<event>
 8    1  0.5900800E-006  0.1186739E+03  0.7561462E-02  0.1245301E+00
         -1   -1    0    0    0  501 -0.00000000000E+00  0.00000000000E+00  0.23262387588E+03  0.23262387588E+03  0.00000000000E+00 0.  1.
          1   -1    0    0  501    0  0.00000000000E+00 -0.00000000000E+00 -0.72548720171E+02  0.72548720171E+02  0.00000000000E+00 0. -1.
         23    2    1    2    0    0  0.34285361024E+02 -0.41235424189E+02  0.12511536792E+03  0.16465504081E+03  0.92636823057E+02 0.  0.
         23    2    1    2    0    0 -0.34285361024E+02  0.41235424189E+02  0.34959787788E+02  0.14051755524E+03  0.12508857014E+03 0.  0.
          5    1    4    4  502    0  0.33119173677E+02 -0.20288871172E+02 -0.74972798896E+01  0.39776872228E+02  0.41800000000E+01 0. -1.
         -5    1    4    4    0  502 -0.67404534700E+02  0.61524295362E+02  0.42457067678E+02  0.10074068301E+03  0.41800000000E+01 0. -1.
        -11    1    3    3    0    0  0.66396473209E+02 -0.25023203485E+02  0.86547240082E+02  0.11191549103E+03  0.00000000000E+00 0. -1.
         11    1    3    3    0    0 -0.32111112185E+02 -0.16212220705E+02  0.38568127839E+02  0.52739549780E+02  0.00000000000E+00 0.  1.
</event>
<event>
 7    1  0.5900800E-006  0.9478468E+02  0.7561462E-02  0.1291662E+00
          1   -1    0    0  501    0  0.00000000000E+00  0.00000000000E+00  0.57844374586E+03  0.57844374586E+03  0.00000000000E+00 0. -1.
         -1   -1    0    0    0  501 -0.00000000000E+00 -0.00000000000E+00 -0.73280609503E+02  0.73280609503E+02  0.00000000000E+00 0.  1.
         23    2    1    2    0    0 -0.80531545998E+02 -0.19979800340E+02 -0.67618216495E+00  0.12314855465E+03  0.90997730558E+02 0.  0.
          5    1    1    2  502    0  0.47081307435E+02  0.39367829677E+02  0.47493813470E+03  0.47890518865E+03  0.41800000000E+01 0. -1.
         -5    1    1    2    0  502  0.33450238564E+02 -0.19388029336E+02  0.30901183823E+02  0.49670612068E+02  0.41800000000E+01 0.  1.
        -11    1    3    3    0    0 -0.42716462807E+02 -0.27238560342E+02 -0.42623920878E+02  0.66207507092E+02  0.00000000000E+00 0.  1.
         11    1    3    3    0    0 -0.37815083191E+02  0.72587600019E+01  0.41947738713E+02  0.56941047555E+02  0.00000000000E+00 0. -1.
</event>
<event>
 8    1  0.5900800E-006  0.2109989E+03  0.7561462E-02  0.1140777E+00
         -2   -1    0    0    0  501 -0.00000000000E+00  0.00000000000E+00  0.12708254286E+03  0.12708254286E+03  0.00000000000E+00 0.  1.
          2   -1    0    0  501    0  0.00000000000E+00 -0.00000000000E+00 -0.40100167905E+03  0.40100167905E+03  0.00000000000E+00 0. -1.
         23    2    1    2    0    0  0.15192465041E+03 -0.12569306560E+03 -0.13157611421E+03  0.25460788528E+03  0.92914236115E+02 0.  0.
         23    2    1    2    0    0 -0.15192465041E+03  0.12569306560E+03 -0.14234302197E+03  0.27347633663E+03  0.12509166499E+03 0.  0.
          5    1    4    4  502    0 -0.11497016254E+03  0.32172448176E+02 -0.12209588409E+03  0.17081593020E+03  0.41800000000E+01 0. -1.
         -5    1    4    4    0  502 -0.36954487872E+02  0.93520617425E+02 -0.20247137880E+02  0.10266040644E+03  0.41800000000E+01 0. -1.
        -11    1    3    3    0    0  0.15614010581E+02  0.12022217808E+01  0.11773872444E+02  0.19592517346E+02  0.00000000000E+00 0.  1.
         11    1    3    3    0    0  0.13631063983E+03 -0.12689528738E+03 -0.14334998666E+03  0.23501536794E+03  0.00000000000E+00 0. -1.
</event>
<event>
 8    1  0.5900800E-006  0.9391356E+02  0.7561462E-02  0.1293642E+00
         -2   -1    0    0    0  501 -0.00000000000E+00  0.00000000000E+00  0.12272398023E+03  0.12272398023E+03  0.00000000000E+00 0.  1.
          2   -1    0    0  501    0  0.00000000000E+00 -0.00000000000E+00 -0.98420288085E+02  0.98420288085E+02  0.00000000000E+00 0. -1.
         23    2    1    2    0    0 -0.19556178180E+02 -0.51001151428E+01  0.70216464520E+01  0.93253024314E+02  0.90765454582E+02 0.  0.
         23    2    1    2    0    0  0.19556178180E+02  0.51001151428E+01  0.17282045692E+02  0.12789124400E+03  0.12509614666E+03 0.  0.
          5    1    4    4  502    0  0.72753103076E+02  0.26149274766E+01  0.50806891268E+01  0.73096769113E+02  0.41800000000E+01 0. -1.
         -5    1    4    4    0  502 -0.53196924896E+02  0.24851876661E+01  0.12201356566E+02  0.54794474887E+02  0.41800000000E+01 0. -1.
        -11    1    3    3    0    0 -0.32966119889E+02  0.15877836300E+02  0.38502770148E+02  0.53116231561E+02  0.00000000000E+00 0.  1.
         11    1    3    3    0    0  0.13409941709E+02 -0.20977951443E+02 -0.31481123697E+02  0.40136792754E+02  0.00000000000E+00 0. -1.
</event>
<event>
 8    1  0.5900800E-006  0.9439029E+02  0.7561462E-02  0.1292555E+00
          2   -1    0    0  501    0  0.00000000000E+00  0.00000000000E+00  0.94390326553E+03  0.94390326553E+03  0.00000000000E+00 0. -1.
         -2   -1    0    0    0  501 -0.00000000000E+00 -0.00000000000E+00 -0.16909526592E+02  0.16909526592E+02  0.00000000000E+00 0.  1.
         23    2    1    2    0    0 -0.62682572830E+01 -0.11715067942E+00  0.17605968674E+03  0.19950843530E+03  0.93633849046E+02 0.  0.
         23    2    1    2    0    0  0.62682572830E+01  0.11715067942E+00  0.75093405220E+03  0.76130435683E+03  0.12507225189E+03 0.  0.
          5    1    4    4  502    0  0.53296240521E+02  0.18885464052E+02  0.19561743995E+03  0.20366837069E+03  0.41800000000E+01 0. -1.
         -5    1    4    4    0  502 -0.47027983238E+02 -0.18768313373E+02  0.55531661225E+03  0.55763598614E+03  0.41800000000E+01 0. -1.
        -11    1    3    3    0    0 -0.33897455649E+02 -0.26535868882E+02  0.42145004206E+02  0.60244428923E+02  0.00000000000E+00 0.  1.
         11    1    3    3    0    0  0.27629198366E+02  0.26418718202E+02  0.13391468253E+03  0.13926400638E+03  0.00000000000E+00 0. -1.
</event>
<event>
 8    1  0.5900800E-006  0.9641550E+02  0.7561462E-02  0.1288019E+00
          2   -1    0    0  501    0  0.00000000000E+00  0.00000000000E+00  0.11391753212E+04  0.11391753212E+04  0.00000000000E+00 0. -1.
         -2   -1    0    0    0  501 -0.00000000000E+00 -0.00000000000E+00 -0.14629823426E+02  0.14629823426E+02  0.00000000000E+00 0.  1.
         23    2    1    2    0    0 -0.53897520962E+01  0.22357171766E+02  0.19935702367E+03  0.21991549553E+03  0.89948372602E+02 0.  0.
         23    2    1    2    0    0  0.53897520962E+01 -0.22357171766E+02  0.92518847411E+03  0.93388964910E+03  0.12508905429E+03 0.  0.
          5    1    4    4  502    0  0.34633992831E+01 -0.60985135913E+02  0.80997984055E+03  0.81229058620E+03  0.41800000000E+01 0. -1.
         -5    1    4    4    0  502  0.19263528131E+01  0.38627964148E+02  0.11520863357E+03  0.12159906290E+03  0.41800000000E+01 0. -1.
        -11    1    3    3    0    0 -0.41582709552E+02  0.35014501820E+02  0.11094257323E+03  0.12354509957E+03  0.00000000000E+00 0.  1.
         11    1    3    3    0    0  0.36192957456E+02 -0.12657330054E+02  0.88414450434E+02  0.96370395968E+02  0.00000000000E+00 0. -1.
</event>
<event>
 8    1  0.5900800E-006  0.8651893E+02  0.7561462E-02  0.1311507E+00
         -2   -1    0    0    0  501 -0.00000000000E+00  0.00000000000E+00  0.26899923722E+02  0.26899923722E+02  0.00000000000E+00 0.  1.
          2   -1    0    0  501    0  0.00000000000E+00 -0.00000000000E+00 -0.62155244235E+03  0.62155244235E+03  0.00000000000E+00 0. -1.
         23    2    1    2    0    0 -0.12866272715E+02 -0.22679984400E+02 -0.98178178526E+02  0.13579583980E+03  0.90120101539E+02 0.  0.
         23    2    1    2    0    0  0.12866272715E+02  0.22679984400E+02 -0.49647434010E+03  0.51265652627E+03  0.12510004351E+03 0.  0.
          5    1    4    4  502    0 -0.29811154132E+02 -0.15190483641E+02 -0.39280066231E+03  0.39424521356E+03  0.41800000000E+01 0.  1.
         -5    1    4    4    0  502  0.42677426848E+02  0.37870468041E+02 -0.10367367779E+03  0.11841131272E+03  0.41800000000E+01 0.  1.
        -11    1    3    3    0    0 -0.48017177847E+01 -0.51734223735E+02 -0.27128454848E+02  0.58612622033E+02  0.00000000000E+00 0.  1.
         11    1    3    3    0    0 -0.80645549308E+01  0.29054239335E+02 -0.71049723678E+02  0.77183217763E+02  0.00000000000E+00 0. -1.
</event>
<event>
 8    1  0.5900800E-006  0.1386234E+03  0.7561462E-02  0.1215193E+00
          2   -1    0    0  501    0  0.00000000000E+00  0.00000000000E+00  0.17779229596E+03  0.17779229596E+03  0.00000000000E+00 0. -1.
         -2   -1    0    0    0  501 -0.00000000000E+00 -0.00000000000E+00 -0.11494396462E+03  0.11494396462E+03  0.00000000000E+00 0.  1.
         23    2    1    2    0    0 -0.87262039236E+02  0.25377146018E+02  0.42293155817E+01  0.12737901200E+03  0.89156393808E+02 0.  0.
         23    2    1    2    0    0  0.87262039236E+02 -0.25377146018E+02  0.58619015760E+02  0.16535724857E+03  0.12509263614E+03 0.  0.
          5    1    4    4  502    0  0.89054301603E+02 -0.67761475216E+02  0.41630543401E+02  0.11946907843E+03  0.41800000000E+01 0.  1.
         -5    1    4    4    0  502 -0.17922623672E+01  0.42384329197E+02  0.16988472359E+02  0.45888170142E+02  0.41800000000E+01 0.  1.
        -11    1    3    3    0    0 -0.81738646279E+02  0.51054749905E+02  0.17504213353E+02  0.97949942667E+02  0.00000000000E+00 0. -1.
         11    1    3    3    0    0 -0.55233929571E+01 -0.25677603887E+02 -0.13274897772E+02  0.29429069336E+02  0.00000000000E+00 0.  1.
</event>
<event>
 8    1  0.5900800E-006  0.1445194E+03  0.7561462E-02  0.1207374E+00
         -2   -1    0    0    0  501 -0.00000000000E+00  0.00000000000E+00  0.76261192126E+02  0.76261192126E+02  0.00000000000E+00 0.  1.
          2   -1    0    0  501    0  0.00000000000E+00 -0.00000000000E+00 -0.42094180743E+03  0.42094180743E+03  0.00000000000E+00 0. -1.
         23    2    1    2    0    0 -0.11051056201E+03  0.61847924120E+02 -0.72109281992E+02  0.17165888296E+03  0.90715343340E+02 0.  0.
         23    2    1    2    0    0  0.11051056201E+03 -0.61847924120E+02 -0.27257133331E+03  0.32554411659E+03  0.12508433183E+03 0.  0.
          5    1    4    4  502    0  0.38322097537E+02 -0.44822496931E+02 -0.20213605546E+02  0.62479609793E+02  0.41800000000E+01 0. -1.
         -5    1    4    4    0  502  0.72188464474E+02 -0.17025427189E+02 -0.25235772776E+03  0.26306450680E+03  0.41800000000E+01 0. -1.
        -11    1    3    3    0    0 -0.91726310424E+02  0.85522875336E+02 -0.55122188110E+02  0.13699026919E+03  0.00000000000E+00 0. -1.
         11    1    3    3    0    0 -0.18784251587E+02 -0.23674951216E+02 -0.16987093881E+02  0.34668613778E+02  0.00000000000E+00 0.  1.
</event>
<event>
 8    1  0.5900800E-006  0.1051228E+03  0.7561462E-02  0.1269878E+00
         -1   -1    0    0    0  501 -0.00000000000E+00  0.00000000000E+00  0.39921639872E+02  0.39921639872E+02  0.00000000000E+00 0.  1.
          1   -1    0    0  501    0  0.00000000000E+00 -0.00000000000E+00 -0.34190680026E+03  0.34190680026E+03  0.00000000000E+00 0. -1.
         23    2    1    2    0    0  0.11220932674E+02  0.38181401452E+02 -0.13668872313E+03  0.17074966491E+03  0.94275724824E+02 0.  0.
         23    2    1    2    0    0 -0.11220932674E+02 -0.38181401452E+02 -0.16529643726E+03  0.21107877521E+03  0.12509040103E+03 0.  0.
          5    1    4    4  502    0  0.50652421571E+00 -0.72667494056E+02 -0.15762511800E+03  0.17362019319E+03  0.41800000000E+01 0. -1.
         -5    1    4    4    0  502 -0.11727456890E+02  0.34486092603E+02 -0.76713192592E+01  0.37458582025E+02  0.41800000000E+01 0. -1.
        -11    1    3    3    0    0 -0.35032104481E+02 -0.74526582137E+01 -0.63304279138E+02  0.72733913796E+02  0.00000000000E+00 0. -1.
         11    1    3    3    0    0  0.46253037155E+02  0.45634059666E+02 -0.73384443989E+02  0.98015751118E+02  0.00000000000E+00 0.  1.
</event>
<event>
 8    1  0.5900800E-006  0.1106519E+03  0.7561462E-02  0.1259367E+00
         -2   -1    0    0    0  501 -0.00000000000E+00  0.00000000000E+00  0.14992521592E+02  0.14992521592E+02  0.00000000000E+00 0.  1.
          2   -1    0    0  501    0  0.00000000000E+00 -0.00000000000E+00 -0.10024883519E+04  0.10024883519E+04  0.00000000000E+00 0. -1.
         23    2    1    2    0    0  0.44858412126E+02 -0.86477925182E+01 -0.27216425855E+03  0.28985833822E+03  0.88642039400E+02 0.  0.
         23    2    1    2    0    0 -0.44858412126E+02  0.86477925182E+01 -0.71533157179E+03  0.72762253530E+03  0.12509290480E+03 0.  0.
          5    1    4    4  502    0 -0.83706522554E+02 -0.15192157987E+02 -0.39845085756E+03  0.40745323888E+03  0.41800000000E+01 0. -1.
         -5    1    4    4    0  502  0.38848110427E+02  0.23839950505E+02 -0.31688071423E+03  0.32016929642E+03  0.41800000000E+01 0. -1.
        -11    1    3    3    0    0  0.36841924146E+02  0.32077263298E+02 -0.84007427668E+02  0.97177806617E+02  0.00000000000E+00 0.  1.
         11    1    3    3    0    0  0.80164879803E+01 -0.40725055816E+02 -0.18815683089E+03  0.19268053161E+03  0.00000000000E+00 0. -1.
</event>
<event>
 8    1  0.5900800E-006  0.3366394E+03  0.7561462E-02  0.1068236E+00
         -2   -1    0    0    0  501 -0.00000000000E+00  0.00000000000E+00  0.89281431202E+03  0.89281431202E+03  0.00000000000E+00 0.  1.
          2   -1    0    0  501    0  0.00000000000E+00 -0.00000000000E+00 -0.13505825517E+03  0.13505825517E+03  0.00000000000E+00 0. -1.
         23    2    1    2    0    0  0.30455912027E+03  0.12122313142E+03  0.32504144964E+03  0.47079037532E+03  0.92413895998E+02 0.  0.
         23    2    1    2    0    0 -0.30455912027E+03 -0.12122313142E+03  0.43271460720E+03  0.55708219187E+03  0.12508929562E+03 0.  0.
          5    1    4    4  502    0 -0.20148853973E+03 -0.11058815193E+03  0.37087840849E+03  0.43634348543E+03  0.41800000000E+01 0. -1.
         -5    1    4    4    0  502 -0.10307058054E+03 -0.10634979493E+02  0.61836198710E+02  0.12073870644E+03  0.41800000000E+01 0. -1.
        -11    1    3    3    0    0  0.89729951839E+02  0.81516777539E+02  0.13243419581E+03  0.17954182103E+03  0.00000000000E+00 0.  1.
         11    1    3    3    0    0  0.21482916843E+03  0.39706353883E+02  0.19260725383E+03  0.29124855429E+03  0.00000000000E+00 0. -1.
</event>
<event>
 8    1  0.5900800E-006  0.8218601E+02  0.7561462E-02  0.1322960E+00
         -2   -1    0    0    0  501 -0.00000000000E+00  0.00000000000E+00  0.83894407513E+02  0.83894407513E+02  0.00000000000E+00 0.  1.
          2   -1    0    0  501    0  0.00000000000E+00 -0.00000000000E+00 -0.27612373512E+03  0.27612373512E+03  0.00000000000E+00 0. -1.
         23    2    1    2    0    0  0.93481697084E+00  0.74670727254E+02 -0.15203400318E+00  0.11894092786E+03  0.92576075822E+02 0.  0.
         23    2    1    2    0    0 -0.93481697084E+00 -0.74670727254E+02 -0.19207729360E+03  0.24107721477E+03  0.12509174782E+03 0.  0.
          5    1    4    4  502    0  0.77452833881E+01 -0.12108668333E+02  0.16986239274E+02  0.22640980284E+02  0.41800000000E+01 0. -1.
         -5    1    4    4    0  502 -0.86801003590E+01 -0.62562058921E+02 -0.20906353287E+03  0.21843623449E+03  0.41800000000E+01 0. -1.
        -11    1    3    3    0    0  0.13522712803E+02  0.36931199063E+01  0.35757204830E+02  0.38406777962E+02  0.00000000000E+00 0.  1.
         11    1    3    3    0    0 -0.12587895832E+02  0.70977607348E+02 -0.35909238833E+02  0.80534149898E+02  0.00000000000E+00 0. -1.
</event>
<event>
 8    1  0.5900800E-006  0.6913830E+02  0.7561462E-02  0.1363048E+00
          2   -1    0    0  501    0  0.00000000000E+00  0.00000000000E+00  0.88220283246E+03  0.88220283246E+03  0.00000000000E+00 0. -1.
         -2   -1    0    0    0  501 -0.00000000000E+00 -0.00000000000E+00 -0.14961343749E+02  0.14961343749E+02  0.00000000000E+00 0.  1.
         23    2    1    2    0    0 -0.12630173675E+02  0.36242922286E+02  0.30760493119E+03  0.32243489440E+03  0.88715256473E+02 0.  0.
         23    2    1    2    0    0  0.12630173675E+02 -0.36242922286E+02  0.55963655752E+03  0.57472928181E+03  0.12509036794E+03 0.  0.
          5    1    4    4  502    0  0.17631637643E+02 -0.20664473127E+02  0.18053637520E+02  0.32883146493E+02  0.41800000000E+01 0. -1.
         -5    1    4    4    0  502 -0.50014639677E+01 -0.15578449159E+02  0.54158292000E+03  0.54184613532E+03  0.41800000000E+01 0. -1.
        -11    1    3    3    0    0 -0.45730365845E+02  0.39787478786E+02  0.23270743373E+03  0.24047257544E+03  0.00000000000E+00 0. -1.
         11    1    3    3    0    0  0.33100192170E+02 -0.35445564999E+01  0.74897497461E+02  0.81962318955E+02  0.00000000000E+00 0.  1.
</event>
<event>
 8    1  0.5900800E-006  0.8889026E+02  0.7561462E-02  0.1305562E+00
         -1   -1    0    0    0  501 -0.00000000000E+00  0.00000000000E+00  0.16080422048E+03  0.16080422048E+03  0.00000000000E+00 0.  1.
          1   -1    0    0  501    0  0.00000000000E+00 -0.00000000000E+00 -0.79909941006E+02  0.79909941006E+02  0.00000000000E+00 0. -1.
         23    2    1    2    0    0 -0.35908131580E+01 -0.10307265204E+02  0.68011918642E+02  0.11449374857E+03  0.91455255340E+02 0.  0.
         23    2    1    2    0    0  0.35908131580E+01  0.10307265204E+02  0.12882360830E+02  0.12622041291E+03  0.12508598547E+03 0.  0.
          5    1    4    4  502    0 -0.44716166666E+02 -0.23450104341E+02  0.36656807035E+02  0.62535085007E+02  0.41800000000E+01 0.  1.
         -5    1    4    4    0  502  0.48306979823E+02  0.33757369545E+02 -0.23774446205E+02  0.63685327907E+02  0.41800000000E+01 0.  1.
        -11    1    3    3    0    0  0.29195216306E+02 -0.18079403739E+02  0.72769321402E+02  0.80464896893E+02  0.00000000000E+00 0.  1.
         11    1    3    3    0    0 -0.32786029464E+02  0.77721385356E+01 -0.47574027603E+01  0.34028851677E+02  0.00000000000E+00 0. -1.
</event>
<event>
 8    1  0.5900800E-006  0.1433693E+03  0.7561462E-02  0.1208866E+00
          2   -1    0    0  501    0  0.00000000000E+00  0.00000000000E+00  0.60810314583E+03  0.60810314583E+03  0.00000000000E+00 0. -1.
         -2   -1    0    0    0  501 -0.00000000000E+00 -0.00000000000E+00 -0.63861958795E+02  0.63861958795E+02  0.00000000000E+00 0.  1.
         23    2    1    2    0    0  0.10656469829E+03  0.67202647112E+02  0.79622575272E+02  0.17458220847E+03  0.90922837183E+02 0.  0.
         23    2    1    2    0    0 -0.10656469829E+03 -0.67202647112E+02  0.46461861177E+03  0.49738289616E+03  0.12508821002E+03 0.  0.
          5    1    4    4  502    0 -0.18300081644E+02 -0.60934213632E+02  0.77993127378E+02  0.10073863061E+03  0.41800000000E+01 0.  1.
         -5    1    4    4    0  502 -0.88264616649E+02 -0.62684334809E+01  0.38662548439E+03  0.39664426555E+03  0.41800000000E+01 0.  1.
        -11    1    3    3    0    0  0.60230442625E+02  0.10453391266E+02 -0.65443329748E+01  0.61480142337E+02  0.00000000000E+00 0.  1.
         11    1    3    3    0    0  0.46334255668E+02  0.56749255846E+02  0.86166908247E+02  0.11310206614E+03  0.00000000000E+00 0. -1.
</event>
<event>
 8    1  0.5900800E-006  0.2122961E+03  0.7561462E-02  0.1139760E+00
         -1   -1    0    0    0  501 -0.00000000000E+00  0.00000000000E+00  0.53952203684E+03  0.53952203684E+03  0.00000000000E+00 0.  1.
          1   -1    0    0  501    0  0.00000000000E+00 -0.00000000000E+00 -0.88247030514E+02  0.88247030514E+02  0.00000000000E+00 0. -1.
         23    2    1    2    0    0  0.16445071214E+03 -0.86892033892E+02  0.26266138038E+03  0.33482483363E+03  0.92316879245E+02 0.  0.
         23    2    1    2    0    0 -0.16445071214E+03  0.86892033892E+02  0.18861362594E+03  0.29294423372E+03  0.12508781677E+03 0.  0.
          5    1    4    4  502    0 -0.10814855024E+03  0.11449916074E+03  0.15765450007E+03  0.22288692317E+03  0.41800000000E+01 0. -1.
         -5    1    4    4    0  502 -0.56302161899E+02 -0.27607126848E+02  0.30959125876E+02  0.70057310556E+02  0.41800000000E+01 0. -1.
        -11    1    3    3    0    0  0.26923233585E+02 -0.57596584215E+02  0.11165662571E+03  0.12848902320E+03  0.00000000000E+00 0.  1.
         11    1    3    3    0    0  0.13752747855E+03 -0.29295449678E+02  0.15100475468E+03  0.20633581043E+03  0.00000000000E+00 0. -1.
</event>
<event>
 8    1  0.5900800E-006  0.9006474E+02  0.7561462E-02  0.1302695E+00
          1   -1    0    0  501    0  0.00000000000E+00  0.00000000000E+00  0.12469299202E+03  0.12469299202E+03  0.00000000000E+00 0. -1.
         -1   -1    0    0    0  501 -0.00000000000E+00 -0.00000000000E+00 -0.98234678004E+02  0.98234678004E+02  0.00000000000E+00 0.  1.
         23    2    1    2    0    0 -0.12158108153E+02 -0.14226964891E+02 -0.48482478483E+01  0.92626894786E+02  0.90587030013E+02 0.  0.
         23    2    1    2    0    0  0.12158108153E+02  0.14226964891E+02  0.31306561869E+02  0.13030077524E+03  0.12509182663E+03 0.  0.
          5    1    4    4  502    0  0.33981708668E+02  0.50055103715E+02  0.55059875961E+02  0.81910513811E+02  0.41800000000E+01 0.  1.
         -5    1    4    4    0  502 -0.21823600515E+02 -0.35828138825E+02 -0.23753314093E+02  0.48390261432E+02  0.41800000000E+01 0.  1.
        -11    1    3    3    0    0  0.15333157782E+02 -0.38002806745E+02  0.22859112731E+02  0.46923960648E+02  0.00000000000E+00 0. -1.
         11    1    3    3    0    0 -0.27491265935E+02  0.23775841854E+02 -0.27707360579E+02  0.45702934138E+02  0.00000000000E+00 0.  1.
</event>
<event>
 8    1  0.5900800E-006  0.9496729E+02  0.7561462E-02  0.1291250E+00
         -2   -1    0    0    0  501 -0.00000000000E+00  0.00000000000E+00  0.22915214321E+02  0.22915214321E+02  0.00000000000E+00 0.  1.
          2   -1    0    0  501    0  0.00000000000E+00 -0.00000000000E+00 -0.53283914286E+03  0.53283914286E+03  0.00000000000E+00 0. -1.
         23    2    1    2    0    0  0.82700644844E+01 -0.23398564633E+02 -0.24413721662E+03  0.26095647139E+03  0.88766055606E+02 0.  0.
         23    2    1    2    0    0 -0.82700644844E+01  0.23398564633E+02 -0.26578671192E+03  0.29479788579E+03  0.12508928987E+03 0.  0.
          5    1    4    4  502    0  0.15989134805E+02  0.55926146095E+02 -0.23896406737E+03  0.24597699921E+03  0.41800000000E+01 0.  1.
         -5    1    4    4    0  502 -0.24259199289E+02 -0.32527581461E+02 -0.26822644557E+02  0.48820886584E+02  0.41800000000E+01 0.  1.
        -11    1    3    3    0    0 -0.79448891336E+01  0.32067804244E+02 -0.11115847346E+03  0.11596409597E+03  0.00000000000E+00 0. -1.
         11    1    3    3    0    0  0.16214953618E+02 -0.55466368878E+02 -0.13297874316E+03  0.14499237542E+03  0.00000000000E+00 0.  1.
</event>
<event>
 8    1  0.5900800E-006  0.6357573E+02  0.7561462E-02  0.1383411E+00
         -2   -1    0    0    0  501 -0.00000000000E+00  0.00000000000E+00  0.97668327067E+02  0.97668327067E+02  0.00000000000E+00 0.  1.
          2   -1    0    0  501    0  0.00000000000E+00 -0.00000000000E+00 -0.15250703508E+03  0.15250703508E+03  0.00000000000E+00 0. -1.
         23    2    1    2    0    0  0.29006779795E+02 -0.36159816807E+01  0.25771888658E+02  0.98530293104E+02  0.90496186752E+02 0.  0.
         23    2    1    2    0    0 -0.29006779795E+02  0.36159816807E+01 -0.80610596668E+02  0.15164506904E+03  0.12507473794E+03 0.  0.
          5    1    4    4  502    0 -0.46345340090E+02  0.75417668182E+01 -0.10850579193E+03  0.11830362665E+03  0.41800000000E+01 0.  1.
         -5    1    4    4    0  502  0.17338560294E+02 -0.39257851375E+01  0.27895195264E+02  0.33341442393E+02  0.41800000000E+01 0.  1.
        -11    1    3    3    0    0  0.36649154360E+02 -0.21366508736E+02 -0.21427895553E+02  0.47527286043E+02  0.00000000000E+00 0. -1.
         11    1    3    3    0    0 -0.76423745642E+01  0.17750527055E+02  0.47199784211E+02  0.51003007061E+02  0.00000000000E+00 0.  1.
</event>
<event>
 8    1  0.5900800E-006  0.1144863E+03  0.7561462E-02  0.1252480E+00
         -3   -1    0    0    0  501 -0.00000000000E+00  0.00000000000E+00  0.16470523933E+02  0.16470523933E+02  0.00000000000E+00 0.  1.
          3   -1    0    0  501    0  0.00000000000E+00 -0.00000000000E+00 -0.15013741891E+04  0.15013741891E+04  0.00000000000E+00 0. -1.
         23    2    1    2    0    0  0.13441201092E+02 -0.95907595321E+02 -0.39897750519E+03  0.42045368336E+03  0.90660451575E+02 0.  0.
         23    2    1    2    0    0 -0.13441201092E+02  0.95907595321E+02 -0.10859261600E+04  0.10973910297E+04  0.12511000899E+03 0.  0.
          5    1    4    4  502    0 -0.37446129084E+02  0.27335709644E+02 -0.11977125625E+03  0.12849933785E+03  0.41800000000E+01 0. -1.
         -5    1    4    4    0  502  0.24004927992E+02  0.68571885676E+02 -0.96615490371E+03  0.96889169180E+03  0.41800000000E+01 0. -1.
        -11    1    3    3    0    0 -0.19718351836E+02 -0.30533218551E+02 -0.39911561365E+02  0.53981696572E+02  0.00000000000E+00 0.  1.
         11    1    3    3    0    0  0.33159552928E+02 -0.65374376770E+02 -0.35906594382E+03  0.36647198679E+03  0.00000000000E+00 0. -1.
</event>
<event>
 8    1  0.5900800E-006  0.2031875E+03  0.7561462E-02  0.1147077E+00
         -2   -1    0    0    0  501 -0.00000000000E+00  0.00000000000E+00  0.18924792811E+03  0.18924792811E+03  0.00000000000E+00 0.  1.
          2   -1    0    0  501    0  0.00000000000E+00 -0.00000000000E+00 -0.22753232585E+03  0.22753232585E+03  0.00000000000E+00 0. -1.
         23    2    1    2    0    0  0.14795416802E+02 -0.17680800688E+03 -0.18002575121E+01  0.19664065756E+03  0.84760436661E+02 0.  0.
         23    2    1    2    0    0 -0.14795416802E+02  0.17680800688E+03 -0.36484140231E+02  0.22013959640E+03  0.12510145387E+03 0.  0.
          5    1    4    4  502    0  0.48594927776E+02  0.12496129275E+03 -0.12602596085E+02  0.13473340164E+03  0.41800000000E+01 0. -1.
         -5    1    4    4    0  502 -0.63390344579E+02  0.51846714134E+02 -0.23881544146E+02  0.85406194758E+02  0.41800000000E+01 0. -1.
        -11    1    3    3    0    0 -0.25435389810E+02 -0.10383368860E+03  0.23695426759E+02  0.10949825201E+03  0.00000000000E+00 0.  1.
         11    1    3    3    0    0  0.40230806612E+02 -0.72974318276E+02 -0.25495684271E+02  0.87142405550E+02  0.00000000000E+00 0. -1.
</event>
<event>
 8    1  0.5900800E-006  0.1232531E+03  0.7561462E-02  0.1237825E+00
          2   -1    0    0  501    0  0.00000000000E+00  0.00000000000E+00  0.57170748350E+02  0.57170748350E+02  0.00000000000E+00 0. -1.
         -2   -1    0    0    0  501 -0.00000000000E+00 -0.00000000000E+00 -0.36817646736E+03  0.36817646736E+03  0.00000000000E+00 0.  1.
         23    2    1    2    0    0  0.10391987673E+03 -0.13831245671E+02 -0.12481304162E+03  0.17774987535E+03  0.70894842500E+02 0.  0.
         23    2    1    2    0    0 -0.10391987673E+03  0.13831245671E+02 -0.18619267739E+03  0.24759734036E+03  0.12508431438E+03 0.  0.
          5    1    4    4  502    0 -0.96528126110E+02 -0.26707788260E+02 -0.17956673792E+03  0.20565181947E+03  0.41800000000E+01 0.  1.
         -5    1    4    4    0  502 -0.73917506172E+01  0.40539033930E+02 -0.66259394775E+01  0.41945520895E+02  0.41800000000E+01 0.  1.
        -11    1    3    3    0    0  0.91160115775E+02 -0.11676457724E+02 -0.13356340820E+03  0.16212862296E+03  0.00000000000E+00 0.  1.
         11    1    3    3    0    0  0.12759760953E+02 -0.21547879464E+01  0.87503665874E+01  0.15621252385E+02  0.00000000000E+00 0. -1.
</event>
<event>
 8    1  0.3298035E-005  0.2312150E+03  0.7561462E-02  0.1125788E+00
         -2   -1    0    0    0  501 -0.00000000000E+00  0.00000000000E+00  0.34789112832E+02  0.34789112832E+02  0.00000000000E+00 0.  1.
          2   -1    0    0  501    0  0.00000000000E+00 -0.00000000000E+00 -0.17470110479E+04  0.17470110479E+04  0.00000000000E+00 0. -1.
         23    2    1    2    0    0  0.94430920616E+02 -0.18979036841E+03 -0.58358757462E+03  0.62663756286E+03  0.84632116989E+02 0.  0.
         23    2    1    2    0    0 -0.94430920616E+02  0.18979036841E+03 -0.11286343605E+04  0.11551625979E+04  0.12509006846E+03 0.  0.
          5    1    4    4  502    0 -0.77936420717E+02  0.27186252240E+02 -0.38023010101E+03  0.38910869959E+03  0.41800000000E+01 0. -1.
         -5    1    4    4    0  502 -0.16494499900E+02  0.16260411617E+03 -0.74840425945E+03  0.76605389829E+03  0.41800000000E+01 0. -1.
        -11    1    3    3    0    0  0.10654856460E+02 -0.65758475589E+02 -0.97935045174E+02  0.11844397896E+03  0.00000000000E+00 0.  1.
         11    1    3    3    0    0  0.83776064156E+02 -0.12403189282E+03 -0.48565252945E+03  0.50819358391E+03  0.00000000000E+00 0. -1.
</event>
<event>
 8    1  0.5900800E-006  0.2711089E+03  0.7561462E-02  0.1100647E+00
         -2   -1    0    0    0  501 -0.00000000000E+00  0.00000000000E+00  0.82975083254E+02  0.82975083254E+02  0.00000000000E+00 0.  1.
          2   -1    0    0  501    0  0.00000000000E+00 -0.00000000000E+00 -0.90789078100E+03  0.90789078100E+03  0.00000000000E+00 0. -1.
         23    2    1    2    0    0 -0.67361912965E+02  0.24315562110E+03 -0.42356640632E+03  0.50056914785E+03  0.86594964215E+02 0.  0.
         23    2    1    2    0    0  0.67361912965E+02 -0.24315562110E+03 -0.40134929143E+03  0.49029671641E+03  0.12508930011E+03 0.  0.
          5    1    4    4  502    0  0.28762789622E+02 -0.23864633334E+03 -0.32203655786E+03  0.40187608473E+03  0.41800000000E+01 0. -1.
         -5    1    4    4    0  502  0.38599123343E+02 -0.45092877540E+01 -0.79312733578E+02  0.88420631679E+02  0.41800000000E+01 0. -1.
        -11    1    3    3    0    0 -0.79652194497E+02  0.16071396037E+03 -0.24638335697E+03  0.30475926194E+03  0.00000000000E+00 0. -1.
         11    1    3    3    0    0  0.12290281532E+02  0.82441660722E+02 -0.17718304934E+03  0.19580988590E+03  0.00000000000E+00 0.  1.
</event>
<event>
 8    1  0.5900800E-006  0.1287927E+03  0.7561462E-02  0.1229258E+00
          3   -1    0    0  501    0  0.00000000000E+00  0.00000000000E+00  0.53508793605E+03  0.53508793605E+03  0.00000000000E+00 0. -1.
         -3   -1    0    0    0  501 -0.00000000000E+00 -0.00000000000E+00 -0.52906251106E+02  0.52906251106E+02  0.00000000000E+00 0.  1.
         23    2    1    2    0    0 -0.15458523625E+02  0.12221930256E+03  0.25981932344E+03  0.30467556730E+03  0.10072038823E+03 0.  0.
         23    2    1    2    0    0  0.15458523625E+02 -0.12221930256E+03  0.22236236151E+03  0.28331861986E+03  0.12509155316E+03 0.  0.
          5    1    4    4  502    0 -0.10652216538E+02 -0.65271606899E+02  0.16775304000E+02  0.68357410781E+02  0.41800000000E+01 0. -1.
         -5    1    4    4    0  502  0.26110740163E+02 -0.56947695666E+02  0.20558705751E+03  0.21496120908E+03  0.41800000000E+01 0. -1.
        -11    1    3    3    0    0 -0.24961811696E+02  0.52108786332E+02  0.21086769200E+03  0.21864034666E+03  0.00000000000E+00 0.  1.
         11    1    3    3    0    0  0.95032880710E+01  0.70110516233E+02  0.48951631435E+02  0.86035220641E+02  0.00000000000E+00 0. -1.
</event>
<event>
 8    1  0.5900800E-006  0.1155954E+03  0.7561462E-02  0.1250545E+00
         -1   -1    0    0    0  501 -0.00000000000E+00  0.00000000000E+00  0.17916494895E+02  0.17916494895E+02  0.00000000000E+00 0.  1.
          1   -1    0    0  501    0  0.00000000000E+00 -0.00000000000E+00 -0.82744337271E+03  0.82744337271E+03  0.00000000000E+00 0. -1.
         23    2    1    2    0    0 -0.43568619251E+02 -0.29598494380E+02 -0.29163097298E+03  0.30997498130E+03  0.90893174551E+02 0.  0.
         23    2    1    2    0    0  0.43568619251E+02  0.29598494380E+02 -0.51789590483E+03  0.53538488630E+03  0.12508602153E+03 0.  0.
          5    1    4    4  502    0 -0.41355075094E+02  0.52545382757E+00 -0.23216438436E+03  0.23585650744E+03  0.41800000000E+01 0. -1.
         -5    1    4    4    0  502  0.84923694345E+02  0.29073040553E+02 -0.28573152047E+03  0.29952837886E+03  0.41800000000E+01 0. -1.
        -11    1    3    3    0    0 -0.11166850859E+01 -0.51829422132E+02 -0.19951105863E+03  0.20613635900E+03  0.00000000000E+00 0. -1.
         11    1    3    3    0    0 -0.42451934166E+02  0.22230927751E+02 -0.92119914347E+02  0.10383862231E+03  0.00000000000E+00 0.  1.
</event>
<event>
 7    1  0.5900800E-006  0.1041582E+03  0.7561462E-02  0.1271787E+00
          2   -1    0    0  501    0  0.00000000000E+00  0.00000000000E+00  0.59550227527E+02  0.59550227527E+02  0.00000000000E+00 0. -1.
         -2   -1    0    0    0  501 -0.00000000000E+00 -0.00000000000E+00 -0.25029543289E+03  0.25029543289E+03  0.00000000000E+00 0.  1.
         23    2    1    2    0    0  0.84532184542E+02 -0.44752745420E+01 -0.12272741166E+03  0.19461092888E+03  0.12508268370E+03 0.  0.
          5    1    3    3  502    0  0.38038140826E+02 -0.43869597601E+02 -0.77858274219E+00  0.58219587274E+02  0.41800000000E+01 0.  1.
         -5    1    3    3    0  502  0.46494043716E+02  0.39394323059E+02 -0.12194882892E+03  0.13639134161E+03  0.41800000000E+01 0.  1.
        -11    1    1    2    0    0 -0.31507177231E+02 -0.11657376495E+02 -0.42618438706E+02  0.54267190470E+02  0.00000000000E+00 0.  1.
         11    1    1    2    0    0 -0.53025007310E+02  0.16132651037E+02 -0.25399354997E+02  0.60967541069E+02  0.00000000000E+00 0. -1.
</event>
<event>
 8    1  0.5900800E-006  0.1134642E+03  0.7561462E-02  0.1254286E+00
          2   -1    0    0  501    0  0.00000000000E+00  0.00000000000E+00  0.94642030741E+03  0.94642030741E+03  0.00000000000E+00 0. -1.
         -2   -1    0    0    0  501 -0.00000000000E+00 -0.00000000000E+00 -0.15291604653E+02  0.15291604653E+02  0.00000000000E+00 0.  1.
         23    2    1    2    0    0  0.28532252765E+02 -0.22727259379E+02  0.26688341116E+03  0.28454809892E+03  0.91707402530E+02 0.  0.
         23    2    1    2    0    0 -0.28532252765E+02  0.22727259379E+02  0.66424529160E+03  0.67716381315E+03  0.12648480011E+03 0.  0.
          5    1    4    4  502    0 -0.74437472463E+02  0.32255210099E+02  0.48928880892E+03  0.49598623652E+03  0.41800000000E+01 0. -1.
         -5    1    4    4    0  502  0.45905219698E+02 -0.95279507198E+01  0.17495648269E+03  0.18117757663E+03  0.41800000000E+01 0.  1.
        -11    1    3    3    0    0  0.42456648643E+02 -0.51449959022E+02  0.18545699251E+03  0.19708871446E+03  0.00000000000E+00 0.  1.
         11    1    3    3    0    0 -0.13924395878E+02  0.28722699643E+02  0.81426418651E+02  0.87459384457E+02  0.00000000000E+00 0. -1.
</event>
<event>
 8    1  0.6027642E-006  0.1008101E+03  0.7561462E-02  0.1278602E+00
         -2   -1    0    0    0  501 -0.00000000000E+00  0.00000000000E+00  0.27114318579E+03  0.27114318579E+03  0.00000000000E+00 0.  1.
          2   -1    0    0  501    0  0.00000000000E+00 -0.00000000000E+00 -0.50549665149E+02  0.50549665149E+02  0.00000000000E+00 0. -1.
         23    2    1    2    0    0 -0.37476661333E+02  0.10010455993E+02  0.12553785138E+03  0.15986666477E+03  0.91065300748E+02 0.  0.
         23    2    1    2    0    0  0.37476661333E+02 -0.10010455993E+02  0.95055669258E+02  0.16182618617E+03  0.12508966744E+03 0.  0.
          5    1    4    4  502    0 -0.22709403158E+02  0.33616139622E+02  0.73933695733E+02  0.84435926000E+02  0.41800000000E+01 0. -1.
         -5    1    4    4    0  502  0.60186064491E+02 -0.43626595615E+02  0.21121973525E+02  0.77390260172E+02  0.41800000000E+01 0. -1.
        -11    1    3    3    0    0 -0.25742292644E+02 -0.32971414529E+02  0.10027006853E+03  0.10864560023E+03  0.00000000000E+00 0.  1.
         11    1    3    3    0    0 -0.11734368689E+02  0.42981870522E+02  0.25267782857E+02  0.51221064540E+02  0.00000000000E+00 0. -1.
</event>
<event>
 8    1  0.5900800E-006  0.8574922E+02  0.7561462E-02  0.1313485E+00
          1   -1    0    0  501    0  0.00000000000E+00  0.00000000000E+00  0.56455848872E+03  0.56455848872E+03  0.00000000000E+00 0. -1.
         -1   -1    0    0    0  501 -0.00000000000E+00 -0.00000000000E+00 -0.32906328738E+02  0.32906328738E+02  0.00000000000E+00 0.  1.
         23    2    1    2    0    0  0.27723313564E+01  0.34731188171E+02  0.97850850828E+02  0.14464646365E+03  0.10066712068E+03 0.  0.
         23    2    1    2    0    0 -0.27723313564E+01 -0.34731188171E+02  0.43380130915E+03  0.45281835380E+03  0.12508774707E+03 0.  0.
          5    1    4    4  502    0  0.17173089652E+02  0.13020746464E+02  0.36959881860E+03  0.37025020454E+03  0.41800000000E+01 0.  1.
         -5    1    4    4    0  502 -0.19945421009E+02 -0.47751934635E+02  0.64202490547E+02  0.82568149265E+02  0.41800000000E+01 0.  1.
        -11    1    3    3    0    0 -0.18078797027E+02 -0.26986337761E+02  0.76330148001E+01  0.33367173129E+02  0.00000000000E+00 0.  1.
         11    1    3    3    0    0  0.20851128384E+02  0.61717525932E+02  0.90217836028E+02  0.11127929052E+03  0.00000000000E+00 0. -1.
</event>
<event>
 8    1  0.5900800E-006  0.1318225E+03  0.7561462E-02  0.1224776E+00
         -1   -1    0    0    0  501 -0.00000000000E+00  0.00000000000E+00  0.20829050051E+02  0.20829050051E+02  0.00000000000E+00 0.  1.
          1   -1    0    0  501    0  0.00000000000E+00 -0.00000000000E+00 -0.12500629865E+04  0.12500629865E+04  0.00000000000E+00 0. -1.
         23    2    1    2    0    0 -0.11322163530E+03 -0.21558121515E+02 -0.43422192008E+03  0.45788785019E+03  0.88480032596E+02 0.  0.
         23    2    1    2    0    0  0.11322163530E+03  0.21558121515E+02 -0.79501201639E+03  0.81300418639E+03  0.12509120501E+03 0.  0.
          5    1    4    4  502    0  0.89269917795E+02  0.37294919583E+02 -0.76569366025E+03  0.77179290162E+03  0.41800000000E+01 0.  1.
         -5    1    4    4    0  502  0.23951717508E+02 -0.15736798067E+02 -0.29318356145E+02  0.41211284766E+02  0.41800000000E+01 0.  1.
        -11    1    3    3    0    0 -0.74807460785E+02 -0.50060275221E+02 -0.20762002430E+03  0.22629242549E+03  0.00000000000E+00 0.  1.
         11    1    3    3    0    0 -0.38414174518E+02  0.28502153706E+02 -0.22660189578E+03  0.23159542469E+03  0.00000000000E+00 0. -1.
</event>
<event>
 8    1  0.5900800E-006  0.1009014E+03  0.7561462E-02  0.1278412E+00
          1   -1    0    0  501    0  0.00000000000E+00  0.00000000000E+00  0.69998095476E+03  0.69998095476E+03  0.00000000000E+00 0. -1.
         -1   -1    0    0    0  501 -0.00000000000E+00 -0.00000000000E+00 -0.26920136733E+02  0.26920136733E+02  0.00000000000E+00 0.  1.
         23    2    1    2    0    0  0.16292758132E+02  0.37483047272E+02  0.11359879993E+03  0.15216925620E+03  0.92630245535E+02 0.  0.
         23    2    1    2    0    0 -0.16292758132E+02 -0.37483047272E+02  0.55946201810E+03  0.57473183529E+03  0.12509396469E+03 0.  0.
          5    1    4    4  502    0 -0.13319163502E+01  0.30956947271E+02  0.39083358953E+03  0.39208222822E+03  0.41800000000E+01 0.  1.
         -5    1    4    4    0  502 -0.14960841782E+02 -0.68439994543E+02  0.16862842857E+03  0.18264960707E+03  0.41800000000E+01 0.  1.
        -11    1    3    3    0    0  0.45031553508E+02 -0.87931228190E+01  0.62053328036E+02  0.77173669996E+02  0.00000000000E+00 0. -1.
         11    1    3    3    0    0 -0.28738795376E+02  0.46276170091E+02  0.51545471895E+02  0.74995586209E+02  0.00000000000E+00 0.  1.
</event>
<event>
 8    1  0.5900800E-006  0.6116898E+02  0.7561462E-02  0.1392991E+00
         -2   -1    0    0    0  501 -0.00000000000E+00  0.00000000000E+00  0.12193520623E+02  0.12193520623E+02  0.00000000000E+00 0.  1.
          2   -1    0    0  501    0  0.00000000000E+00 -0.00000000000E+00 -0.35012606581E+04  0.35012606581E+04  0.00000000000E+00 0. -1.
         23    2    1    2    0    0  0.11440095507E+02 -0.33764231468E+01 -0.17401997274E+03  0.19655300304E+03  0.90597218909E+02 0.  0.
         23    2    1    2    0    0 -0.11440095507E+02  0.33764231468E+01 -0.33150471647E+04  0.33169011757E+04  0.11024259058E+03 0.  0.
          5    1    4    4  502    0 -0.21636220747E+02  0.19711955294E+01 -0.32812604770E+04  0.32813350639E+04  0.41800000000E+01 0. -1.
         -5    1    4    4    0  502  0.10196125240E+02  0.14052276173E+01 -0.33786687743E+02  0.35566111725E+02  0.41800000000E+01 0.  1.
        -11    1    3    3    0    0  0.32655406506E+02  0.33359890700E+02 -0.69199878545E+02  0.83473834656E+02  0.00000000000E+00 0.  1.
         11    1    3    3    0    0 -0.21215310999E+02 -0.36736313846E+02 -0.10482009419E+03  0.11307916838E+03  0.00000000000E+00 0. -1.
</event>
<event>
 8    1  0.5900800E-006  0.1037522E+03  0.7561462E-02  0.1272598E+00
         -1   -1    0    0    0  501 -0.00000000000E+00  0.00000000000E+00  0.28585691624E+02  0.28585691624E+02  0.00000000000E+00 0.  1.
          1   -1    0    0  501    0  0.00000000000E+00 -0.00000000000E+00 -0.43917004778E+03  0.43917004778E+03  0.00000000000E+00 0. -1.
         23    2    1    2    0    0  0.42056999813E+01  0.30119830784E+02 -0.19682137862E+03  0.21822251514E+03  0.89204926504E+02 0.  0.
         23    2    1    2    0    0 -0.42056999813E+01 -0.30119830784E+02 -0.21376297754E+03  0.24953322427E+03  0.12508927743E+03 0.  0.
          5    1    4    4  502    0  0.51783487229E+02 -0.24927974722E+02 -0.49849733864E+02  0.76193187620E+02  0.41800000000E+01 0.  1.
         -5    1    4    4    0  502 -0.55989187210E+02 -0.51918560623E+01 -0.16391324367E+03  0.17334003665E+03  0.41800000000E+01 0.  1.
        -11    1    3    3    0    0 -0.20890382630E+02  0.54586796253E+02 -0.13595376341E+03  0.14798497288E+03  0.00000000000E+00 0.  1.
         11    1    3    3    0    0  0.25096082612E+02 -0.24466965469E+02 -0.60867615209E+02  0.70237542262E+02  0.00000000000E+00 0. -1.
</event>
<event>
 8    1  0.5900800E-006  0.1070167E+03  0.7561462E-02  0.1266196E+00
          1   -1    0    0  501    0  0.00000000000E+00  0.00000000000E+00  0.13305019043E+04  0.13305019043E+04  0.00000000000E+00 0. -1.
         -1   -1    0    0    0  501 -0.00000000000E+00 -0.00000000000E+00 -0.14250288040E+02  0.14250288040E+02  0.00000000000E+00 0.  1.
         23    2    1    2    0    0 -0.12904253458E+02 -0.40521073437E+02  0.23737697313E+03  0.25781639038E+03  0.91175581322E+02 0.  0.
         23    2    1    2    0    0  0.12904253458E+02  0.40521073437E+02  0.10788746432E+04  0.10869358020E+04  0.12510181787E+03 0.  0.
          5    1    4    4  502    0 -0.46910339523E+02 -0.15446431290E+02  0.35964645170E+03  0.36304574755E+03  0.41800000000E+01 0. -1.
         -5    1    4    4    0  502  0.59814592981E+02  0.55967504727E+02  0.71922819148E+03  0.72389005446E+03  0.41800000000E+01 0. -1.
        -11    1    3    3    0    0  0.27743052930E+02 -0.29143650574E+02  0.42922151800E+02  0.58833157912E+02  0.00000000000E+00 0.  1.
         11    1    3    3    0    0 -0.40647306388E+02 -0.11377422863E+02  0.19445482133E+03  0.19898323247E+03  0.00000000000E+00 0. -1.
</event>
<event>
 7    1  0.5900800E-006  0.1425067E+03  0.7561462E-02  0.1209995E+00
         -2   -1    0    0    0  501 -0.00000000000E+00  0.00000000000E+00  0.25210043497E+03  0.25210043497E+03  0.00000000000E+00 0.  1.
          2   -1    0    0  501    0  0.00000000000E+00 -0.00000000000E+00 -0.99009039293E+02  0.99009039293E+02  0.00000000000E+00 0. -1.
         23    2    1    2    0    0 -0.40025587124E+02 -0.74326440132E+01  0.10326015416E+03  0.14265699636E+03  0.89616222594E+02 0.  0.
          5    1    1    2  502    0  0.11430126423E+03  0.13163282121E+02 -0.59599430614E+01  0.11528679162E+03  0.41800000000E+01 0. -1.
         -5    1    1    2    0  502 -0.74275677108E+02 -0.57306381080E+01  0.55791184572E+02  0.93165686274E+02  0.41800000000E+01 0.  1.
        -11    1    3    3    0    0 -0.58785017101E+02  0.19947236879E+02  0.83441053309E+02  0.10399990323E+03  0.00000000000E+00 0.  1.
         11    1    3    3    0    0  0.18759429978E+02 -0.27379880893E+02  0.19819100853E+02  0.38657093132E+02  0.00000000000E+00 0. -1.
</event>
<event>
 8    1  0.5900800E-006  0.1122913E+03  0.7561462E-02  0.1256385E+00
          1   -1    0    0  501    0  0.00000000000E+00  0.00000000000E+00  0.12919402063E+04  0.12919402063E+04  0.00000000000E+00 0. -1.
         -1   -1    0    0    0  501 -0.00000000000E+00 -0.00000000000E+00 -0.18933609993E+02  0.18933609993E+02  0.00000000000E+00 0.  1.
         23    2    1    2    0    0  0.39692009038E+02 -0.25153955790E+02  0.17876552224E+03  0.20856618089E+03  0.96615541171E+02 0.  0.
         23    2    1    2    0    0 -0.39692009038E+02  0.25153955790E+02  0.10942410741E+04  0.11023076354E+04  0.12454082792E+03 0.  0.
          5    1    4    4  502    0  0.37146300903E+02 -0.18138985335E+02  0.47334515348E+03  0.47516521041E+03  0.41800000000E+01 0. -1.
         -5    1    4    4    0  502 -0.76838309941E+02  0.43292941125E+02  0.62089592059E+03  0.62714242500E+03  0.41800000000E+01 0.  1.
        -11    1    3    3    0    0 -0.78807219328E+01  0.24641697628E+02  0.12768913391E+02  0.28850722510E+02  0.00000000000E+00 0.  1.
         11    1    3    3    0    0  0.47572730971E+02 -0.49795653418E+02  0.16599660885E+03  0.17971545838E+03  0.00000000000E+00 0. -1.
</event>
<event>
 8    1  0.5900800E-006  0.1095706E+03  0.7561462E-02  0.1261367E+00
         -1   -1    0    0    0  501 -0.00000000000E+00  0.00000000000E+00  0.48134686485E+02  0.48134686485E+02  0.00000000000E+00 0.  1.
          1   -1    0    0  501    0  0.00000000000E+00 -0.00000000000E+00 -0.57241688944E+03  0.57241688944E+03  0.00000000000E+00 0. -1.
         23    2    1    2    0    0  0.20384386038E+02 -0.41873408959E+02 -0.26935319199E+02  0.10560539044E+03  0.90873986910E+02 0.  0.
         23    2    1    2    0    0 -0.20384386038E+02  0.41873408959E+02 -0.49734688375E+03  0.51494618549E+03  0.12508695214E+03 0.  0.
          5    1    4    4  502    0 -0.63368209798E+02  0.39961478128E+02 -0.18523405683E+03  0.19985389152E+03  0.41800000000E+01 0. -1.
         -5    1    4    4    0  502  0.42983823759E+02  0.19119308309E+01 -0.31211282693E+03  0.31509229397E+03  0.41800000000E+01 0. -1.
        -11    1    3    3    0    0 -0.28889606947E+02 -0.42751703339E+02 -0.55901786396E+01  0.51899591763E+02  0.00000000000E+00 0.  1.
         11    1    3    3    0    0  0.49273992985E+02  0.87829437997E+00 -0.21345140559E+02  0.53705798674E+02  0.00000000000E+00 0. -1.
</event>
<event>
 8    1  0.5900800E-006  0.1878330E+03  0.7561462E-02  0.1160430E+00
          1   -1    0    0  501    0  0.00000000000E+00  0.00000000000E+00  0.73272234308E+03  0.73272234308E+03  0.00000000000E+00 0. -1.
         -1   -1    0    0    0  501 -0.00000000000E+00 -0.00000000000E+00 -0.51216230371E+02  0.51216230371E+02  0.00000000000E+00 0.  1.
         23    2    1    2    0    0 -0.84467586875E+02  0.13508249025E+03  0.29187993183E+03  0.34480596455E+03  0.91187752353E+02 0.  0.
         23    2    1    2    0    0  0.84467586875E+02 -0.13508249025E+03  0.38962618088E+03  0.43913260890E+03  0.12508730939E+03 0.  0.
          5    1    4    4  502    0 -0.26332597346E+02 -0.52407913393E+02  0.73882653622E+02  0.94425176597E+02  0.41800000000E+01 0. -1.
         -5    1    4    4    0  502  0.11080018422E+03 -0.82674576854E+02  0.31574352725E+03  0.34470743230E+03  0.41800000000E+01 0. -1.
        -11    1    3    3    0    0 -0.95138779261E+02  0.85737346607E+02  0.24219615563E+03  0.27397309671E+03  0.00000000000E+00 0. -1.
         11    1    3    3    0    0  0.10671192387E+02  0.49345143640E+02  0.49683776201E+02  0.70832867832E+02  0.00000000000E+00 0.  1.
</event>
<event>
 8    1  0.5900800E-006  0.1007816E+03  0.7561462E-02  0.1278661E+00
         -2   -1    0    0    0  501 -0.00000000000E+00  0.00000000000E+00  0.16924214634E+02  0.16924214634E+02  0.00000000000E+00 0.  1.
          2   -1    0    0  501    0  0.00000000000E+00 -0.00000000000E+00 -0.81829610486E+03  0.81829610486E+03  0.00000000000E+00 0. -1.
         23    2    1    2    0    0  0.27437120300E+02 -0.20315894402E+02 -0.23790225365E+03  0.25702421683E+03  0.91095744191E+02 0.  0.
         23    2    1    2    0    0 -0.27437120300E+02  0.20315894402E+02 -0.56346963658E+03  0.57819610267E+03  0.12508865119E+03 0.  0.
          5    1    4    4  502    0  0.45175163606E+02  0.35600882672E+01 -0.32902986890E+03  0.33216200364E+03  0.41800000000E+01 0.  1.
         -5    1    4    4    0  502 -0.72612283906E+02  0.16755806134E+02 -0.23443976768E+03  0.24603409902E+03  0.41800000000E+01 0.  1.
        -11    1    3    3    0    0  0.11602718145E+02 -0.48077659570E+02 -0.20604815617E+03  0.21190074818E+03  0.00000000000E+00 0.  1.
         11    1    3    3    0    0  0.15834402155E+02  0.27761765168E+02 -0.31854097485E+02  0.45123468655E+02  0.00000000000E+00 0. -1.
</event>
<event>
 8    1  0.5900800E-006  0.8465580E+02  0.7561462E-02  0.1316335E+00
         -1   -1    0    0    0  501 -0.00000000000E+00  0.00000000000E+00  0.78762753926E+02  0.78762753926E+02  0.00000000000E+00 0.  1.
          1   -1    0    0  501    0  0.00000000000E+00 -0.00000000000E+00 -0.16106149294E+03  0.16106149294E+03  0.00000000000E+00 0. -1.
         23    2    1    2    0    0 -0.11741237095E+02 -0.63346122060E+01 -0.94639192191E+01  0.94458081320E+02  0.93031066850E+02 0.  0.
         23    2    1    2    0    0  0.11741237095E+02  0.63346122060E+01 -0.72834819793E+02  0.14536616554E+03  0.12509367350E+03 0.  0.
          5    1    4    4  502    0 -0.17648095008E+02 -0.25829326638E+02  0.23636253896E+02  0.39430372433E+02  0.41800000000E+01 0. -1.
         -5    1    4    4    0  502  0.29389332104E+02  0.32163938844E+02 -0.96471073689E+02  0.10593579311E+03  0.41800000000E+01 0. -1.
        -11    1    3    3    0    0  0.24953531559E+02  0.32222152577E+02 -0.38965699143E+01  0.40940555822E+02  0.00000000000E+00 0.  1.
         11    1    3    3    0    0 -0.36694768654E+02 -0.38556764783E+02 -0.55673493048E+01  0.53517525498E+02  0.00000000000E+00 0. -1.
</event>
<event>
 8    1  0.5900800E-006  0.7966160E+02  0.7561462E-02  0.1330015E+00
          2   -1    0    0  501    0  0.00000000000E+00  0.00000000000E+00  0.13317834256E+03  0.13317834256E+03  0.00000000000E+00 0. -1.
         -2   -1    0    0    0  501 -0.00000000000E+00 -0.00000000000E+00 -0.14037863197E+03  0.14037863197E+03  0.00000000000E+00 0.  1.
         23    2    1    2    0    0 -0.27166038485E+02  0.11709914409E+02 -0.78137481805E+02  0.12673890744E+03  0.95300413707E+02 0.  0.
         23    2    1    2    0    0  0.27166038485E+02 -0.11709914409E+02  0.70937192399E+02  0.14681806709E+03  0.12509334042E+03 0.  0.
          5    1    4    4  502    0  0.18036805215E+02 -0.32163323724E+02 -0.27237291438E+02  0.46034206631E+02  0.41800000000E+01 0. -1.
         -5    1    4    4    0  502  0.91292332700E+01  0.20453409315E+02  0.98174483837E+02  0.10078386046E+03  0.41800000000E+01 0. -1.
        -11    1    3    3    0    0 -0.37128372777E+02  0.48631495407E+02 -0.42786997078E+02  0.74661004075E+02  0.00000000000E+00 0. -1.
         11    1    3    3    0    0  0.99623342924E+01 -0.36921580998E+02 -0.35350484727E+02  0.52077903360E+02  0.00000000000E+00 0.  1.
</event>
<event>
 8    1  0.5900800E-006  0.1145216E+03  0.7561462E-02  0.1252418E+00
          1   -1    0    0  501    0  0.00000000000E+00  0.00000000000E+00  0.55166881046E+03  0.55166881046E+03  0.00000000000E+00 0. -1.
         -1   -1    0    0    0  501 -0.00000000000E+00 -0.00000000000E+00 -0.33694199833E+02  0.33694199833E+02  0.00000000000E+00 0.  1.
         23    2    1    2    0    0 -0.74633150802E+02 -0.20554335028E+02  0.24347663620E+03  0.27393241427E+03  0.98820581475E+02 0.  0.
         23    2    1    2    0    0  0.74633150802E+02  0.20554335028E+02  0.27449797443E+03  0.31143059603E+03  0.12508912939E+03 0.  0.
          5    1    4    4  502    0  0.69819313495E+02 -0.13574105108E+02  0.57179424239E+02  0.91356181086E+02  0.41800000000E+01 0.  1.
         -5    1    4    4    0  502  0.48138373069E+01  0.34128440136E+02  0.21731855019E+03  0.22007441494E+03  0.41800000000E+01 0.  1.
        -11    1    3    3    0    0 -0.18787686500E+02 -0.54550909371E+02  0.14134334728E+03  0.15266538802E+03  0.00000000000E+00 0. -1.
         11    1    3    3    0    0 -0.55845464302E+02  0.33996574343E+02  0.10213328891E+03  0.12126702625E+03  0.00000000000E+00 0.  1.
</event>
<event>
 8    1  0.5900800E-006  0.7838999E+02  0.7561462E-02  0.1333683E+00
         -2   -1    0    0    0  501 -0.00000000000E+00  0.00000000000E+00  0.19680612288E+02  0.19680612288E+02  0.00000000000E+00 0.  1.
          2   -1    0    0  501    0  0.00000000000E+00 -0.00000000000E+00 -0.72881798316E+03  0.72881798316E+03  0.00000000000E+00 0. -1.
         23    2    1    2    0    0  0.34170205831E+02  0.46781808678E+01 -0.19454589937E+03  0.21779914956E+03  0.91645372196E+02 0.  0.
         23    2    1    2    0    0 -0.34170205831E+02 -0.46781808678E+01 -0.51459147149E+03  0.53069944588E+03  0.12509208999E+03 0.  0.
          5    1    4    4  502    0 -0.45564874370E+02  0.12335953349E+02 -0.50581788085E+03  0.50803300533E+03  0.41800000000E+01 0.  1.
         -5    1    4    4    0  502  0.11394668539E+02 -0.17014134217E+02 -0.87735906468E+01  0.22666440548E+02  0.41800000000E+01 0.  1.
        -11    1    3    3    0    0  0.32216622012E+02  0.40984871647E+02 -0.15745021348E+03  0.16585608269E+03  0.00000000000E+00 0.  1.
         11    1    3    3    0    0  0.19535838188E+01 -0.36306690779E+02 -0.37095685891E+02  0.51943066879E+02  0.00000000000E+00 0. -1.
</event>
<event>
 8    1  0.5900800E-006  0.1278356E+03  0.7561462E-02  0.1230703E+00
         -2   -1    0    0    0  501 -0.00000000000E+00  0.00000000000E+00  0.70087059223E+02  0.70087059223E+02  0.00000000000E+00 0.  1.
          2   -1    0    0  501    0  0.00000000000E+00 -0.00000000000E+00 -0.38055538182E+03  0.38055538182E+03  0.00000000000E+00 0. -1.
         23    2    1    2    0    0  0.87131968048E+02  0.54204636388E+02 -0.54510329488E+02  0.14783499514E+03  0.91398508218E+02 0.  0.
         23    2    1    2    0    0 -0.87131968048E+02 -0.54204636388E+02 -0.25595799311E+03  0.30280744591E+03  0.12509089734E+03 0.  0.
          5    1    4    4  502    0 -0.10696710741E+03 -0.69526001568E+02 -0.24252617420E+03  0.27406613168E+03  0.41800000000E+01 0. -1.
         -5    1    4    4    0  502  0.19835139360E+02  0.15321365180E+02 -0.13431818914E+02  0.28741314231E+02  0.41800000000E+01 0. -1.
        -11    1    3    3    0    0  0.34403173582E+02  0.21342720708E+02  0.24500251379E+02  0.47321796219E+02  0.00000000000E+00 0.  1.
         11    1    3    3    0    0  0.52728794465E+02  0.32861915679E+02 -0.79010580866E+02  0.10051319892E+03  0.00000000000E+00 0. -1.
</event>
<event>
 8    1  0.5900800E-006  0.1118708E+03  0.7561462E-02  0.1257144E+00
         -2   -1    0    0    0  501 -0.00000000000E+00  0.00000000000E+00  0.25825575052E+02  0.25825575052E+02  0.00000000000E+00 0.  1.
          2   -1    0    0  501    0  0.00000000000E+00 -0.00000000000E+00 -0.61479320045E+03  0.61479320045E+03  0.00000000000E+00 0. -1.
         23    2    1    2    0    0 -0.38309210611E+02  0.25299524665E+02 -0.13877435027E+03  0.17112003254E+03  0.88972375923E+02 0.  0.
         23    2    1    2    0    0  0.38309210611E+02 -0.25299524665E+02 -0.45019327513E+03  0.46949874296E+03  0.12508966027E+03 0.  0.
          5    1    4    4  502    0  0.81246955598E+02 -0.11862431573E+02 -0.21882973700E+03  0.23376422154E+03  0.41800000000E+01 0.  1.
         -5    1    4    4    0  502 -0.42937744987E+02 -0.13437093092E+02 -0.23136353813E+03  0.23573452142E+03  0.41800000000E+01 0.  1.
        -11    1    3    3    0    0 -0.54266544925E+02 -0.12171453608E+02 -0.56296559648E+02  0.79134725685E+02  0.00000000000E+00 0.  1.
         11    1    3    3    0    0  0.15957334313E+02  0.37470978273E+02 -0.82477790627E+02  0.91985306859E+02  0.00000000000E+00 0. -1.
</event>
<event>
 8    1  0.5900800E-006  0.8277776E+02  0.7561462E-02  0.1321348E+00
         -2   -1    0    0    0  501 -0.00000000000E+00  0.00000000000E+00  0.33884936788E+02  0.33884936788E+02  0.00000000000E+00 0.  1.
          2   -1    0    0  501    0  0.00000000000E+00 -0.00000000000E+00 -0.47587504051E+03  0.47587504051E+03  0.00000000000E+00 0. -1.
         23    2    1    2    0    0  0.90599678760E+01  0.24471482317E+02 -0.70004271353E+02  0.11643048987E+03  0.89300193164E+02 0.  0.
         23    2    1    2    0    0 -0.90599678760E+01 -0.24471482317E+02 -0.37198583237E+03  0.39332948743E+03  0.12511470630E+03 0.  0.
          5    1    4    4  502    0 -0.23177215903E+02 -0.48560534800E+02 -0.35758825445E+03  0.36163813543E+03  0.41800000000E+01 0. -1.
         -5    1    4    4    0  502  0.14117248027E+02  0.24089052483E+02 -0.14397577917E+02  0.31691351995E+02  0.41800000000E+01 0. -1.
        -11    1    3    3    0    0 -0.31255640868E+02 -0.72128028211E+01 -0.53832176000E+02  0.62664525718E+02  0.00000000000E+00 0. -1.
         11    1    3    3    0    0  0.40315608744E+02  0.31684285139E+02 -0.16172095352E+02  0.53765964152E+02  0.00000000000E+00 0.  1.
</event>
<event>
 8    1  0.5900800E-006  0.1326017E+03  0.7561462E-02  0.1223646E+00
          1   -1    0    0  501    0  0.00000000000E+00  0.00000000000E+00  0.21017164386E+04  0.21017164386E+04  0.00000000000E+00 0. -1.
         -1   -1    0    0    0  501 -0.00000000000E+00 -0.00000000000E+00 -0.17599720633E+02  0.17599720633E+02  0.00000000000E+00 0.  1.
         23    2    1    2    0    0  0.10138782461E+03 -0.49650412260E+02  0.37308389856E+03  0.40000661119E+03  0.89827830957E+02 0.  0.
         23    2    1    2    0    0 -0.10138782461E+03  0.49650412260E+02  0.17110328194E+04  0.17193095480E+04  0.12508940199E+03 0.  0.
          5    1    4    4  502    0 -0.43513371605E+01  0.22589996939E+02  0.10815831562E+04  0.10818358647E+04  0.41800000000E+01 0.  1.
         -5    1    4    4    0  502 -0.97036487447E+02  0.27060415321E+02  0.62944966323E+03  0.63747368331E+03  0.41800000000E+01 0.  1.
        -11    1    3    3    0    0  0.83160303387E+02  0.50746286324E+01  0.26062620073E+03  0.27361908636E+03  0.00000000000E+00 0. -1.
         11    1    3    3    0    0  0.18227521220E+02 -0.54725040892E+02  0.11245769783E+03  0.12638752482E+03  0.00000000000E+00 0.  1.
</event>
<event>
 8    1  0.5900800E-006  0.7230863E+02  0.7561462E-02  0.1352414E+00
          1   -1    0    0  501    0  0.00000000000E+00  0.00000000000E+00  0.43392917681E+03  0.43392917681E+03  0.00000000000E+00 0. -1.
         -1   -1    0    0    0  501 -0.00000000000E+00 -0.00000000000E+00 -0.36424471063E+02  0.36424471063E+02  0.00000000000E+00 0.  1.
         23    2    1    2    0    0  0.33317928235E+02  0.14594106791E+02  0.75807957653E+02  0.12328018582E+03  0.90155895410E+02 0.  0.
         23    2    1    2    0    0 -0.33317928235E+02 -0.14594106791E+02  0.32169674810E+03  0.34707346206E+03  0.12509243795E+03 0.  0.
          5    1    4    4  502    0  0.23203286804E+02  0.68066624522E+00  0.26302560080E+03  0.26408103851E+03  0.41800000000E+01 0.  1.
         -5    1    4    4    0  502 -0.56521215039E+02 -0.15274773036E+02  0.58671147296E+02  0.82992423545E+02  0.41800000000E+01 0.  1.
        -11    1    3    3    0    0  0.44390643236E+02  0.47947552071E+00 -0.10005378810E+01  0.44404506300E+02  0.00000000000E+00 0.  1.
         11    1    3    3    0    0 -0.11072715002E+02  0.14114631271E+02  0.76808495534E+02  0.78875679519E+02  0.00000000000E+00 0. -1.
</event>
<event>
 8    1  0.5900800E-006  0.9377501E+02  0.7561462E-02  0.1293959E+00
         -2   -1    0    0    0  501 -0.00000000000E+00  0.00000000000E+00  0.24711398074E+02  0.24711398074E+02  0.00000000000E+00 0.  1.
          2   -1    0    0  501    0  0.00000000000E+00 -0.00000000000E+00 -0.89911058216E+03  0.89911058216E+03  0.00000000000E+00 0. -1.
         23    2    1    2    0    0  0.58845565997E+02  0.25189297168E+02 -0.17214995884E+03  0.20765239357E+03  0.96884502869E+02 0.  0.
         23    2    1    2    0    0 -0.58845565997E+02 -0.25189297168E+02 -0.70224922525E+03  0.71616958667E+03  0.12509037204E+03 0.  0.
          5    1    4    4  502    0 -0.16927962366E+02 -0.48793525884E+02 -0.60862129339E+03  0.61082298192E+03  0.41800000000E+01 0.  1.
         -5    1    4    4    0  502 -0.41917603631E+02  0.23604228716E+02 -0.93627931866E+02  0.10534660475E+03  0.41800000000E+01 0.  1.
        -11    1    3    3    0    0  0.38117610101E+02  0.44862343357E+02 -0.37038247130E+02  0.69551519047E+02  0.00000000000E+00 0.  1.
         11    1    3    3    0    0  0.20727955895E+02 -0.19673046189E+02 -0.13511171171E+03  0.13810087452E+03  0.00000000000E+00 0. -1.
</event>
<event>
 8    1  0.5900800E-006  0.1077205E+03  0.7561462E-02  0.1264850E+00
         -1   -1    0    0    0  501 -0.00000000000E+00  0.00000000000E+00  0.86332335061E+02  0.86332335061E+02  0.00000000000E+00 0.  1.
          1   -1    0    0  501    0  0.00000000000E+00 -0.00000000000E+00 -0.18892366114E+03  0.18892366114E+03  0.00000000000E+00 0. -1.
         23    2    1    2    0    0 -0.23917494474E+02 -0.61101178595E+02 -0.48567655480E+02  0.12402354176E+03  0.93368202216E+02 0.  0.
         23    2    1    2    0    0  0.23917494474E+02  0.61101178595E+02 -0.54023670596E+02  0.15123245443E+03  0.12508915909E+03 0.  0.
          5    1    4    4  502    0  0.56681107309E+02  0.83033979809E+02 -0.30555686056E+02  0.10515946025E+03  0.41800000000E+01 0. -1.
         -5    1    4    4    0  502 -0.32763612835E+02 -0.21932801215E+02 -0.23467984540E+02  0.46072994189E+02  0.41800000000E+01 0. -1.
        -11    1    3    3    0    0 -0.53379409901E+01 -0.55512466298E+02  0.14843890355E+02  0.57710212349E+02  0.00000000000E+00 0.  1.
         11    1    3    3    0    0 -0.18579553484E+02 -0.55887122967E+01 -0.63411545835E+02  0.66313329414E+02  0.00000000000E+00 0. -1.
</event>
<event>
 8    1  0.5900800E-006  0.2567065E+03  0.7561462E-02  0.1109138E+00
         -1   -1    0    0    0  501 -0.00000000000E+00  0.00000000000E+00  0.18169805041E+03  0.18169805041E+03  0.00000000000E+00 0.  1.
          1   -1    0    0  501    0  0.00000000000E+00 -0.00000000000E+00 -0.36843382732E+03  0.36843382732E+03  0.00000000000E+00 0. -1.
         23    2    1    2    0    0  0.18642591832E+03 -0.13610519183E+03 -0.78813175505E+02  0.26627929483E+03  0.10683585519E+03 0.  0.
         23    2    1    2    0    0 -0.18642591832E+03  0.13610519183E+03 -0.10792260141E+03  0.28385258289E+03  0.12508299107E+03 0.  0.
          5    1    4    4  502    0  0.42877592468E+01  0.50360777115E+02 -0.56126587779E+01  0.51025161337E+02  0.41800000000E+01 0.  1.
         -5    1    4    4    0  502 -0.19071367757E+03  0.85744414717E+02 -0.10230994263E+03  0.23282742156E+03  0.41800000000E+01 0.  1.
        -11    1    3    3    0    0  0.48892341941E+02  0.13113552192E+02 -0.24307750583E+02  0.56154190316E+02  0.00000000000E+00 0. -1.
         11    1    3    3    0    0  0.13753357638E+03 -0.14921874402E+03 -0.54505424923E+02  0.21012510451E+03  0.00000000000E+00 0.  1.
</event>
<event>
 8    1  0.5900800E-006  0.8493813E+02  0.7561462E-02  0.1315594E+00
          2   -1    0    0  501    0  0.00000000000E+00  0.00000000000E+00  0.11017641300E+04  0.11017641300E+04  0.00000000000E+00 0. -1.
         -2   -1    0    0    0  501 -0.00000000000E+00 -0.00000000000E+00 -0.24229300810E+02  0.24229300810E+02  0.00000000000E+00 0.  1.
         23    2    1    2    0    0  0.25212054849E+02  0.14558134245E+02  0.66085315994E+02  0.10745553841E+03  0.79572839346E+02 0.  0.
         23    2    1    2    0    0 -0.25212054849E+02 -0.14558134245E+02  0.10114495132E+04  0.10185378925E+04  0.11636895435E+03 0.  0.
          5    1    4    4  502    0 -0.32572952889E+02 -0.53589124143E+02  0.33081154161E+03  0.33672917894E+03  0.41800000000E+01 0. -1.
         -5    1    4    4    0  502  0.73608980406E+01  0.39030989897E+02  0.68063797163E+03  0.68180871351E+03  0.41800000000E+01 0.  1.
        -11    1    3    3    0    0 -0.45334339803E+01  0.32190360711E+02 -0.40574734577E+00  0.32510551783E+02  0.00000000000E+00 0.  1.
         11    1    3    3    0    0  0.29745488829E+02 -0.17632226465E+02  0.66491063340E+02  0.74944986623E+02  0.00000000000E+00 0. -1.
</event>
<event>
 8    1  0.5900800E-006  0.1097004E+03  0.7561462E-02  0.1261126E+00
         -1   -1    0    0    0  501 -0.00000000000E+00  0.00000000000E+00  0.16229391290E+02  0.16229391290E+02  0.00000000000E+00 0.  1.
          1   -1    0    0  501    0  0.00000000000E+00 -0.00000000000E+00 -0.80542385312E+03  0.80542385312E+03  0.00000000000E+00 0. -1.
         23    2    1    2    0    0  0.25289562058E+02  0.21318076292E+02 -0.32360456741E+03  0.33841889228E+03  0.93345638790E+02 0.  0.
         23    2    1    2    0    0 -0.25289562058E+02 -0.21318076292E+02 -0.46558989443E+03  0.48323435213E+03  0.12508983556E+03 0.  0.
          5    1    4    4  502    0  0.16340191289E+02 -0.63372803465E+02 -0.30667197504E+03  0.31360530408E+03  0.41800000000E+01 0.  1.
         -5    1    4    4    0  502 -0.41629753347E+02  0.42054727173E+02 -0.15891791939E+03  0.16962904805E+03  0.41800000000E+01 0.  1.
        -11    1    3    3    0    0 -0.33036857894E+02  0.13348047452E+02 -0.76382359691E+02  0.84284454215E+02  0.00000000000E+00 0.  1.
         11    1    3    3    0    0  0.58326419952E+02  0.79700288405E+01 -0.24722220772E+03  0.25413443807E+03  0.00000000000E+00 0. -1.
</event>
<event>
 8    1  0.5900800E-006  0.1308268E+03  0.7561462E-02  0.1226234E+00
         -1   -1    0    0    0  501 -0.00000000000E+00  0.00000000000E+00  0.28118789469E+03  0.28118789469E+03  0.00000000000E+00 0.  1.
          1   -1    0    0  501    0  0.00000000000E+00 -0.00000000000E+00 -0.81014462260E+02  0.81014462260E+02  0.00000000000E+00 0. -1.
         23    2    1    2    0    0  0.10395832768E+03 -0.88290507454E+01  0.11639383121E+03  0.17903006492E+03  0.87286620803E+02 0.  0.
         23    2    1    2    0    0 -0.10395832768E+03  0.88290507454E+01  0.83779601223E+02  0.18317229203E+03  0.12509109062E+03 0.  0.
          5    1    4    4  502    0  0.16531964893E+02 -0.12738113276E+02 -0.14822335845E+02  0.25937220995E+02  0.41800000000E+01 0.  1.
         -5    1    4    4    0  502 -0.12049029258E+03  0.21567164021E+02  0.98601937068E+02  0.15723507103E+03  0.41800000000E+01 0.  1.
        -11    1    3    3    0    0  0.19007883824E+02 -0.25011235728E+02 -0.30557610877E+01  0.31562624034E+02  0.00000000000E+00 0. -1.
         11    1    3    3    0    0  0.84950443859E+02  0.16182184983E+02  0.11944959229E+03  0.14746744089E+03  0.00000000000E+00 0.  1.
</event>
<event>
 8    1  0.5900800E-006  0.9570550E+02  0.7561462E-02  0.1289595E+00
         -2   -1    0    0    0  501 -0.00000000000E+00  0.00000000000E+00  0.53591049735E+03  0.53591049735E+03  0.00000000000E+00 0.  1.
          2   -1    0    0  501    0  0.00000000000E+00 -0.00000000000E+00 -0.22355431194E+02  0.22355431194E+02  0.00000000000E+00 0. -1.
         23    2    1    2    0    0 -0.62092971062E+01  0.52642505654E+01  0.26692244539E+03  0.28160493760E+03  0.89372710176E+02 0.  0.
         23    2    1    2    0    0  0.62092971062E+01 -0.52642505654E+01  0.24663262076E+03  0.27666099094E+03  0.12508951426E+03 0.  0.
          5    1    4    4  502    0 -0.37637658672E+02  0.33852533063E+02  0.18312497426E+03  0.19003898532E+03  0.41800000000E+01 0.  1.
         -5    1    4    4    0  502  0.43846955778E+02 -0.39116783628E+02  0.63507646503E+02  0.86622005615E+02  0.41800000000E+01 0.  1.
        -11    1    3    3    0    0  0.34931738963E+02 -0.12218696565E+02  0.18105811310E+03  0.18480141572E+03  0.00000000000E+00 0.  1.
         11    1    3    3    0    0 -0.41141036069E+02  0.17482947130E+02  0.85864332293E+02  0.96803521884E+02  0.00000000000E+00 0. -1.
</event>
<event>
 8    1  0.5900800E-006  0.2834332E+03  0.7561462E-02  0.1093828E+00
         -2   -1    0    0    0  501 -0.00000000000E+00  0.00000000000E+00  0.60506861929E+02  0.60506861929E+02  0.00000000000E+00 0.  1.
          2   -1    0    0  501    0  0.00000000000E+00 -0.00000000000E+00 -0.14650493754E+04  0.14650493754E+04  0.00000000000E+00 0. -1.
         23    2    1    2    0    0 -0.84076228233E+02  0.26362966115E+03 -0.67148032543E+03  0.73208504598E+03  0.92158975242E+02 0.  0.
         23    2    1    2    0    0  0.84076228233E+02 -0.26362966115E+03 -0.73306218807E+03  0.79347119138E+03  0.12508776747E+03 0.  0.
          5    1    4    4  502    0  0.48267665787E+02 -0.15042807336E+03 -0.24802075966E+03  0.29409206456E+03  0.41800000000E+01 0.  1.
         -5    1    4    4    0  502  0.35808562446E+02 -0.11320158779E+03 -0.48504142841E+03  0.49937912682E+03  0.41800000000E+01 0.  1.
        -11    1    3    3    0    0  0.16834846626E+02  0.66125942584E+02 -0.19281735877E+03  0.20453504880E+03  0.00000000000E+00 0. -1.
         11    1    3    3    0    0 -0.10091107486E+03  0.19750371857E+03 -0.47866296666E+03  0.52754999718E+03  0.00000000000E+00 0.  1.
</event>
<event>
 8    1  0.5900800E-006  0.1011597E+03  0.7561462E-02  0.1277876E+00
          3   -1    0    0  501    0  0.00000000000E+00  0.00000000000E+00  0.42858658314E+03  0.42858658314E+03  0.00000000000E+00 0. -1.
         -3   -1    0    0    0  501 -0.00000000000E+00 -0.00000000000E+00 -0.43905185498E+02  0.43905185498E+02  0.00000000000E+00 0.  1.
         23    2    1    2    0    0 -0.78306626756E+02 -0.14092011641E+02  0.12964818221E+03  0.17750094373E+03  0.91473609798E+02 0.  0.
         23    2    1    2    0    0  0.78306626756E+02  0.14092011641E+02  0.25503321544E+03  0.29499082491E+03  0.12508850155E+03 0.  0.
          5    1    4    4  502    0  0.81676941267E+02  0.31545029149E+02  0.26135821506E+03  0.27566610343E+03  0.41800000000E+01 0.  1.
         -5    1    4    4    0  502 -0.33703145109E+01 -0.17453017509E+02 -0.63249996259E+01  0.19324721481E+02  0.41800000000E+01 0.  1.
        -11    1    3    3    0    0 -0.22498709734E+02 -0.30804465244E+02  0.10934500869E+03  0.11580776289E+03  0.00000000000E+00 0. -1.
         11    1    3    3    0    0 -0.55807917022E+02  0.16712453604E+02  0.20303173514E+02  0.61693180843E+02  0.00000000000E+00 0.  1.
</event>
<event>
 8    1  0.5900800E-006  0.8405193E+02  0.7561462E-02  0.1317931E+00
          1   -1    0    0  501    0  0.00000000000E+00  0.00000000000E+00  0.57448332287E+03  0.57448332287E+03  0.00000000000E+00 0. -1.
         -1   -1    0    0    0  501 -0.00000000000E+00 -0.00000000000E+00 -0.23029062114E+02  0.23029062114E+02  0.00000000000E+00 0.  1.
         23    2    1    2    0    0  0.20443421651E+02  0.14786894347E+02  0.16174088730E+03  0.18743817851E+03  0.91303726131E+02 0.  0.
         23    2    1    2    0    0 -0.20443421651E+02 -0.14786894347E+02  0.38971337346E+03  0.41007420648E+03  0.12509098941E+03 0.  0.
          5    1    4    4  502    0 -0.48587093026E+02 -0.47402729650E+02  0.12936207605E+03  0.14614972975E+03  0.41800000000E+01 0. -1.
         -5    1    4    4    0  502  0.28143671375E+02  0.32615835303E+02  0.26035129741E+03  0.26392447673E+03  0.41800000000E+01 0. -1.
        -11    1    3    3    0    0 -0.17204073181E+02  0.43432452069E+01 -0.31157240418E+01  0.18015317073E+02  0.00000000000E+00 0.  1.
         11    1    3    3    0    0  0.37647494832E+02  0.10443649140E+02  0.16485661134E+03  0.16942286143E+03  0.00000000000E+00 0. -1.
</event>
<event>
 8    1  0.5900800E-006  0.1367728E+03  0.7561462E-02  0.1217739E+00
          1   -1    0    0  501    0  0.00000000000E+00  0.00000000000E+00  0.26643722261E+03  0.26643722261E+03  0.00000000000E+00 0. -1.
         -1   -1    0    0    0  501 -0.00000000000E+00 -0.00000000000E+00 -0.88216449015E+02  0.88216449015E+02  0.00000000000E+00 0.  1.
         23    2    1    2    0    0  0.84741251569E+02 -0.13724262732E+02  0.53132219117E+01  0.12462263441E+03  0.90183898654E+02 0.  0.
         23    2    1    2    0    0 -0.84741251569E+02  0.13724262732E+02  0.17290755168E+03  0.23003103721E+03  0.12509125287E+03 0.  0.
          5    1    4    4  502    0  0.29472458462E+02  0.22055723022E+02  0.39220529043E+02  0.53951858395E+02  0.41800000000E+01 0.  1.
         -5    1    4    4    0  502 -0.11421371003E+03 -0.83314602894E+01  0.13368702264E+03  0.17607917881E+03  0.41800000000E+01 0.  1.
        -11    1    3    3    0    0  0.10053302556E+03 -0.23616840415E+02 -0.48751758821E+01  0.10338477509E+03  0.00000000000E+00 0.  1.
         11    1    3    3    0    0 -0.15791773995E+02  0.98925776831E+01  0.10188397794E+02  0.21237859326E+02  0.00000000000E+00 0. -1.
</event>
<event>
 8    1  0.5900800E-006  0.9983363E+02  0.7561462E-02  0.1280646E+00
          1   -1    0    0  501    0  0.00000000000E+00  0.00000000000E+00  0.45723606238E+03  0.45723606238E+03  0.00000000000E+00 0. -1.
         -1   -1    0    0    0  501 -0.00000000000E+00 -0.00000000000E+00 -0.47538089041E+02  0.47538089041E+02  0.00000000000E+00 0.  1.
         23    2    1    2    0    0  0.20555762628E+02  0.65104409575E+02  0.59722739266E+02  0.12689673849E+03  0.88740369231E+02 0.  0.
         23    2    1    2    0    0 -0.20555762628E+02 -0.65104409575E+02  0.34997523408E+03  0.37787741293E+03  0.12509017233E+03 0.  0.
          5    1    4    4  502    0 -0.48601168459E+02 -0.75726654657E+02  0.32883207980E+03  0.34094663645E+03  0.41800000000E+01 0. -1.
         -5    1    4    4    0  502  0.28045405831E+02  0.10622245082E+02  0.21143154275E+02  0.36930776481E+02  0.41800000000E+01 0. -1.
        -11    1    3    3    0    0  0.31910615745E+02  0.36211382125E+02  0.77367758979E+02  0.91188385895E+02  0.00000000000E+00 0. -1.
         11    1    3    3    0    0 -0.11354853117E+02  0.28893027450E+02 -0.17645019714E+02  0.35708352597E+02  0.00000000000E+00 0.  1.
</event>
<event>
 8    1  0.5900800E-006  0.1458573E+03  0.7561462E-02  0.1205658E+00
          2   -1    0    0  501    0  0.00000000000E+00  0.00000000000E+00  0.21083301165E+04  0.21083301165E+04  0.00000000000E+00 0. -1.
         -2   -1    0    0    0  501 -0.00000000000E+00 -0.00000000000E+00 -0.15074744516E+02  0.15074744516E+02  0.00000000000E+00 0.  1.
         23    2    1    2    0    0  0.12752332710E+03 -0.43204229417E+02  0.76032207617E+03  0.77786131722E+03  0.94073189167E+02 0.  0.
         23    2    1    2    0    0 -0.12752332710E+03  0.43204229417E+02  0.13329332958E+04  0.13455435438E+04  0.12508977884E+03 0.  0.
          5    1    4    4  502    0 -0.80450040934E+02  0.58575678263E+02  0.43590603937E+03  0.44714076836E+03  0.41800000000E+01 0. -1.
         -5    1    4    4    0  502 -0.47073286165E+02 -0.15371448846E+02  0.89702725644E+03  0.89840277543E+03  0.41800000000E+01 0. -1.
        -11    1    3    3    0    0  0.41078826839E+01 -0.15357966136E+02  0.14933338380E+02  0.21811612026E+02  0.00000000000E+00 0.  1.
         11    1    3    3    0    0  0.12341544442E+03 -0.27846263281E+02  0.74538873779E+03  0.75604970519E+03  0.00000000000E+00 0. -1.
</event>
<event>
 8    1  0.5900800E-006  0.2001829E+03  0.7561462E-02  0.1149585E+00
          1   -1    0    0  501    0  0.00000000000E+00  0.00000000000E+00  0.45875613020E+03  0.45875613020E+03  0.00000000000E+00 0. -1.
         -1   -1    0    0    0  501 -0.00000000000E+00 -0.00000000000E+00 -0.15921920921E+03  0.15921920921E+03  0.00000000000E+00 0.  1.
         23    2    1    2    0    0 -0.13237027394E+03  0.14832695188E+03 -0.20528010885E+02  0.22097145104E+03  0.94256081333E+02 0.  0.
         23    2    1    2    0    0  0.13237027394E+03 -0.14832695188E+03  0.32006493188E+03  0.39700388837E+03  0.12509097762E+03 0.  0.
          5    1    4    4  502    0  0.96623822999E+02 -0.85666162821E+02  0.94289079690E+02  0.15994610834E+03  0.41800000000E+01 0. -1.
         -5    1    4    4    0  502  0.35746450946E+02 -0.62660789054E+02  0.22577585219E+03  0.23705778003E+03  0.41800000000E+01 0. -1.
        -11    1    3    3    0    0 -0.11588363323E+03  0.12655091608E+03  0.19303049196E+02  0.17267529794E+03  0.00000000000E+00 0. -1.
         11    1    3    3    0    0 -0.16486640711E+02  0.21776035796E+02 -0.39831060081E+02  0.48296153098E+02  0.00000000000E+00 0.  1.
</event>
<event>
 8    1  0.5900800E-006  0.1083922E+03  0.7561462E-02  0.1263576E+00
          2   -1    0    0  501    0  0.00000000000E+00  0.00000000000E+00  0.39218043199E+04  0.39218043199E+04  0.00000000000E+00 0. -1.
         -2   -1    0    0    0  501 -0.00000000000E+00 -0.00000000000E+00 -0.75681105933E+01  0.75681105933E+01  0.00000000000E+00 0.  1.
         23    2    1    2    0    0 -0.26405318268E+02  0.19076738211E+02  0.30508243332E+03  0.31790453401E+03  0.83227632734E+02 0.  0.
         23    2    1    2    0    0  0.26405318268E+02 -0.19076738211E+02  0.36091537759E+04  0.36114678964E+04  0.12509286883E+03 0.  0.
          5    1    4    4  502    0 -0.44307435444E+02 -0.34814266611E+02  0.14816135471E+04  0.14826905805E+04  0.41800000000E+01 0. -1.
         -5    1    4    4    0  502  0.70712753712E+02  0.15737528400E+02  0.21275402288E+04  0.21287773160E+04  0.41800000000E+01 0. -1.
        -11    1    3    3    0    0 -0.49905788371E+02 -0.94133391750E+01  0.20585452613E+03  0.21202661294E+03  0.00000000000E+00 0. -1.
         11    1    3    3    0    0  0.23500470103E+02  0.28490077386E+02  0.99227907191E+02  0.10587792107E+03  0.00000000000E+00 0.  1.
</event>
<event>
 8    1  0.5900800E-006  0.1071452E+03  0.7561462E-02  0.1265950E+00
         -1   -1    0    0    0  501 -0.00000000000E+00  0.00000000000E+00  0.27521633460E+02  0.27521633460E+02  0.00000000000E+00 0.  1.
          1   -1    0    0  501    0  0.00000000000E+00 -0.00000000000E+00 -0.54666779376E+03  0.54666779376E+03  0.00000000000E+00 0. -1.
         23    2    1    2    0    0 -0.21202659337E+02 -0.29450108012E+02 -0.12051101287E+03  0.15481587763E+03  0.90156475735E+02 0.  0.
         23    2    1    2    0    0  0.21202659337E+02  0.29450108012E+02 -0.39863514743E+03  0.41937354960E+03  0.12508929494E+03 0.  0.
          5    1    4    4  502    0 -0.15763514733E+02 -0.44400045257E+02 -0.13263845627E+03  0.14082004437E+03  0.41800000000E+01 0.  1.
         -5    1    4    4    0  502  0.36966174070E+02  0.73850153269E+02 -0.26599669116E+03  0.27855350523E+03  0.41800000000E+01 0.  1.
        -11    1    3    3    0    0 -0.25300161802E+02  0.21489495235E+02 -0.12764786602E+02  0.35564538091E+02  0.00000000000E+00 0.  1.
         11    1    3    3    0    0  0.40975024647E+01 -0.50939603247E+02 -0.10774622627E+03  0.11925133954E+03  0.00000000000E+00 0. -1.
</event>
<event>
 8    1  0.5900800E-006  0.9905193E+02  0.7561462E-02  0.1282302E+00
         -1   -1    0    0    0  501 -0.00000000000E+00  0.00000000000E+00  0.39927711444E+03  0.39927711444E+03  0.00000000000E+00 0. -1.
          1   -1    0    0  501    0  0.00000000000E+00 -0.00000000000E+00 -0.41807703823E+02  0.41807703823E+02  0.00000000000E+00 0.  1.
         23    2    1    2    0    0 -0.40651388784E+02 -0.57387255378E+02  0.15418341996E+03  0.19225094580E+03  0.90785828624E+02 0.  0.
         23    2    1    2    0    0  0.40651388784E+02  0.57387255378E+02  0.20328599065E+03  0.24883387247E+03  0.12508904668E+03 0.  0.
          5    1    4    4  502    0  0.42691354378E+02  0.19828935167E+02  0.20555836200E+03  0.21092048501E+03  0.41800000000E+01 0.  1.
         -5    1    4    4    0  502 -0.20399655949E+01  0.37558320211E+02 -0.22723713482E+01  0.37913387454E+02  0.41800000000E+01 0.  1.
        -11    1    3    3    0    0  0.17461663029E+02 -0.51749235721E+02  0.57486882070E+02  0.79294606901E+02  0.00000000000E+00 0.  1.
         11    1    3    3    0    0 -0.58113051813E+02 -0.56380196574E+01  0.96696537893E+02  0.11295633890E+03  0.00000000000E+00 0. -1.
</event>
<event>
 8    1  0.5900800E-006  0.9884058E+02  0.7561462E-02  0.1282753E+00
          1   -1    0    0  501    0  0.00000000000E+00  0.00000000000E+00  0.22611121141E+03  0.22611121141E+03  0.00000000000E+00 0. -1.
         -1   -1    0    0    0  501 -0.00000000000E+00 -0.00000000000E+00 -0.18133279097E+03  0.18133279097E+03  0.00000000000E+00 0.  1.
         23    2    1    2    0    0  0.11104863386E+02 -0.28889310754E+02 -0.15013069313E+03  0.17868870451E+03  0.91828741866E+02 0.  0.
         23    2    1    2    0    0 -0.11104863386E+02  0.28889310754E+02  0.19490911356E+03  0.22875529787E+03  0.11567849190E+03 0.  0.
          5    1    4    4  502    0  0.32301147155E+02  0.49014262741E+02  0.15669136369E+03  0.16737806880E+03  0.41800000000E+01 0. -1.
         -5    1    4    4    0  502 -0.43406010541E+02 -0.20124951987E+02  0.38217749865E+02  0.61377229070E+02  0.41800000000E+01 0.  1.
        -11    1    3    3    0    0 -0.19632018312E+01 -0.58450940282E+02 -0.64018762240E+02  0.86710832657E+02  0.00000000000E+00 0.  1.
         11    1    3    3    0    0  0.13068065217E+02  0.29561629528E+02 -0.86111930886E+02  0.91977871849E+02  0.00000000000E+00 0. -1.
</event>
<event>
 8    1  0.5900800E-006  0.1214481E+03  0.7561462E-02  0.1240727E+00
          2   -1    0    0  501    0  0.00000000000E+00  0.00000000000E+00  0.41232007906E+03  0.41232007906E+03  0.00000000000E+00 0. -1.
         -2   -1    0    0    0  501 -0.00000000000E+00 -0.00000000000E+00 -0.40450394642E+02  0.40450394642E+02  0.00000000000E+00 0.  1.
         23    2    1    2    0    0 -0.33100780250E+02  0.51218738900E+02  0.10789985838E+03  0.15436565375E+03  0.92018230543E+02 0.  0.
         23    2    1    2    0    0  0.33100780250E+02 -0.51218738900E+02  0.26396982604E+03  0.29840481996E+03  0.12508535743E+03 0.  0.
          5    1    4    4  502    0 -0.12568372954E+02  0.33813606333E+02  0.11715475480E+03  0.12265411915E+03  0.41800000000E+01 0. -1.
         -5    1    4    4    0  502  0.45669153204E+02 -0.85032345233E+02  0.14681507124E+03  0.17575070081E+03  0.41800000000E+01 0. -1.
        -11    1    3    3    0    0 -0.35439397729E+02 -0.18660334655E+02  0.45898765268E+02  0.60916792873E+02  0.00000000000E+00 0. -1.
         11    1    3    3    0    0  0.23386174792E+01  0.69879073554E+02  0.62001093112E+02  0.93448860879E+02  0.00000000000E+00 0.  1.
</event>
<event>
 8    1  0.5900800E-006  0.1061943E+03  0.7561462E-02  0.1267784E+00
          1   -1    0    0  501    0  0.00000000000E+00  0.00000000000E+00  0.54755520921E+03  0.54755520921E+03  0.00000000000E+00 0. -1.
         -1   -1    0    0    0  501 -0.00000000000E+00 -0.00000000000E+00 -0.82460952377E+02  0.82460952377E+02  0.00000000000E+00 0.  1.
         23    2    1    2    0    0 -0.81388892819E+01  0.86874418296E+02 -0.16132477185E+02  0.12660117652E+03  0.90300581414E+02 0.  0.
         23    2    1    2    0    0  0.81388892819E+01 -0.86874418296E+02  0.48122673402E+03  0.50341498507E+03  0.11930662841E+03 0.  0.
          5    1    4    4  502    0  0.30449095132E+00 -0.15286776808E+02  0.37308530092E+03  0.37342186924E+03  0.41800000000E+01 0. -1.
         -5    1    4    4    0  502  0.78343983306E+01 -0.71587641488E+02  0.10814143310E+03  0.12999311583E+03  0.41800000000E+01 0.  1.
        -11    1    3    3    0    0 -0.48024955568E+02  0.37514854682E+02  0.70517403574E+00  0.60944712236E+02  0.00000000000E+00 0. -1.
         11    1    3    3    0    0  0.39886066286E+02  0.49359563614E+02 -0.16837651221E+02  0.65656464286E+02  0.00000000000E+00 0.  1.
</event>
<event>
 8    1  0.5900800E-006  0.1229232E+03  0.7561462E-02  0.1238351E+00
         -1   -1    0    0    0  501 -0.00000000000E+00  0.00000000000E+00  0.22190632926E+03  0.22190632926E+03  0.00000000000E+00 0.  1.
          1   -1    0    0  501    0  0.00000000000E+00 -0.00000000000E+00 -0.86620381584E+02  0.86620381584E+02  0.00000000000E+00 0. -1.
         23    2    1    2    0    0 -0.69908780266E+02 -0.67413915989E+01  0.11520402252E+03  0.16367358695E+03  0.92651995878E+02 0.  0.
         23    2    1    2    0    0  0.69908780266E+02  0.67413915989E+01  0.20081925155E+02  0.14485312390E+03  0.12508581001E+03 0.  0.
          5    1    4    4  502    0  0.27963899825E+02 -0.58609387424E+02  0.24829419565E+01  0.65120483632E+02  0.41800000000E+01 0. -1.
         -5    1    4    4    0  502  0.41944880441E+02  0.65350779023E+02  0.17598983199E+02  0.79732640266E+02  0.41800000000E+01 0. -1.
        -11    1    3    3    0    0 -0.43783775072E+02 -0.40959731337E+02  0.10256805114E+03  0.11880624422E+03  0.00000000000E+00 0.  1.
         11    1    3    3    0    0 -0.26125005194E+02  0.34218339738E+02  0.12635971383E+02  0.44867342729E+02  0.00000000000E+00 0. -1.
</event>
<event>
 8    1  0.5900800E-006  0.9501695E+02  0.7561462E-02  0.1291138E+00
          2   -1    0    0  501    0  0.00000000000E+00  0.00000000000E+00  0.16179679002E+03  0.16179679002E+03  0.00000000000E+00 0. -1.
         -2   -1    0    0    0  501 -0.00000000000E+00 -0.00000000000E+00 -0.80350453252E+02  0.80350453252E+02  0.00000000000E+00 0.  1.
         23    2    1    2    0    0  0.51234870060E+01  0.10966781610E+01 -0.83444456391E+00  0.92329492924E+02  0.92176928479E+02 0.  0.
         23    2    1    2    0    0 -0.51234870060E+01 -0.10966781610E+01  0.82280781329E+02  0.14981775035E+03  0.12509108090E+03 0.  0.
          5    1    4    4  502    0 -0.20618146731E+02 -0.60096205672E+02  0.47840642332E+02  0.79642082905E+02  0.41800000000E+01 0. -1.
         -5    1    4    4    0  502  0.15494659725E+02  0.58999527511E+02  0.34440138997E+02  0.70175667440E+02  0.41800000000E+01 0. -1.
        -11    1    3    3    0    0 -0.29972514903E+02  0.26404499492E+01 -0.33028557832E+02  0.44678957665E+02  0.00000000000E+00 0.  1.
         11    1    3    3    0    0  0.35096001910E+02 -0.15437717883E+01  0.32194113268E+02  0.47650535259E+02  0.00000000000E+00 0. -1.
</event>
<event>
 7    1  0.5900800E-006  0.1184499E+03  0.7561462E-02  0.1245676E+00
          1   -1    0    0  501    0  0.00000000000E+00  0.00000000000E+00  0.31300352342E+03  0.31300352342E+03  0.00000000000E+00 0. -1.
         -1   -1    0    0    0  501 -0.00000000000E+00 -0.00000000000E+00 -0.94358155529E+02  0.94358155529E+02  0.00000000000E+00 0.  1.
         23    2    1    2    0    0  0.66971195742E+02 -0.24829120824E+02  0.18634686121E+03  0.23552826781E+03  0.12508711346E+03 0.  0.
          5    1    3    3  502    0  0.42679181665E+02  0.12964543842E+02  0.10455391075E+01  0.44812470325E+02  0.41800000000E+01 0.  1.
         -5    1    3    3    0  502  0.24292014077E+02 -0.37793664666E+02  0.18530132210E+03  0.19071579748E+03  0.41800000000E+01 0.  1.
        -11    1    1    2    0    0 -0.48635401929E+02 -0.50108274949E+02  0.57728204313E+02  0.90602357102E+02  0.00000000000E+00 0. -1.
         11    1    1    2    0    0 -0.18335793812E+02  0.74937395772E+02 -0.25429697626E+02  0.81231054045E+02  0.00000000000E+00 0.  1.
</event>
<event>
 7    1  0.5900800E-006  0.1386324E+03  0.7561462E-02  0.1215181E+00
         -2   -1    0    0    0  501 -0.00000000000E+00  0.00000000000E+00  0.94026400010E+02  0.94026400010E+02  0.00000000000E+00 0.  1.
          2   -1    0    0  501    0  0.00000000000E+00 -0.00000000000E+00 -0.25841045215E+03  0.25841045215E+03  0.00000000000E+00 0. -1.
         23    2    1    2    0    0  0.71996699428E+02 -0.53611498997E+02 -0.65884339052E+01  0.12591287497E+03  0.88050707372E+02 0.  0.
          5    1    1    2  502    0 -0.75596306289E+02  0.90505640613E+02 -0.14530974059E+03  0.18718564479E+03  0.41800000000E+01 0. -1.
         -5    1    1    2    0  502  0.35996068607E+01 -0.36894141616E+02 -0.12485877649E+02  0.39338332397E+02  0.41800000000E+01 0.  1.
        -11    1    3    3    0    0  0.90398744246E+02 -0.38945954780E+02 -0.17500177845E+02  0.99974879742E+02  0.00000000000E+00 0. -1.
         11    1    3    3    0    0 -0.18402044817E+02 -0.14665544217E+02  0.10911743940E+02  0.25937995228E+02  0.00000000000E+00 0.  1.
</event>
<event>
 8    1  0.5900800E-006  0.9801747E+02  0.7561462E-02  0.1284521E+00
          1   -1    0    0  501    0  0.00000000000E+00  0.00000000000E+00  0.47644615316E+03  0.47644615316E+03  0.00000000000E+00 0. -1.
         -1   -1    0    0    0  501 -0.00000000000E+00 -0.00000000000E+00 -0.31411142419E+02  0.31411142419E+02  0.00000000000E+00 0.  1.
         23    2    1    2    0    0 -0.47994360070E+02  0.56207268871E+01  0.13642701599E+03  0.17137371023E+03  0.91769094454E+02 0.  0.
         23    2    1    2    0    0  0.47994360070E+02 -0.56207268871E+01  0.30860799475E+03  0.33648358535E+03  0.12508899878E+03 0.  0.
          5    1    4    4  502    0 -0.16720655716E+02  0.33718915929E+02  0.20275380552E+03  0.20625984503E+03  0.41800000000E+01 0.  1.
         -5    1    4    4    0  502  0.64715015785E+02 -0.39339642816E+02  0.10585418923E+03  0.13022374032E+03  0.41800000000E+01 0.  1.
        -11    1    3    3    0    0 -0.49198976994E+01  0.31622675904E+02  0.73488179773E+01  0.32836019101E+02  0.00000000000E+00 0.  1.
         11    1    3    3    0    0 -0.43074462370E+02 -0.26001949017E+02  0.12907819802E+03  0.13853769113E+03  0.00000000000E+00 0. -1.
</event>
<event>
 8    1  0.5900800E-006  0.1175100E+03  0.7561462E-02  0.1247262E+00
          1   -1    0    0  501    0  0.00000000000E+00  0.00000000000E+00  0.78910396832E+03  0.78910396832E+03  0.00000000000E+00 0. -1.
         -1   -1    0    0    0  501 -0.00000000000E+00 -0.00000000000E+00 -0.26818786367E+02  0.26818786367E+02  0.00000000000E+00 0.  1.
         23    2    1    2    0    0  0.60702539528E+02  0.72640121677E+02  0.29309498100E+03  0.32120275421E+03  0.91132627764E+02 0.  0.
         23    2    1    2    0    0 -0.60702539528E+02 -0.72640121677E+02  0.46919020095E+03  0.49472000047E+03  0.12508816338E+03 0.  0.
          5    1    4    4  502    0 -0.49830567262E+02 -0.12581174082E+02  0.39593487936E+03  0.39927843978E+03  0.41800000000E+01 0.  1.
         -5    1    4    4    0  502 -0.10871972266E+02 -0.60058947595E+02  0.73255321586E+02  0.95441560695E+02  0.41800000000E+01 0.  1.
        -11    1    3    3    0    0  0.78258615865E+01 -0.16711311940E+02  0.10264737950E+03  0.10429284048E+03  0.00000000000E+00 0. -1.
         11    1    3    3    0    0  0.52876677941E+02  0.89351433618E+02  0.19044760150E+03  0.21690991374E+03  0.00000000000E+00 0.  1.
</event>
<event>
 8    1  0.5900800E-006  0.1302660E+03  0.7561462E-02  0.1227062E+00
         -2   -1    0    0    0  501 -0.00000000000E+00  0.00000000000E+00  0.84727860181E+02  0.84727860181E+02  0.00000000000E+00 0.  1.
          2   -1    0    0  501    0  0.00000000000E+00 -0.00000000000E+00 -0.25524811471E+03  0.25524811471E+03  0.00000000000E+00 0. -1.
         23    2    1    2    0    0 -0.80098192742E+02  0.55086809524E+02 -0.59745980825E+02  0.14666952464E+03  0.92152537505E+02 0.  0.
         23    2    1    2    0    0  0.80098192742E+02 -0.55086809524E+02 -0.11077427371E+03  0.19330645026E+03  0.12508463907E+03 0.  0.
          5    1    4    4  502    0  0.23315719772E+02 -0.71509051447E+02 -0.11088077134E+03  0.13404918903E+03  0.41800000000E+01 0.  1.
         -5    1    4    4    0  502  0.56782472970E+02  0.16422241923E+02  0.10649762984E+00  0.59257261227E+02  0.41800000000E+01 0.  1.
        -11    1    3    3    0    0 -0.84271557312E+02  0.14944943677E+02 -0.15852633878E+02  0.87042246721E+02  0.00000000000E+00 0.  1.
         11    1    3    3    0    0  0.41733645702E+01  0.40141865846E+02 -0.43893346947E+02  0.59627277916E+02  0.00000000000E+00 0. -1.
</event>
<event>
 8    1  0.5900800E-006  0.1279246E+03  0.7561462E-02  0.1230568E+00
         -1   -1    0    0    0  501 -0.00000000000E+00  0.00000000000E+00  0.51338667822E+02  0.51338667822E+02  0.00000000000E+00 0.  1.
          1   -1    0    0  501    0  0.00000000000E+00 -0.00000000000E+00 -0.48865870025E+03  0.48865870025E+03  0.00000000000E+00 0. -1.
         23    2    1    2    0    0  0.80552859609E+02 -0.50846741795E+02 -0.91885900752E+02  0.16046211527E+03  0.90724403202E+02 0.  0.
         23    2    1    2    0    0 -0.80552859609E+02  0.50846741795E+02 -0.34543413168E+03  0.37953525281E+03  0.12509242364E+03 0.  0.
          5    1    4    4  502    0  0.20490250503E+02  0.43044920428E+01 -0.17283163835E+03  0.17414541807E+03  0.41800000000E+01 0.  1.
         -5    1    4    4    0  502 -0.10104311011E+03  0.46542249752E+02 -0.17260249332E+03  0.20538983474E+03  0.41800000000E+01 0.  1.
        -11    1    3    3    0    0  0.96129350917E+02 -0.47570187073E+02 -0.96084810587E+02  0.14400022789E+03  0.00000000000E+00 0. -1.
         11    1    3    3    0    0 -0.15576491308E+02 -0.32765547227E+01  0.41989098351E+01  0.16461887380E+02  0.00000000000E+00 0.  1.
</event>
<event>
 8    1  0.5900800E-006  0.7596499E+02  0.7561462E-02  0.1340909E+00
         -2   -1    0    0    0  501 -0.00000000000E+00  0.00000000000E+00  0.59755259628E+02  0.59755259628E+02  0.00000000000E+00 0.  1.
          2   -1    0    0  501    0  0.00000000000E+00 -0.00000000000E+00 -0.28230051046E+03  0.28230051046E+03  0.00000000000E+00 0. -1.
         23    2    1    2    0    0  0.28933178392E+02  0.57426615417E+02 -0.60115535242E+02  0.12719475621E+03  0.91813307643E+02 0.  0.
         23    2    1    2    0    0 -0.28933178392E+02 -0.57426615417E+02 -0.16242971559E+03  0.21486101387E+03  0.12508756056E+03 0.  0.
          5    1    4    4  502    0  0.56628943129E+01 -0.28732973632E+02 -0.16689819616E+03  0.16949965318E+03  0.41800000000E+01 0. -1.
         -5    1    4    4    0  502 -0.34596072705E+02 -0.28693641785E+02  0.44684805722E+01  0.45361360696E+02  0.41800000000E+01 0. -1.
        -11    1    3    3    0    0 -0.28443311586E+01  0.41616354709E+02 -0.77241802919E+02  0.87785575792E+02  0.00000000000E+00 0. -1.
         11    1    3    3    0    0  0.31777509551E+02  0.15810260708E+02  0.17126267676E+02  0.39409180421E+02  0.00000000000E+00 0.  1.
</event>
<event>
 8    1  0.5900800E-006  0.1021777E+03  0.7561462E-02  0.1275782E+00
          2   -1    0    0  501    0  0.00000000000E+00  0.00000000000E+00  0.83487641455E+03  0.83487641455E+03  0.00000000000E+00 0. -1.
         -2   -1    0    0    0  501 -0.00000000000E+00 -0.00000000000E+00 -0.15917709427E+02  0.15917709427E+02  0.00000000000E+00 0.  1.
         23    2    1    2    0    0 -0.35226531818E+02  0.19587659450E+02  0.35556320341E+03  0.36912271178E+03  0.90563788503E+02 0.  0.
         23    2    1    2    0    0  0.35226531818E+02 -0.19587659450E+02  0.46339550171E+03  0.48167141219E+03  0.12508946147E+03 0.  0.
          5    1    4    4  502    0  0.48004889296E+02 -0.52295511465E+02  0.14690143280E+03  0.16320782234E+03  0.41800000000E+01 0.  1.
         -5    1    4    4    0  502 -0.12778357478E+02  0.32707852015E+02  0.31649406891E+03  0.31846358985E+03  0.41800000000E+01 0.  1.
        -11    1    3    3    0    0 -0.65213209826E+02  0.78697932679E+01  0.20962609885E+03  0.21967657522E+03  0.00000000000E+00 0. -1.
         11    1    3    3    0    0  0.29986678008E+02  0.11717866183E+02  0.14593710455E+03  0.14944613656E+03  0.00000000000E+00 0.  1.
</event>
<event>
 8    1  0.5900800E-006  0.1000532E+03  0.7561462E-02  0.1280184E+00
          2   -1    0    0  501    0  0.00000000000E+00  0.00000000000E+00  0.11890537908E+04  0.11890537908E+04  0.00000000000E+00 0.  1.
         -2   -1    0    0    0  501 -0.00000000000E+00 -0.00000000000E+00 -0.31427710801E+02  0.31427710801E+02  0.00000000000E+00 0. -1.
         23    2    1    2    0    0  0.85867710076E+02  0.48449284227E+02  0.14614517205E+03  0.19653723303E+03  0.86878512193E+02 0.  0.
         23    2    1    2    0    0 -0.85867710076E+02 -0.48449284227E+02  0.10114809080E+04  0.10239442686E+04  0.12509053201E+03 0.  0.
          5    1    4    4  502    0 -0.69549054973E+02 -0.33366961455E+02  0.23988800110E+03  0.25202013934E+03  0.41800000000E+01 0. -1.
         -5    1    4    4    0  502 -0.16318655104E+02 -0.15082322772E+02  0.77159290689E+03  0.77192412926E+03  0.41800000000E+01 0. -1.
        -11    1    3    3    0    0  0.44582176675E+02  0.35453685631E+02  0.14206975303E+03  0.15306321906E+03  0.00000000000E+00 0.  1.
         11    1    3    3    0    0  0.41285533401E+02  0.12995598596E+02  0.40754190138E+01  0.43474013976E+02  0.00000000000E+00 0. -1.
</event>
<event>
 8    1  0.5900800E-006  0.1051537E+03  0.7561462E-02  0.1269817E+00
         -1   -1    0    0    0  501 -0.00000000000E+00  0.00000000000E+00  0.65686548335E+02  0.65686548335E+02  0.00000000000E+00 0.  1.
          1   -1    0    0  501    0  0.00000000000E+00 -0.00000000000E+00 -0.23603837239E+03  0.23603837239E+03  0.00000000000E+00 0. -1.
         23    2    1    2    0    0 -0.15856668238E+02  0.49349267798E+02 -0.36689501946E+02  0.11141060375E+03  0.91539166019E+02 0.  0.
         23    2    1    2    0    0  0.15856668238E+02 -0.49349267798E+02 -0.13366232211E+03  0.19031431697E+03  0.12516844144E+03 0.  0.
          5    1    4    4  502    0  0.45641529987E+02 -0.64359386731E+02 -0.13527757396E+03  0.15666133644E+03  0.41800000000E+01 0.  1.
         -5    1    4    4    0  502 -0.29784861749E+02  0.15010118934E+02  0.16152518524E+01  0.33652980527E+02  0.41800000000E+01 0.  1.
        -11    1    3    3    0    0  0.12086840269E+02 -0.19745309824E+02 -0.28065860561E+02  0.36382159045E+02  0.00000000000E+00 0. -1.
         11    1    3    3    0    0 -0.27943508507E+02  0.69094577622E+02 -0.86236413851E+01  0.75028444707E+02  0.00000000000E+00 0.  1.
</event>
<event>
 8    1  0.5900800E-006  0.9741192E+02  0.7561462E-02  0.1285834E+00
          1   -1    0    0  501    0  0.00000000000E+00  0.00000000000E+00  0.71703367072E+03  0.71703367072E+03  0.00000000000E+00 0. -1.
         -1   -1    0    0    0  501 -0.00000000000E+00 -0.00000000000E+00 -0.19427110630E+02  0.19427110630E+02  0.00000000000E+00 0.  1.
         23    2    1    2    0    0  0.28556153093E+02 -0.31022804505E+02  0.22306872566E+03  0.24390540099E+03  0.89175781384E+02 0.  0.
         23    2    1    2    0    0 -0.28556153093E+02  0.31022804505E+02  0.47453783444E+03  0.49255538036E+03  0.12508708221E+03 0.  0.
          5    1    4    4  502    0 -0.64182802533E+02  0.47626283663E+02  0.20386563810E+03  0.21901225042E+03  0.41800000000E+01 0.  1.
         -5    1    4    4    0  502  0.35626649440E+02 -0.16603479159E+02  0.27067219634E+03  0.27354312994E+03  0.41800000000E+01 0.  1.
        -11    1    3    3    0    0  0.34312378794E+02 -0.47051182507E+02  0.21870434483E+03  0.22632442105E+03  0.00000000000E+00 0. -1.
         11    1    3    3    0    0 -0.57562257013E+01  0.16028378003E+02  0.43643808279E+01  0.17580979943E+02  0.00000000000E+00 0.  1.
</event>
<event>
 8    1  0.5900800E-006  0.9492041E+02  0.7561462E-02  0.1291355E+00
          2   -1    0    0  501    0  0.00000000000E+00  0.00000000000E+00  0.11213225881E+03  0.11213225881E+03  0.00000000000E+00 0. -1.
         -2   -1    0    0    0  501 -0.00000000000E+00 -0.00000000000E+00 -0.13443673092E+03  0.13443673092E+03  0.00000000000E+00 0.  1.
         23    2    1    2    0    0 -0.70271043838E+01  0.43541554392E+02 -0.45863690556E+02  0.11185318901E+03  0.91991361688E+02 0.  0.
         23    2    1    2    0    0  0.70271043838E+01 -0.43541554392E+02  0.23559218452E+02  0.13471580072E+03  0.12509221812E+03 0.  0.
          5    1    4    4  502    0  0.48760119251E+02  0.22806582783E+02  0.64143274791E+01  0.54371917794E+02  0.41800000000E+01 0. -1.
         -5    1    4    4    0  502 -0.41733014867E+02 -0.66348137175E+02  0.17144890973E+02  0.80343882922E+02  0.41800000000E+01 0. -1.
        -11    1    3    3    0    0 -0.22108051739E+02  0.28325611978E+02 -0.70546306234E+02  0.79169991593E+02  0.00000000000E+00 0.  1.
         11    1    3    3    0    0  0.15080947355E+02  0.15215942414E+02  0.24682615678E+02  0.32683197416E+02  0.00000000000E+00 0. -1.
</event>
<event>
 8    1  0.5900800E-006  0.1462133E+03  0.7561462E-02  0.1205205E+00
          3   -1    0    0  501    0  0.00000000000E+00  0.00000000000E+00  0.16843292920E+03  0.16843292920E+03  0.00000000000E+00 0. -1.
         -3   -1    0    0    0  501 -0.00000000000E+00 -0.00000000000E+00 -0.13200488826E+03  0.13200488826E+03  0.00000000000E+00 0.  1.
         23    2    1    2    0    0 -0.93515341888E+02 -0.29939722367E+02 -0.10676198390E+02  0.13458216027E+03  0.91415920418E+02 0.  0.
         23    2    1    2    0    0  0.93515341888E+02  0.29939722367E+02  0.47104239333E+02  0.16585565720E+03  0.12509110087E+03 0.  0.
          5    1    4    4  502    0 -0.24115949611E+02  0.32879597709E+02  0.16624458189E+02  0.44232250465E+02  0.41800000000E+01 0.  1.
         -5    1    4    4    0  502  0.11763129150E+03 -0.29398753421E+01  0.30479781144E+02  0.12162340673E+03  0.41800000000E+01 0.  1.
        -11    1    3    3    0    0 -0.42649126939E+02  0.32164868295E+02  0.11989196812E+01  0.53431864926E+02  0.00000000000E+00 0.  1.
         11    1    3    3    0    0 -0.50866214950E+02 -0.62104590662E+02 -0.11875118071E+02  0.81150295340E+02  0.00000000000E+00 0. -1.
</event>
<event>
 8    1  0.5900800E-006  0.1090605E+03  0.7561462E-02  0.1262320E+00
          1   -1    0    0  501    0  0.00000000000E+00  0.00000000000E+00  0.16002486652E+03  0.16002486652E+03  0.00000000000E+00 0. -1.
         -1   -1    0    0    0  501 -0.00000000000E+00 -0.00000000000E+00 -0.19023091732E+03  0.19023091732E+03  0.00000000000E+00 0.  1.
         23    2    1    2    0    0  0.74989422289E+02 -0.26974990010E+02 -0.12684169064E+03  0.17323346388E+03  0.87005488225E+02 0.  0.
         23    2    1    2    0    0 -0.74989422289E+02  0.26974990010E+02  0.96635639836E+02  0.17702231997E+03  0.12508953329E+03 0.  0.
          5    1    4    4  502    0  0.27377010066E+02  0.48740996376E+01  0.59533710096E+02  0.65840660426E+02  0.41800000000E+01 0.  1.
         -5    1    4    4    0  502 -0.10236643235E+03  0.22100890373E+02  0.37101929740E+02  0.11118165954E+03  0.41800000000E+01 0.  1.
        -11    1    3    3    0    0  0.47891633270E+02 -0.13700687059E+01 -0.12722789171E+03  0.13595007192E+03  0.00000000000E+00 0.  1.
         11    1    3    3    0    0  0.27097789019E+02 -0.25604921304E+02  0.38620107058E+00  0.37283391959E+02  0.00000000000E+00 0. -1.
</event>
<event>
 8    1  0.5900800E-006  0.1874279E+03  0.7561462E-02  0.1160802E+00
          2   -1    0    0  501    0  0.00000000000E+00  0.00000000000E+00  0.13740952553E+04  0.13740952553E+04  0.00000000000E+00 0. -1.
         -2   -1    0    0    0  501 -0.00000000000E+00 -0.00000000000E+00 -0.32616403798E+02  0.32616403798E+02  0.00000000000E+00 0.  1.
         23    2    1    2    0    0  0.28331698633E+02 -0.17804976490E+03  0.66980331347E+03  0.69979382433E+03  0.92577070074E+02 0.  0.
         23    2    1    2    0    0 -0.28331698633E+02  0.17804976490E+03  0.67167553801E+03  0.70691783475E+03  0.12680848866E+03 0.  0.
          5    1    4    4  502    0  0.73714420237E+01  0.47155868147E+02  0.40361241736E+03  0.40644614638E+03  0.41800000000E+01 0.  1.
         -5    1    4    4    0  502 -0.35703140657E+02  0.13089389675E+03  0.26806312065E+03  0.30047168837E+03  0.41800000000E+01 0.  1.
        -11    1    3    3    0    0 -0.20558294294E+02 -0.60302483230E+02  0.34558704294E+03  0.35141063899E+03  0.00000000000E+00 0. -1.
         11    1    3    3    0    0  0.48889992927E+02 -0.11774728167E+03  0.32421627053E+03  0.34838318533E+03  0.00000000000E+00 0.  1.
</event>
<event>
 8    1  0.5900800E-006  0.8721886E+02  0.7561462E-02  0.1309730E+00
         -1   -1    0    0    0  501 -0.00000000000E+00  0.00000000000E+00  0.96101845479E+02  0.96101845479E+02  0.00000000000E+00 0.  1.
          1   -1    0    0  501    0  0.00000000000E+00 -0.00000000000E+00 -0.17354101459E+03  0.17354101459E+03  0.00000000000E+00 0. -1.
         23    2    1    2    0    0 -0.20708441385E+02  0.69005865009E+02 -0.30470969229E+02  0.11783863217E+03  0.88129531463E+02 0.  0.
         23    2    1    2    0    0  0.20708441385E+02 -0.69005865009E+02 -0.46968199877E+02  0.15180422789E+03  0.12509141800E+03 0.  0.
          5    1    4    4  502    0  0.29207527866E+02 -0.39462546553E+02 -0.87705285922E+02  0.10059851810E+03  0.41800000000E+01 0.  1.
         -5    1    4    4    0  502 -0.84990864817E+01 -0.29543318456E+02  0.40737086045E+02  0.51205709797E+02  0.41800000000E+01 0.  1.
        -11    1    3    3    0    0  0.18483067913E+02  0.43807058422E+02  0.17780869438E+02  0.50762599274E+02  0.00000000000E+00 0.  1.
         11    1    3    3    0    0 -0.39191509298E+02  0.25198806587E+02 -0.48251838666E+02  0.67076032897E+02  0.00000000000E+00 0. -1.
</event>
<event>
 8    1  0.5900800E-006  0.1674202E+03  0.7561462E-02  0.1180565E+00
          1   -1    0    0  501    0  0.00000000000E+00  0.00000000000E+00  0.53523182555E+03  0.53523182555E+03  0.00000000000E+00 0. -1.
         -1   -1    0    0    0  501 -0.00000000000E+00 -0.00000000000E+00 -0.68027776310E+02  0.68027776310E+02  0.00000000000E+00 0.  1.
         23    2    1    2    0    0  0.96343831238E+02 -0.89731047739E+02  0.88575729248E+02  0.18333072584E+03  0.91818845993E+02 0.  0.
         23    2    1    2    0    0 -0.96343831238E+02  0.89731047739E+02  0.37862831999E+03  0.41992887602E+03  0.12508821475E+03 0.  0.
          5    1    4    4  502    0 -0.51140288533E+02 -0.25614237342E+02  0.10876424317E+03  0.12295751811E+03  0.41800000000E+01 0.  1.
         -5    1    4    4    0  502 -0.45203542705E+02  0.11534528508E+03  0.26986407682E+03  0.29697135791E+03  0.41800000000E+01 0.  1.
        -11    1    3    3    0    0 -0.10308037103E+02  0.44717585298E+01  0.25132928820E+02  0.27530280862E+02  0.00000000000E+00 0. -1.
         11    1    3    3    0    0  0.10665186834E+03 -0.94202806269E+02  0.63442800428E+02  0.15580044498E+03  0.00000000000E+00 0.  1.
</event>
<event>
 8    1  0.8437877E-006  0.1339325E+03  0.7561462E-02  0.1221735E+00
         -2   -1    0    0    0  501 -0.00000000000E+00  0.00000000000E+00  0.10431487068E+03  0.10431487068E+03  0.00000000000E+00 0.  1.
          2   -1    0    0  501    0  0.00000000000E+00 -0.00000000000E+00 -0.21465715347E+03  0.21465715347E+03  0.00000000000E+00 0. -1.
         23    2    1    2    0    0 -0.96076515781E+01 -0.10462071062E+03 -0.38256595396E+02  0.14041761711E+03  0.84945512213E+02 0.  0.
         23    2    1    2    0    0  0.96076515781E+01  0.10462071062E+03 -0.72085687390E+02  0.17855440704E+03  0.12509008708E+03 0.  0.
          5    1    4    4  502    0  0.65884380713E+02  0.48715430085E+02 -0.50101987210E+02  0.96133377516E+02  0.41800000000E+01 0. -1.
         -5    1    4    4    0  502 -0.56276729135E+02  0.55905280531E+02 -0.21983700180E+02  0.82421029519E+02  0.41800000000E+01 0. -1.
        -11    1    3    3    0    0  0.46970832522E+01 -0.34621320833E+02  0.26609843046E+02  0.43917902890E+02  0.00000000000E+00 0.  1.
         11    1    3    3    0    0 -0.14304734830E+02 -0.69999389783E+02 -0.64866438442E+02  0.96499714221E+02  0.00000000000E+00 0. -1.
</event>
<event>
 8    1  0.5900800E-006  0.1737410E+03  0.7561462E-02  0.1174002E+00
          2   -1    0    0  501    0  0.00000000000E+00  0.00000000000E+00  0.70969862958E+03  0.70969862958E+03  0.00000000000E+00 0. -1.
         -2   -1    0    0    0  501 -0.00000000000E+00 -0.00000000000E+00 -0.46386456496E+02  0.46386456496E+02  0.00000000000E+00 0.  1.
         23    2    1    2    0    0 -0.46318275284E+02  0.13489684209E+03  0.36502440555E+03  0.40258240159E+03  0.92126178636E+02 0.  0.
         23    2    1    2    0    0  0.46318275284E+02 -0.13489684209E+03  0.29828776753E+03  0.35350268448E+03  0.12508403194E+03 0.  0.
          5    1    4    4  502    0  0.30277022954E+02  0.97698171342E+01  0.15964148843E+02  0.35839557671E+02  0.41800000000E+01 0. -1.
         -5    1    4    4    0  502  0.16041252331E+02 -0.14466665922E+03  0.28232361869E+03  0.31766312681E+03  0.41800000000E+01 0. -1.
        -11    1    3    3    0    0  0.28318660429E+02  0.41118346343E+02  0.10514163231E+03  0.11639341811E+03  0.00000000000E+00 0.  1.
         11    1    3    3    0    0 -0.74636935714E+02  0.93778495748E+02  0.25988277324E+03  0.28618898348E+03  0.00000000000E+00 0. -1.
</event>
<event>
 8    1  0.5900800E-006  0.1181286E+03  0.7561462E-02  0.1246217E+00
         -3   -1    0    0    0  501 -0.00000000000E+00  0.00000000000E+00  0.66761599670E+03  0.66761599670E+03  0.00000000000E+00 0.  1.
          3   -1    0    0  501    0  0.00000000000E+00 -0.00000000000E+00 -0.32585858698E+02  0.32585858698E+02  0.00000000000E+00 0. -1.
         23    2    1    2    0    0 -0.89104454903E+02  0.17836644216E+02  0.38994359559E+03  0.41041878994E+03  0.90165545722E+02 0.  0.
         23    2    1    2    0    0  0.89104454903E+02 -0.17836644216E+02  0.24508654241E+03  0.28978306546E+03  0.12509621095E+03 0.  0.
          5    1    4    4  502    0  0.97207653115E+02 -0.13313801883E+02  0.86491885282E+02  0.13086215559E+03  0.41800000000E+01 0.  1.
         -5    1    4    4    0  502 -0.81031982118E+01 -0.45228423324E+01  0.15859465713E+03  0.15892090987E+03  0.41800000000E+01 0.  1.
        -11    1    3    3    0    0 -0.23146011538E+02 -0.35956415634E+02  0.13955785849E+03  0.14596231549E+03  0.00000000000E+00 0. -1.
         11    1    3    3    0    0 -0.65958443365E+02  0.53793059850E+02  0.25038573710E+03  0.26445647446E+03  0.00000000000E+00 0.  1.
</event>
<event>
 8    1  0.5900800E-006  0.7109700E+02  0.7561462E-02  0.1356402E+00
          1   -1    0    0  501    0  0.00000000000E+00  0.00000000000E+00  0.17278268128E+03  0.17278268128E+03  0.00000000000E+00 0. -1.
         -1   -1    0    0    0  501 -0.00000000000E+00 -0.00000000000E+00 -0.89422895423E+02  0.89422895423E+02  0.00000000000E+00 0.  1.
         23    2    1    2    0    0 -0.14322206981E+02  0.51880401122E+00 -0.23995041357E+02  0.96739420866E+02  0.92614031169E+02 0.  0.
         23    2    1    2    0    0  0.14322206981E+02 -0.51880401122E+00  0.10735482721E+03  0.16546615583E+03  0.12509434452E+03 0.  0.
          5    1    4    4  502    0 -0.17248529400E+02  0.29829800923E+01  0.12674557870E+03  0.12801688974E+03  0.41800000000E+01 0. -1.
         -5    1    4    4    0  502  0.31570736381E+02 -0.35017841035E+01 -0.19390751495E+02  0.37449266096E+02  0.41800000000E+01 0. -1.
        -11    1    3    3    0    0 -0.37768132464E+02  0.34313325686E+02 -0.21975493428E+02  0.55558603842E+02  0.00000000000E+00 0.  1.
         11    1    3    3    0    0  0.23445925483E+02 -0.33794521674E+02 -0.20195479292E+01  0.41180817024E+02  0.00000000000E+00 0. -1.
</event>
<event>
 8    1  0.5900800E-006  0.7772623E+02  0.7561462E-02  0.1335631E+00
         -1   -1    0    0    0  501 -0.00000000000E+00  0.00000000000E+00  0.14009420149E+03  0.14009420149E+03  0.00000000000E+00 0.  1.
          1   -1    0    0  501    0  0.00000000000E+00 -0.00000000000E+00 -0.84161469180E+02  0.84161469180E+02  0.00000000000E+00 0. -1.
         23    2    1    2    0    0  0.57542499942E+00  0.19166487996E+01  0.29051975834E+02  0.96292737517E+02  0.91783818520E+02 0.  0.
         23    2    1    2    0    0 -0.57542499942E+00 -0.19166487996E+01  0.26880756478E+02  0.12796293316E+03  0.12509169651E+03 0.  0.
          5    1    4    4  502    0  0.35619847712E+02 -0.47175015759E+02 -0.86047279391E+01  0.59881294289E+02  0.41800000000E+01 0. -1.
         -5    1    4    4    0  502 -0.36195272712E+02  0.45258366959E+02  0.35485484417E+02  0.68081638867E+02  0.41800000000E+01 0. -1.
        -11    1    3    3    0    0  0.17844352492E+02  0.82987641139E+01  0.58411899065E+02  0.61637978179E+02  0.00000000000E+00 0.  1.
         11    1    3    3    0    0 -0.17268927493E+02 -0.63821153143E+01 -0.29359923230E+02  0.34654759338E+02  0.00000000000E+00 0. -1.
</event>
<event>
 6    1  0.5900800E-006  0.9881065E+02  0.7561462E-02  0.1282817E+00
         -1   -1    0    0    0  501 -0.00000000000E+00  0.00000000000E+00  0.15826525714E+02  0.15826525714E+02  0.00000000000E+00 0.  1.
          1   -1    0    0  501    0  0.00000000000E+00 -0.00000000000E+00 -0.22719534137E+04  0.22719534137E+04  0.00000000000E+00 0. -1.
          5    1    1    2  502    0 -0.19553755410E+02 -0.64772783766E+02 -0.19835957453E+04  0.19847537420E+04  0.41800000000E+01 0. -1.
         -5    1    1    2    0  502 -0.78128809827E+01  0.86880267570E+02 -0.18970499395E+03  0.20884127737E+03  0.41800000000E+01 0.  1.
        -11    1    1    2    0    0  0.12764984784E+01 -0.15546745605E+02 -0.46043040821E+02  0.48613705427E+02  0.00000000000E+00 0. -1.
         11    1    1    2    0    0  0.26090137914E+02 -0.65607381984E+01 -0.36783107914E+02  0.45571214708E+02  0.00000000000E+00 0.  1.
</event>
<event>
 8    1  0.5900800E-006  0.7458709E+02  0.7561462E-02  0.1345154E+00
         -2   -1    0    0    0  501 -0.00000000000E+00  0.00000000000E+00  0.91556316335E+02  0.91556316335E+02  0.00000000000E+00 0.  1.
          2   -1    0    0  501    0  0.00000000000E+00 -0.00000000000E+00 -0.15093374239E+03  0.15093374239E+03  0.00000000000E+00 0. -1.
         23    2    1    2    0    0  0.30240504448E+02  0.32672822773E+02 -0.97013963137E+01  0.10072380594E+03  0.89828539649E+02 0.  0.
         23    2    1    2    0    0 -0.30240504448E+02 -0.32672822773E+02 -0.49676029742E+02  0.14176625278E+03  0.12509181045E+03 0.  0.
          5    1    4    4  502    0 -0.12906286958E+02 -0.48387879255E+02 -0.85263769726E+02  0.98971419762E+02  0.41800000000E+01 0.  1.
         -5    1    4    4    0  502 -0.17334217490E+02  0.15715056483E+02  0.35587739984E+02  0.42794833022E+02  0.41800000000E+01 0.  1.
        -11    1    3    3    0    0  0.80558071505E+01 -0.18063352913E+02  0.27601973659E+02  0.33956585475E+02  0.00000000000E+00 0.  1.
         11    1    3    3    0    0  0.22184697298E+02  0.50736175685E+02 -0.37303369972E+02  0.66767220465E+02  0.00000000000E+00 0. -1.
</event>
<event>
 8    1  0.5900800E-006  0.1110790E+03  0.7561462E-02  0.1258585E+00
          1   -1    0    0  501    0  0.00000000000E+00  0.00000000000E+00  0.11936024902E+04  0.11936024902E+04  0.00000000000E+00 0. -1.
         -1   -1    0    0    0  501 -0.00000000000E+00 -0.00000000000E+00 -0.11759184896E+02  0.11759184896E+02  0.00000000000E+00 0.  1.
         23    2    1    2    0    0  0.31358532671E+02  0.32131426170E+02  0.39616259672E+03  0.40851953237E+03  0.89037178575E+02 0.  0.
         23    2    1    2    0    0 -0.31358532671E+02 -0.32131426170E+02  0.78568070857E+03  0.79684214271E+03  0.12508972166E+03 0.  0.
          5    1    4    4  502    0  0.34293615676E+02  0.20773209331E+02  0.40024180364E+03  0.40226676732E+03  0.41800000000E+01 0. -1.
         -5    1    4    4    0  502 -0.65652148347E+02 -0.52904635501E+02  0.38543890493E+03  0.39457537540E+03  0.41800000000E+01 0. -1.
        -11    1    3    3    0    0 -0.29203133349E+02  0.73858685156E+00  0.82332072321E+02  0.87360967489E+02  0.00000000000E+00 0.  1.
         11    1    3    3    0    0  0.60561666020E+02  0.31392839318E+02  0.31383052440E+03  0.32115856488E+03  0.00000000000E+00 0. -1.
</event>
<event>
 8    1  0.5900800E-006  0.1317500E+03  0.7561462E-02  0.1224882E+00
         -2   -1    0    0    0  501 -0.00000000000E+00  0.00000000000E+00  0.55699913097E+02  0.55699913097E+02  0.00000000000E+00 0.  1.
          2   -1    0    0  501    0  0.00000000000E+00 -0.00000000000E+00 -0.65083819372E+03  0.65083819372E+03  0.00000000000E+00 0. -1.
         23    2    1    2    0    0 -0.49576081062E+02  0.78053038468E+02 -0.47624896436E+02  0.13841062335E+03  0.91319796695E+02 0.  0.
         23    2    1    2    0    0  0.49576081062E+02 -0.78053038468E+02 -0.54751338419E+03  0.56812748347E+03  0.12019928027E+03 0.  0.
          5    1    4    4  502    0  0.78301598547E+02 -0.16965190573E+02 -0.35880869944E+03  0.36766848277E+03  0.41800000000E+01 0. -1.
         -5    1    4    4    0  502 -0.28725517485E+02 -0.61087847895E+02 -0.18870468475E+03  0.20045900070E+03  0.41800000000E+01 0.  1.
        -11    1    3    3    0    0 -0.67407378568E+02  0.59587121094E+02 -0.68511384402E+01  0.90229251264E+02  0.00000000000E+00 0.  1.
         11    1    3    3    0    0  0.17831297506E+02  0.18465917374E+02 -0.40773757995E+02  0.48181372088E+02  0.00000000000E+00 0. -1.
</event>
<event>
 8    1  0.5900800E-006  0.1285755E+03  0.7561462E-02  0.1229585E+00
         -1   -1    0    0    0  501 -0.00000000000E+00  0.00000000000E+00  0.23294566032E+03  0.23294566032E+03  0.00000000000E+00 0.  1.
          1   -1    0    0  501    0  0.00000000000E+00 -0.00000000000E+00 -0.84964858471E+02  0.84964858471E+02  0.00000000000E+00 0. -1.
         23    2    1    2    0    0  0.59903811323E+02  0.61184853992E+02  0.98421920320E+02  0.15844246083E+03  0.89917106413E+02 0.  0.
         23    2    1    2    0    0 -0.59903811323E+02 -0.61184853992E+02  0.49558881532E+02  0.15946805796E+03  0.12506768489E+03 0.  0.
          5    1    4    4  502    0  0.33686908686E+02 -0.43915602346E+02  0.26227871159E+02  0.61390240037E+02  0.41800000000E+01 0.  1.
         -5    1    4    4    0  502 -0.93590720009E+02 -0.17269251646E+02  0.23331010373E+02  0.98077817926E+02  0.41800000000E+01 0.  1.
        -11    1    3    3    0    0  0.65657436406E+02  0.25817886198E+02  0.10022366465E+03  0.12256526898E+03  0.00000000000E+00 0.  1.
         11    1    3    3    0    0 -0.57536250833E+01  0.35366967794E+02 -0.18017443346E+01  0.35877191852E+02  0.00000000000E+00 0. -1.
</event>
<event>
 8    1  0.5900800E-006  0.7975984E+02  0.7561462E-02  0.1329734E+00
         -2   -1    0    0    0  501 -0.00000000000E+00  0.00000000000E+00  0.36572830721E+02  0.36572830721E+02  0.00000000000E+00 0.  1.
          2   -1    0    0  501    0  0.00000000000E+00 -0.00000000000E+00 -0.37255937457E+03  0.37255937457E+03  0.00000000000E+00 0. -1.
         23    2    1    2    0    0 -0.16423248246E+02 -0.14632990457E+02 -0.82506643840E+02  0.12561280087E+03  0.92126988288E+02 0.  0.
         23    2    1    2    0    0  0.16423248246E+02  0.14632990457E+02 -0.25347990001E+03  0.28351940442E+03  0.12508935000E+03 0.  0.
          5    1    4    4  502    0  0.42897045058E+02 -0.31321056543E+01 -0.24695730604E+03  0.25070969260E+03  0.41800000000E+01 0.  1.
         -5    1    4    4    0  502 -0.26473796812E+02  0.17765096111E+02 -0.65225939689E+01  0.32809711818E+02  0.41800000000E+01 0.  1.
        -11    1    3    3    0    0 -0.49645383739E+02 -0.85235221687E+01 -0.19293327736E+02  0.53940217388E+02  0.00000000000E+00 0.  1.
         11    1    3    3    0    0  0.33222135493E+02 -0.61094682884E+01 -0.63213316104E+02  0.71672583478E+02  0.00000000000E+00 0. -1.
</event>
<event>
 8    1  0.5900800E-006  0.1354554E+03  0.7561462E-02  0.1219578E+00
         -1   -1    0    0    0  501 -0.00000000000E+00  0.00000000000E+00  0.18713012960E+02  0.18713012960E+02  0.00000000000E+00 0. -1.
          1   -1    0    0  501    0  0.00000000000E+00 -0.00000000000E+00 -0.12932655393E+04  0.12932655393E+04  0.00000000000E+00 0.  1.
         23    2    1    2    0    0 -0.76069014802E+02  0.79153987865E+02 -0.65351643843E+03  0.66902976524E+03  0.92006753334E+02 0.  0.
         23    2    1    2    0    0  0.76069014802E+02 -0.79153987865E+02 -0.62103608790E+03  0.64294878701E+03  0.12508185898E+03 0.  0.
          5    1    4    4  502    0  0.41756142813E+02 -0.84533233861E+02 -0.20771634136E+03  0.22815125237E+03  0.41800000000E+01 0.  1.
         -5    1    4    4    0  502  0.34312871990E+02  0.53792459956E+01 -0.41331974654E+03  0.41479753465E+03  0.41800000000E+01 0.  1.
        -11    1    3    3    0    0 -0.42923826945E+02 -0.11990843189E+02 -0.16096263496E+03  0.16701857709E+03  0.00000000000E+00 0. -1.
         11    1    3    3    0    0 -0.33145187858E+02  0.91144831054E+02 -0.49255380347E+03  0.50201118814E+03  0.00000000000E+00 0.  1.
</event>
<event>
 8    1  0.5900800E-006  0.1065907E+03  0.7561462E-02  0.1267017E+00
          1   -1    0    0  501    0  0.00000000000E+00  0.00000000000E+00  0.99296018698E+02  0.99296018698E+02  0.00000000000E+00 0. -1.
         -1   -1    0    0    0  501 -0.00000000000E+00 -0.00000000000E+00 -0.21064834732E+03  0.21064834732E+03  0.00000000000E+00 0.  1.
         23    2    1    2    0    0 -0.33374379132E+02  0.86736882287E+02 -0.76676458289E+02  0.15029575486E+03  0.89846528828E+02 0.  0.
         23    2    1    2    0    0  0.33374379132E+02 -0.86736882287E+02 -0.34675870334E+02  0.15964861116E+03  0.12509247431E+03 0.  0.
          5    1    4    4  502    0  0.19638414123E+02 -0.41603226349E+02 -0.81096504390E+02  0.93330655072E+02  0.41800000000E+01 0.  1.
         -5    1    4    4    0  502  0.13735965009E+02 -0.45133655938E+02  0.46420634056E+02  0.66317956085E+02  0.41800000000E+01 0.  1.
        -11    1    3    3    0    0 -0.29584685212E+02 -0.30643144505E+01  0.33757476214E+01  0.29933915450E+02  0.00000000000E+00 0.  1.
         11    1    3    3    0    0 -0.37896939200E+01  0.89801196738E+02 -0.80052205911E+02  0.12036183941E+03  0.00000000000E+00 0. -1.
</event>
<event>
 8    1  0.5900800E-006  0.1121830E+03  0.7561462E-02  0.1256580E+00
          2   -1    0    0  501    0  0.00000000000E+00  0.00000000000E+00  0.58902624032E+02  0.58902624032E+02  0.00000000000E+00 0.  1.
         -2   -1    0    0    0  501 -0.00000000000E+00 -0.00000000000E+00 -0.22114145150E+03  0.22114145150E+03  0.00000000000E+00 0. -1.
         23    2    1    2    0    0  0.32799400258E+02 -0.10493895561E+02 -0.77379979099E+02  0.12501381202E+03  0.91950364487E+02 0.  0.
         23    2    1    2    0    0 -0.32799400258E+02  0.10493895561E+02 -0.84858848365E+02  0.15503026351E+03  0.12508971163E+03 0.  0.
          5    1    4    4  502    0 -0.25548118526E+02 -0.55969784012E+02 -0.30694500562E+02  0.68883581842E+02  0.41800000000E+01 0. -1.
         -5    1    4    4    0  502 -0.72512817316E+01  0.66463679573E+02 -0.54164347803E+02  0.86146681666E+02  0.41800000000E+01 0. -1.
        -11    1    3    3    0    0  0.28891636024E+02  0.37622337887E+02 -0.52318707367E+02  0.70621626155E+02  0.00000000000E+00 0.  1.
         11    1    3    3    0    0  0.39077642336E+01 -0.48116233447E+02 -0.25061271732E+02  0.54392185866E+02  0.00000000000E+00 0. -1.
</event>
<event>
 8    1  0.5900800E-006  0.1366481E+03  0.7561462E-02  0.1217912E+00
         -1   -1    0    0    0  501 -0.00000000000E+00  0.00000000000E+00  0.14000405407E+02  0.14000405407E+02  0.00000000000E+00 0.  1.
          1   -1    0    0  501    0  0.00000000000E+00 -0.00000000000E+00 -0.15410818852E+04  0.15410818852E+04  0.00000000000E+00 0. -1.
         23    2    1    2    0    0 -0.10329809239E+02 -0.88051321865E+02 -0.47114406931E+03  0.48807250345E+03  0.91533023245E+02 0.  0.
         23    2    1    2    0    0  0.10329809239E+02  0.88051321865E+02 -0.10559374105E+04  0.10670097872E+04  0.12508529400E+03 0.  0.
          5    1    4    4  502    0 -0.22629334889E+02  0.10749414908E+03 -0.88442244921E+03  0.89122815258E+03  0.41800000000E+01 0.  1.
         -5    1    4    4    0  502  0.32959144128E+02 -0.19442827212E+02 -0.17151496128E+03  0.17578163457E+03  0.41800000000E+01 0.  1.
        -11    1    3    3    0    0 -0.30618862692E+02 -0.97714561087E+02 -0.34248583601E+03  0.35746635935E+03  0.00000000000E+00 0.  1.
         11    1    3    3    0    0  0.20289053453E+02  0.96632392215E+01 -0.12865823330E+03  0.13060614411E+03  0.00000000000E+00 0. -1.
</event>
<event>
 8    1  0.5900800E-006  0.1102231E+03  0.7561462E-02  0.1260157E+00
         -2   -1    0    0    0  501 -0.00000000000E+00  0.00000000000E+00  0.44843866611E+03  0.44843866611E+03  0.00000000000E+00 0.  1.
          2   -1    0    0  501    0  0.00000000000E+00 -0.00000000000E+00 -0.58458515757E+02  0.58458515757E+02  0.00000000000E+00 0. -1.
         23    2    1    2    0    0  0.22194123693E+01 -0.17771816114E+02  0.36507319133E+03  0.37809810701E+03  0.96741822702E+02 0.  0.
         23    2    1    2    0    0 -0.22194123693E+01  0.17771816114E+02  0.24906959024E+02  0.12879907485E+03  0.12509229327E+03 0.  0.
          5    1    4    4  502    0 -0.41133359517E+02  0.54634858109E+02  0.29995818794E+02  0.74794000634E+02  0.41800000000E+01 0. -1.
         -5    1    4    4    0  502  0.38913947147E+02 -0.36863041995E+02 -0.50888597706E+01  0.54005074220E+02  0.41800000000E+01 0. -1.
        -11    1    3    3    0    0  0.47987953125E+02 -0.20790096892E+02  0.20704282097E+03  0.21354578312E+03  0.00000000000E+00 0.  1.
         11    1    3    3    0    0 -0.45768540756E+02  0.30182807781E+01  0.15803037036E+03  0.16455232389E+03  0.00000000000E+00 0. -1.
</event>
<event>
 8    1  0.5900800E-006  0.6878115E+02  0.7561462E-02  0.1364288E+00
         -2   -1    0    0    0  501 -0.00000000000E+00  0.00000000000E+00  0.51496245829E+02  0.51496245829E+02  0.00000000000E+00 0.  1.
          2   -1    0    0  501    0  0.00000000000E+00 -0.00000000000E+00 -0.31784956392E+03  0.31784956392E+03  0.00000000000E+00 0. -1.
         23    2    1    2    0    0 -0.35829947979E+02  0.31768931106E+02 -0.50125124516E+02  0.11499214426E+03  0.91747561154E+02 0.  0.
         23    2    1    2    0    0  0.35829947979E+02 -0.31768931106E+02 -0.21622819357E+03  0.25435366549E+03  0.12509238704E+03 0.  0.
          5    1    4    4  502    0  0.27611739534E+02  0.21652314900E+02 -0.42951745908E+01  0.35597076079E+02  0.41800000000E+01 0.  1.
         -5    1    4    4    0  502  0.82182084450E+01 -0.53421246006E+02 -0.21193301898E+03  0.21875658941E+03  0.41800000000E+01 0.  1.
        -11    1    3    3    0    0 -0.21535662349E+02  0.16771830134E+02  0.25029247968E+02  0.37034339372E+02  0.00000000000E+00 0.  1.
         11    1    3    3    0    0 -0.14294285630E+02  0.14997100972E+02 -0.75154372484E+02  0.77957804887E+02  0.00000000000E+00 0. -1.
</event>
<event>
 8    1  0.5900800E-006  0.9535761E+02  0.7561462E-02  0.1290373E+00
         -1   -1    0    0    0  501 -0.00000000000E+00  0.00000000000E+00  0.15410508418E+02  0.15410508418E+02  0.00000000000E+00 0.  1.
          1   -1    0    0  501    0  0.00000000000E+00 -0.00000000000E+00 -0.13254588493E+04  0.13254588493E+04  0.00000000000E+00 0. -1.
         23    2    1    2    0    0  0.45919160363E+01 -0.43924999443E+02 -0.16820323838E+03  0.19134390187E+03  0.79810200548E+02 0.  0.
         23    2    1    2    0    0 -0.45919160363E+01  0.43924999443E+02 -0.11418451025E+04  0.11495254559E+04  0.12509214312E+03 0.  0.
          5    1    4    4  502    0  0.49994751172E+02 -0.89387889974E+01 -0.62946423288E+03  0.63152360998E+03  0.41800000000E+01 0. -1.
         -5    1    4    4    0  502 -0.54586667208E+02  0.52863788441E+02 -0.51238086966E+03  0.51800184590E+03  0.41800000000E+01 0. -1.
        -11    1    3    3    0    0  0.24766438175E+02 -0.17137775806E+02 -0.15038162679E+03  0.15336790243E+03  0.00000000000E+00 0. -1.
         11    1    3    3    0    0 -0.20174522139E+02 -0.26787223637E+02 -0.17821611590E+02  0.37975999439E+02  0.00000000000E+00 0.  1.
</event>
<event>
 8    1  0.5900800E-006  0.1228420E+03  0.7561462E-02  0.1238481E+00
          1   -1    0    0  501    0  0.00000000000E+00  0.00000000000E+00  0.17846526375E+03  0.17846526375E+03  0.00000000000E+00 0. -1.
         -1   -1    0    0    0  501 -0.00000000000E+00 -0.00000000000E+00 -0.85882682590E+02  0.85882682590E+02  0.00000000000E+00 0.  1.
         23    2    1    2    0    0 -0.61463830711E+02  0.70304162276E+01  0.45575157491E+02  0.11708929065E+03  0.88349180906E+02 0.  0.
         23    2    1    2    0    0  0.61463830711E+02 -0.70304162276E+01  0.47007423666E+02  0.14725865569E+03  0.12509270385E+03 0.  0.
          5    1    4    4  502    0  0.37854623463E+02 -0.65442774364E+02  0.32919275687E+02  0.82564401202E+02  0.41800000000E+01 0.  1.
         -5    1    4    4    0  502  0.23609207247E+02  0.58412358136E+02  0.14088147979E+02  0.64694254485E+02  0.41800000000E+01 0.  1.
        -11    1    3    3    0    0 -0.52537305960E+02 -0.35474334895E+02  0.19028045098E+02  0.66186580619E+02  0.00000000000E+00 0. -1.
         11    1    3    3    0    0 -0.89265247505E+01  0.42504751123E+02  0.26547112393E+02  0.50902710031E+02  0.00000000000E+00 0.  1.
</event>
<event>
 8    1  0.5900800E-006  0.1055690E+03  0.7561462E-02  0.1269003E+00
          1   -1    0    0  501    0  0.00000000000E+00  0.00000000000E+00  0.17102088234E+03  0.17102088234E+03  0.00000000000E+00 0. -1.
         -1   -1    0    0    0  501 -0.00000000000E+00 -0.00000000000E+00 -0.77441890918E+02  0.77441890918E+02  0.00000000000E+00 0.  1.
         23    2    1    2    0    0  0.86490867782E+01 -0.41784000541E+02  0.60221174209E+02  0.11214857582E+03  0.84439350016E+02 0.  0.
         23    2    1    2    0    0 -0.86490867782E+01  0.41784000541E+02  0.33357817211E+02  0.13631419744E+03  0.12509239406E+03 0.  0.
          5    1    4    4  502    0  0.52157280442E+02  0.24012055117E+02  0.43320456461E+02  0.72049254278E+02  0.41800000000E+01 0. -1.
         -5    1    4    4    0  502 -0.60806367220E+02  0.17771945424E+02 -0.99626392498E+01  0.64264943161E+02  0.41800000000E+01 0. -1.
        -11    1    3    3    0    0 -0.26697877264E+01  0.23585728517E+02  0.32505512504E+02  0.40249505579E+02  0.00000000000E+00 0. -1.
         11    1    3    3    0    0  0.11318874505E+02 -0.65369729058E+02  0.27715661704E+02  0.71899070237E+02  0.00000000000E+00 0.  1.
</event>
<event>
 7    1  0.5900800E-006  0.2059725E+03  0.7561462E-02  0.1144796E+00
          2   -1    0    0  501    0  0.00000000000E+00  0.00000000000E+00  0.10355495707E+03  0.10355495707E+03  0.00000000000E+00 0. -1.
         -2   -1    0    0    0  501 -0.00000000000E+00 -0.00000000000E+00 -0.53462545589E+03  0.53462545589E+03  0.00000000000E+00 0.  1.
         23    2    1    2    0    0  0.57545124249E+02  0.18449291076E+03 -0.11461197023E+03  0.24247217713E+03  0.91147010478E+02 0.  0.
          5    1    1    2  502    0 -0.66626207137E+02 -0.16776059816E+03 -0.17011061179E+03  0.24806806005E+03  0.41800000000E+01 0. -1.
         -5    1    1    2    0  502  0.90810828883E+01 -0.16732312598E+02 -0.14634791681E+03  0.14764017578E+03  0.41800000000E+01 0.  1.
        -11    1    3    3    0    0  0.35630824048E+02  0.11379679859E+02 -0.32809603611E+02  0.49754626168E+02  0.00000000000E+00 0.  1.
         11    1    3    3    0    0  0.21914300201E+02  0.17311323090E+03 -0.81802366615E+02  0.19271755096E+03  0.00000000000E+00 0. -1.
</event>
<event>
 8    1  0.5900800E-006  0.1296288E+03  0.7561462E-02  0.1228008E+00
         -1   -1    0    0    0  501 -0.00000000000E+00  0.00000000000E+00  0.17778586256E+03  0.17778586256E+03  0.00000000000E+00 0.  1.
          1   -1    0    0  501    0  0.00000000000E+00 -0.00000000000E+00 -0.13726978223E+03  0.13726978223E+03  0.00000000000E+00 0. -1.
         23    2    1    2    0    0 -0.14427433095E+02 -0.75262209955E+02  0.97879639455E+02  0.15753392283E+03  0.96767566619E+02 0.  0.
         23    2    1    2    0    0  0.14427433095E+02  0.75262209955E+02 -0.57363559123E+02  0.15752172196E+03  0.12509981575E+03 0.  0.
          5    1    4    4  502    0  0.25408280170E+02 -0.25519167394E+02 -0.41029732214E+02  0.54751437709E+02  0.41800000000E+01 0.  1.
         -5    1    4    4    0  502 -0.10980847075E+02  0.10078137735E+03 -0.16333826909E+02  0.10277028425E+03  0.41800000000E+01 0.  1.
        -11    1    3    3    0    0 -0.35433262301E+02 -0.89436472375E+02  0.87862412330E+02  0.13028508038E+03  0.00000000000E+00 0.  1.
         11    1    3    3    0    0  0.21005829206E+02  0.14174262420E+02  0.10017227125E+02  0.27248842453E+02  0.00000000000E+00 0. -1.
</event>
<event>
 8    1  0.5900800E-006  0.1672058E+03  0.7561462E-02  0.1180793E+00
          1   -1    0    0  501    0  0.00000000000E+00  0.00000000000E+00  0.13153259052E+03  0.13153259052E+03  0.00000000000E+00 0. -1.
         -1   -1    0    0    0  501 -0.00000000000E+00 -0.00000000000E+00 -0.30845090481E+03  0.30845090481E+03  0.00000000000E+00 0.  1.
         23    2    1    2    0    0 -0.15199036925E+02 -0.14256077753E+03 -0.18362842418E+03  0.24959690384E+03  0.89580300459E+02 0.  0.
         23    2    1    2    0    0  0.15199036925E+02  0.14256077753E+03  0.67101098855E+01  0.19038659149E+03  0.12508973831E+03 0.  0.
          5    1    4    4  502    0  0.58771619537E+02  0.28713160469E+02  0.17779566772E+02  0.67912695733E+02  0.41800000000E+01 0.  1.
         -5    1    4    4    0  502 -0.43572582612E+02  0.11384761706E+03 -0.11069456887E+02  0.12247389575E+03  0.41800000000E+01 0.  1.
        -11    1    3    3    0    0  0.10099396892E+02 -0.43038035761E+02 -0.12217106570E+03  0.12992320668E+03  0.00000000000E+00 0.  1.
         11    1    3    3    0    0 -0.25298433817E+02 -0.99522741767E+02 -0.61457358478E+02  0.11967369717E+03  0.00000000000E+00 0. -1.
</event>
<event>
 8    1  0.5900800E-006  0.2396864E+03  0.7561462E-02  0.1120002E+00
          3   -1    0    0  501    0  0.00000000000E+00  0.00000000000E+00  0.95056888747E+02  0.95056888747E+02  0.00000000000E+00 0. -1.
         -3   -1    0    0    0  501 -0.00000000000E+00 -0.00000000000E+00 -0.61650339893E+03  0.61650339893E+03  0.00000000000E+00 0.  1.
         23    2    1    2    0    0  0.15826732901E+03 -0.14475827576E+03 -0.28984742923E+03  0.37201601570E+03  0.91547134720E+02 0.  0.
         23    2    1    2    0    0 -0.15826732901E+03  0.14475827576E+03 -0.23159908095E+03  0.33954427197E+03  0.12509465415E+03 0.  0.
          5    1    4    4  502    0 -0.10395694865E+03  0.16048256043E+03 -0.17093186150E+03  0.25650901164E+03  0.41800000000E+01 0. -1.
         -5    1    4    4    0  502 -0.54310380359E+02 -0.15724284664E+02 -0.60667219452E+02  0.83035260336E+02  0.41800000000E+01 0. -1.
        -11    1    3    3    0    0  0.30472419141E+02 -0.85091148764E+02 -0.91271436569E+02  0.12845056271E+03  0.00000000000E+00 0. -1.
         11    1    3    3    0    0  0.12779490987E+03 -0.59667127000E+02 -0.19857599266E+03  0.24356545300E+03  0.00000000000E+00 0.  1.
</event>
<event>
 8    1  0.5900800E-006  0.1013531E+03  0.7561462E-02  0.1277476E+00
          1   -1    0    0  501    0  0.00000000000E+00  0.00000000000E+00  0.80087497981E+03  0.80087497981E+03  0.00000000000E+00 0. -1.
         -1   -1    0    0    0  501 -0.00000000000E+00 -0.00000000000E+00 -0.16996938422E+02  0.16996938422E+02  0.00000000000E+00 0.  1.
         23    2    1    2    0    0 -0.43343534117E+02  0.27659332893E+01  0.30196319607E+03  0.31809758237E+03  0.90099876775E+02 0.  0.
         23    2    1    2    0    0  0.43343534117E+02 -0.27659332893E+01  0.48191484532E+03  0.49977433586E+03  0.12508459660E+03 0.  0.
          5    1    4    4  502    0  0.65424000732E+00  0.55241353398E+02  0.14504688515E+03  0.15526785388E+03  0.41800000000E+01 0. -1.
         -5    1    4    4    0  502  0.42689294109E+02 -0.58007286688E+02  0.33686796017E+03  0.34450648199E+03  0.41800000000E+01 0. -1.
        -11    1    3    3    0    0  0.11253880521E+02  0.15444173301E+02  0.11558228165E+02  0.22333046233E+02  0.00000000000E+00 0.  1.
         11    1    3    3    0    0 -0.54597414638E+02 -0.12678240012E+02  0.29040496790E+03  0.29576453614E+03  0.00000000000E+00 0. -1.
</event>
<event>
 8    1  0.5900800E-006  0.1227357E+03  0.7561462E-02  0.1238651E+00
          1   -1    0    0  501    0  0.00000000000E+00  0.00000000000E+00  0.46031949072E+03  0.46031949072E+03  0.00000000000E+00 0. -1.
         -1   -1    0    0    0  501 -0.00000000000E+00 -0.00000000000E+00 -0.45435881475E+02  0.45435881475E+02  0.00000000000E+00 0.  1.
         23    2    1    2    0    0 -0.12464371265E+02 -0.94863531753E+02  0.19401151647E+03  0.23449347384E+03  0.90511162544E+02 0.  0.
         23    2    1    2    0    0  0.12464371265E+02  0.94863531753E+02  0.22087209278E+03  0.27126189835E+03  0.12507632039E+03 0.  0.
          5    1    4    4  502    0 -0.29049038904E+02 -0.21808760542E+01  0.12563172314E+03  0.12903257395E+03  0.41800000000E+01 0. -1.
         -5    1    4    4    0  502  0.41513410169E+02  0.97044407807E+02  0.95240369637E+02  0.14222932440E+03  0.41800000000E+01 0. -1.
        -11    1    3    3    0    0 -0.32819243246E+02 -0.39111167337E+02  0.15568304828E+03  0.16384137957E+03  0.00000000000E+00 0. -1.
         11    1    3    3    0    0  0.20354871981E+02 -0.55752364416E+02  0.38328468185E+02  0.70652094270E+02  0.00000000000E+00 0.  1.
</event>
<event>
 8    1  0.5900800E-006  0.1396259E+03  0.7561462E-02  0.1213833E+00
          1   -1    0    0  501    0  0.00000000000E+00  0.00000000000E+00  0.60866765825E+02  0.60866765825E+02  0.00000000000E+00 0. -1.
         -1   -1    0    0    0  501 -0.00000000000E+00 -0.00000000000E+00 -0.36942332315E+03  0.36942332315E+03  0.00000000000E+00 0.  1.
         23    2    1    2    0    0 -0.81283831928E+02  0.46126282097E+02 -0.19641631360E+03  0.23803829328E+03  0.96685912039E+02 0.  0.
         23    2    1    2    0    0  0.81283831928E+02 -0.46126282097E+02 -0.11214024373E+03  0.19225179570E+03  0.12510245182E+03 0.  0.
          5    1    4    4  502    0  0.12946708687E+02 -0.73892515927E+02 -0.27761323023E+02  0.80099217423E+02  0.41800000000E+01 0. -1.
         -5    1    4    4    0  502  0.68337123242E+02  0.27766233830E+02 -0.84378920708E+02  0.11215257828E+03  0.41800000000E+01 0. -1.
        -11    1    3    3    0    0 -0.27763196346E+02  0.67205422926E+02 -0.79505119366E+02  0.10774241480E+03  0.00000000000E+00 0. -1.
         11    1    3    3    0    0 -0.53520635583E+02 -0.21079140830E+02 -0.11691119423E+03  0.13029587848E+03  0.00000000000E+00 0.  1.
</event>
<event>
 7    1  0.5900800E-006  0.1167936E+03  0.7561462E-02  0.1248482E+00
          1   -1    0    0  501    0  0.00000000000E+00  0.00000000000E+00  0.71537417317E+03  0.71537417317E+03  0.00000000000E+00 0. -1.
         -1   -1    0    0    0  501 -0.00000000000E+00 -0.00000000000E+00 -0.40971975898E+03  0.40971975898E+03  0.00000000000E+00 0.  1.
         23    2    1    2    0    0  0.26688791980E+02  0.36201975475E+02 -0.39616002922E+03  0.40946023395E+03  0.93231109545E+02 0.  0.
          5    1    1    2  502    0  0.49771708502E+02 -0.24058878450E+02  0.18804157409E+03  0.19604376701E+03  0.41800000000E+01 0. -1.
         -5    1    1    2    0  502 -0.76460500482E+02 -0.12143097025E+02  0.51377286933E+03  0.51958993119E+03  0.41800000000E+01 0.  1.
        -11    1    3    3    0    0 -0.32187818315E+02  0.24829048523E+02 -0.20940388533E+03  0.21331320749E+03  0.00000000000E+00 0.  1.
         11    1    3    3    0    0  0.58876610295E+02  0.11372926952E+02 -0.18675614389E+03  0.19614702645E+03  0.00000000000E+00 0. -1.
</event>
<event>
 8    1  0.5900800E-006  0.1005028E+03  0.7561462E-02  0.1279242E+00
          1   -1    0    0  501    0  0.00000000000E+00  0.00000000000E+00  0.44504538729E+03  0.44504538729E+03  0.00000000000E+00 0. -1.
         -1   -1    0    0    0  501 -0.00000000000E+00 -0.00000000000E+00 -0.35124970858E+02  0.35124970858E+02  0.00000000000E+00 0.  1.
         23    2    1    2    0    0  0.21636473987E+02  0.33051205001E+02  0.10146855735E+03  0.14498344226E+03  0.95727797636E+02 0.  0.
         23    2    1    2    0    0 -0.21636473987E+02 -0.33051205001E+02  0.30845185909E+03  0.33518691589E+03  0.12508876869E+03 0.  0.
          5    1    4    4  502    0 -0.37710268044E+00  0.45843619400E+02  0.77142099329E+02  0.89834044410E+02  0.41800000000E+01 0.  1.
         -5    1    4    4    0  502 -0.21259371306E+02 -0.78894824401E+02  0.23130975976E+03  0.24535287148E+03  0.41800000000E+01 0.  1.
        -11    1    3    3    0    0  0.19555930410E+02  0.51241078506E+02  0.11138934055E+03  0.12415984749E+03  0.00000000000E+00 0. -1.
         11    1    3    3    0    0  0.20805435770E+01 -0.18189873505E+02 -0.99207832018E+01  0.20823594768E+02  0.00000000000E+00 0.  1.
</event>
<event>
 8    1  0.5900800E-006  0.2027259E+03  0.7561462E-02  0.1147459E+00
         -2   -1    0    0    0  501 -0.00000000000E+00  0.00000000000E+00  0.79447642849E+02  0.79447642849E+02  0.00000000000E+00 0. -1.
          2   -1    0    0  501    0  0.00000000000E+00 -0.00000000000E+00 -0.84026783159E+03  0.84026783159E+03  0.00000000000E+00 0.  1.
         23    2    1    2    0    0 -0.17799029183E+03  0.41395981476E+02 -0.10840842457E+03  0.23074527100E+03  0.89982344386E+02 0.  0.
         23    2    1    2    0    0  0.17799029183E+03 -0.41395981476E+02 -0.65241176417E+03  0.68897020344E+03  0.12507861500E+03 0.  0.
          5    1    4    4  502    0  0.87249728707E+02 -0.80774070810E+02 -0.41565455738E+03  0.43234609880E+03  0.41800000000E+01 0.  1.
         -5    1    4    4    0  502  0.90740563126E+02  0.39378089333E+02 -0.23675720679E+03  0.25662410464E+03  0.41800000000E+01 0.  1.
        -11    1    3    3    0    0 -0.15387085996E+02  0.17204680074E+02  0.12898001779E+02  0.26440913029E+02  0.00000000000E+00 0. -1.
         11    1    3    3    0    0 -0.16260320584E+03  0.24191301402E+02 -0.12130642635E+03  0.20430435797E+03  0.00000000000E+00 0.  1.
</event>
<event>
 8    1  0.5900800E-006  0.1366942E+03  0.7561462E-02  0.1217848E+00
          4   -1    0    0  501    0  0.00000000000E+00  0.00000000000E+00  0.47698641668E+02  0.47698641668E+02  0.00000000000E+00 0. -1.
         -4   -1    0    0    0  501 -0.00000000000E+00 -0.00000000000E+00 -0.68133287126E+03  0.68133287126E+03  0.00000000000E+00 0.  1.
         23    2    1    2    0    0  0.22645927512E+02 -0.98118012977E+02 -0.50574763435E+03  0.52374971080E+03  0.91613904028E+02 0.  0.
         23    2    1    2    0    0 -0.22645927512E+02  0.98118012977E+02 -0.12788659524E+03  0.20528180212E+03  0.12508259087E+03 0.  0.
          5    1    4    4  502    0  0.37452681666E+02  0.46630866021E+02 -0.10808072355E+03  0.12359634393E+03  0.41800000000E+01 0.  1.
         -5    1    4    4    0  502 -0.60098609178E+02  0.51487146955E+02 -0.19805871690E+02  0.81685458193E+02  0.41800000000E+01 0.  1.
        -11    1    3    3    0    0 -0.19978678027E+02 -0.88183469318E+02 -0.29678599280E+03  0.31025376284E+03  0.00000000000E+00 0. -1.
         11    1    3    3    0    0  0.42624605540E+02 -0.99345436585E+01 -0.20896164155E+03  0.21349594796E+03  0.00000000000E+00 0.  1.
</event>
<event>
 8    1  0.5900800E-006  0.1130470E+03  0.7561462E-02  0.1255029E+00
         -1   -1    0    0    0  501 -0.00000000000E+00  0.00000000000E+00  0.21549881778E+03  0.21549881778E+03  0.00000000000E+00 0.  1.
          1   -1    0    0  501    0  0.00000000000E+00 -0.00000000000E+00 -0.15233188794E+03  0.15233188794E+03  0.00000000000E+00 0. -1.
         23    2    1    2    0    0 -0.86239991132E+02  0.60580028655E+02  0.13132872553E+03  0.19062507302E+03  0.89349920944E+02 0.  0.
         23    2    1    2    0    0  0.86239991132E+02 -0.60580028655E+02 -0.68161795695E+02  0.17720563270E+03  0.12509408430E+03 0.  0.
          5    1    4    4  502    0  0.68182862344E+01  0.68117029420E+01  0.31365841803E+02  0.33078342706E+02  0.41800000000E+01 0. -1.
         -5    1    4    4    0  502  0.79421704897E+02 -0.67391731597E+02 -0.99527637498E+02  0.14412729000E+03  0.41800000000E+01 0. -1.
        -11    1    3    3    0    0 -0.33326687789E+02  0.34976844404E+01  0.10214179359E+03  0.10749812981E+03  0.00000000000E+00 0.  1.
         11    1    3    3    0    0 -0.52913303343E+02  0.57082344214E+02  0.29186931947E+02  0.83126943214E+02  0.00000000000E+00 0. -1.
</event>
<event>
 7    1  0.8767918E-006  0.1472537E+03  0.7561462E-02  0.1203889E+00
          1   -1    0    0  501    0  0.00000000000E+00  0.00000000000E+00  0.53330337480E+03  0.53330337480E+03  0.00000000000E+00 0. -1.
         -1   -1    0    0    0  501 -0.00000000000E+00 -0.00000000000E+00 -0.44582127308E+02  0.44582127308E+02  0.00000000000E+00 0.  1.
         23    2    1    2    0    0  0.12177809127E+03 -0.15822411525E+02  0.30550761413E+03  0.35222573713E+03  0.12509122826E+03 0.  0.
          5    1    3    3  502    0  0.28634427153E+02  0.44380003868E+02  0.16425150500E+03  0.17258489058E+03  0.41800000000E+01 0. -1.
         -5    1    3    3    0  502  0.93143664116E+02 -0.60202415393E+02  0.14125610913E+03  0.17964084656E+03  0.41800000000E+01 0. -1.
        -11    1    1    2    0    0 -0.54966119673E+02 -0.14980692469E+02  0.95222363943E+02  0.11096393132E+03  0.00000000000E+00 0. -1.
         11    1    1    2    0    0 -0.66811971596E+02  0.30803103994E+02  0.87991269421E+02  0.11469583366E+03  0.00000000000E+00 0.  1.
</event>
<event>
 8    1  0.5900800E-006  0.1152310E+03  0.7561462E-02  0.1251178E+00
         -2   -1    0    0    0  501 -0.00000000000E+00  0.00000000000E+00  0.25868759325E+03  0.25868759325E+03  0.00000000000E+00 0.  1.
          2   -1    0    0  501    0  0.00000000000E+00 -0.00000000000E+00 -0.66378420290E+02  0.66378420290E+02  0.00000000000E+00 0. -1.
         23    2    1    2    0    0  0.35272004066E+02 -0.62418230496E+02  0.90726123205E+02  0.14869339716E+03  0.93479126856E+02 0.  0.
         23    2    1    2    0    0 -0.35272004066E+02  0.62418230496E+02  0.10158304976E+03  0.17637261638E+03  0.12509210224E+03 0.  0.
          5    1    4    4  502    0 -0.81168437747E+02  0.34723582122E+02  0.48496437750E+02  0.10081378535E+03  0.41800000000E+01 0.  1.
         -5    1    4    4    0  502  0.45896433682E+02  0.27694648374E+02  0.53086612008E+02  0.75558831037E+02  0.41800000000E+01 0.  1.
        -11    1    3    3    0    0  0.65120246135E+01 -0.58989645792E+02  0.10167576663E+03  0.11772912255E+03  0.00000000000E+00 0.  1.
         11    1    3    3    0    0  0.28759979452E+02 -0.34285847036E+01 -0.10949643427E+02  0.30964274613E+02  0.00000000000E+00 0. -1.
</event>
<event>
 8    1  0.8350493E-006  0.1149926E+03  0.7561462E-02  0.1251594E+00
          2   -1    0    0  501    0  0.00000000000E+00  0.00000000000E+00  0.44543761987E+03  0.44543761987E+03  0.00000000000E+00 0. -1.
         -2   -1    0    0    0  501 -0.00000000000E+00 -0.00000000000E+00 -0.45930766848E+02  0.45930766848E+02  0.00000000000E+00 0.  1.
         23    2    1    2    0    0 -0.61885716877E+02  0.53677423273E+02  0.99085703544E+02  0.15579251854E+03  0.87989911151E+02 0.  0.
         23    2    1    2    0    0  0.61885716877E+02 -0.53677423273E+02  0.30042114948E+03  0.33557586817E+03  0.12508872261E+03 0.  0.
          5    1    4    4  502    0 -0.27129284560E+02 -0.37169624441E+02  0.44779638106E+02  0.64344910061E+02  0.41800000000E+01 0.  1.
         -5    1    4    4    0  502  0.89015001438E+02 -0.16507798832E+02  0.25564151137E+03  0.27123095811E+03  0.41800000000E+01 0.  1.
        -11    1    3    3    0    0 -0.53631426760E+01  0.32263773473E+02  0.88603628351E+02  0.94447431596E+02  0.00000000000E+00 0. -1.
         11    1    3    3    0    0 -0.56522574201E+02  0.21413649800E+02  0.10482075193E+02  0.61345086946E+02  0.00000000000E+00 0.  1.
</event>
<event>
 8    1  0.5900800E-006  0.2070608E+03  0.7561462E-02  0.1143915E+00
         -2   -1    0    0    0  501 -0.00000000000E+00  0.00000000000E+00  0.10483645465E+03  0.10483645465E+03  0.00000000000E+00 0.  1.
          2   -1    0    0  501    0  0.00000000000E+00 -0.00000000000E+00 -0.55806711348E+03  0.55806711348E+03  0.00000000000E+00 0. -1.
         23    2    1    2    0    0 -0.71624096737E+02 -0.18610531076E+03 -0.10778407726E+03  0.24487758452E+03  0.92641384723E+02 0.  0.
         23    2    1    2    0    0  0.71624096737E+02  0.18610531076E+03 -0.34544658157E+03  0.41802598361E+03  0.12508870585E+03 0.  0.
          5    1    4    4  502    0  0.13869605716E+02  0.25124863531E+02  0.36823972957E+01  0.29234520349E+02  0.41800000000E+01 0.  1.
         -5    1    4    4    0  502  0.57754491021E+02  0.16098044723E+03 -0.34912897886E+03  0.38879146326E+03  0.41800000000E+01 0.  1.
        -11    1    3    3    0    0  0.93637335815E+01 -0.80070366246E+02 -0.68501128098E+02  0.10578916583E+03  0.00000000000E+00 0. -1.
         11    1    3    3    0    0 -0.80987830319E+02 -0.10603494452E+03 -0.39282949166E+02  0.13908841869E+03  0.00000000000E+00 0.  1.
</event>
<event>
 8    1  0.5900800E-006  0.1019845E+03  0.7561462E-02  0.1276177E+00
         -2   -1    0    0    0  501 -0.00000000000E+00  0.00000000000E+00  0.22357322386E+03  0.22357322386E+03  0.00000000000E+00 0.  1.
          2   -1    0    0  501    0  0.00000000000E+00 -0.00000000000E+00 -0.79616605061E+02  0.79616605061E+02  0.00000000000E+00 0. -1.
         23    2    1    2    0    0 -0.15997684277E+02 -0.76097081263E+02  0.74835906841E+02  0.14048678914E+03  0.89941276912E+02 0.  0.
         23    2    1    2    0    0  0.15997684277E+02  0.76097081263E+02  0.69120711953E+02  0.16270303977E+03  0.12509162502E+03 0.  0.
          5    1    4    4  502    0  0.23339553769E+02 -0.18362661651E+02 -0.17107398655E+02  0.34526187189E+02  0.41800000000E+01 0. -1.
         -5    1    4    4    0  502 -0.73418694916E+01  0.94459742914E+02  0.86228110609E+02  0.12817685258E+03  0.41800000000E+01 0. -1.
        -11    1    3    3    0    0  0.76982941797E+00 -0.31307495873E+02  0.85872311050E+02  0.91404626470E+02  0.00000000000E+00 0.  1.
         11    1    3    3    0    0 -0.16767513695E+02 -0.44789585390E+02 -0.11036404209E+02  0.49082162674E+02  0.00000000000E+00 0. -1.
</event>
<event>
 8    1  0.5900800E-006  0.7317803E+02  0.7561462E-02  0.1349608E+00
          1   -1    0    0  501    0  0.00000000000E+00  0.00000000000E+00  0.99247284887E+02  0.99247284887E+02  0.00000000000E+00 0. -1.
         -1   -1    0    0    0  501 -0.00000000000E+00 -0.00000000000E+00 -0.12750953196E+03  0.12750953196E+03  0.00000000000E+00 0.  1.
         23    2    1    2    0    0 -0.86962428863E+00  0.23059499295E+02 -0.27575854592E+02  0.99553265527E+02  0.92832796825E+02 0.  0.
         23    2    1    2    0    0  0.86962428863E+00 -0.23059499295E+02 -0.68639248531E+00  0.12720355132E+03  0.12509106915E+03 0.  0.
          5    1    4    4  502    0 -0.18087564609E+02  0.30294376038E+01  0.57526470764E+02  0.60523588164E+02  0.41800000000E+01 0.  1.
         -5    1    4    4    0  502  0.18957188897E+02 -0.26088936899E+02 -0.58212863249E+02  0.66679963160E+02  0.41800000000E+01 0.  1.
        -11    1    3    3    0    0 -0.29616243021E+02 -0.25178960467E+02 -0.57014025669E+01  0.39288775650E+02  0.00000000000E+00 0.  1.
         11    1    3    3    0    0  0.28746618732E+02  0.48238459762E+02 -0.21874452025E+02  0.60264489877E+02  0.00000000000E+00 0. -1.
</event>
<event>
 8    1  0.5900800E-006  0.1179650E+03  0.7561462E-02  0.1246492E+00
          2   -1    0    0  501    0  0.00000000000E+00  0.00000000000E+00  0.58282642089E+03  0.58282642089E+03  0.00000000000E+00 0. -1.
         -2   -1    0    0    0  501 -0.00000000000E+00 -0.00000000000E+00 -0.30402925414E+02  0.30402925414E+02  0.00000000000E+00 0.  1.
         23    2    1    2    0    0  0.71981673187E+02  0.23903466955E+02  0.27105105690E+03  0.29609895441E+03  0.91941167853E+02 0.  0.
         23    2    1    2    0    0 -0.71981673187E+02 -0.23903466955E+02  0.28137243858E+03  0.31713039190E+03  0.12509396176E+03 0.  0.
          5    1    4    4  502    0 -0.63824229836E+02 -0.64617836040E+02  0.12061702736E+03  0.15104614109E+03  0.41800000000E+01 0. -1.
         -5    1    4    4    0  502 -0.81574433512E+01  0.40714369085E+02  0.16075541121E+03  0.16608425081E+03  0.41800000000E+01 0. -1.
        -11    1    3    3    0    0 -0.14016177844E+02 -0.81063365533E-02  0.40749958516E+01  0.14596537201E+02  0.00000000000E+00 0.  1.
         11    1    3    3    0    0  0.85997851031E+02  0.23911573292E+02  0.26697606105E+03  0.28150241721E+03  0.00000000000E+00 0. -1.
</event>
<event>
 8    1  0.5900800E-006  0.1590913E+03  0.7561462E-02  0.1189727E+00
         -2   -1    0    0    0  501 -0.00000000000E+00  0.00000000000E+00  0.21568423213E+03  0.21568423213E+03  0.00000000000E+00 0.  1.
          2   -1    0    0  501    0  0.00000000000E+00 -0.00000000000E+00 -0.13874531452E+03  0.13874531452E+03  0.00000000000E+00 0. -1.
         23    2    1    2    0    0  0.70611648767E+02 -0.94711979068E+02  0.10120776282E+03  0.18066596676E+03  0.91873915610E+02 0.  0.
         23    2    1    2    0    0 -0.70611648767E+02  0.94711979068E+02 -0.24268845210E+02  0.17376357989E+03  0.12509372857E+03 0.  0.
          5    1    4    4  502    0  0.15251728054E+02  0.82963902513E+02 -0.34053532686E+01  0.84526286797E+02  0.41800000000E+01 0.  1.
         -5    1    4    4    0  502 -0.85863376822E+02  0.11748076556E+02 -0.20863491941E+02  0.89237293089E+02  0.41800000000E+01 0.  1.
        -11    1    3    3    0    0  0.90082115540E+02 -0.89088040855E+02  0.97942771854E+02  0.16013823129E+03  0.00000000000E+00 0.  1.
         11    1    3    3    0    0 -0.19470466773E+02 -0.56239382135E+01  0.32649909691E+01  0.20527735467E+02  0.00000000000E+00 0. -1.
</event>
<event>
 8    1  0.5900800E-006  0.2447616E+03  0.7561462E-02  0.1116661E+00
         -2   -1    0    0    0  501 -0.00000000000E+00  0.00000000000E+00  0.80977515196E+02  0.80977515196E+02  0.00000000000E+00 0.  1.
          2   -1    0    0  501    0  0.00000000000E+00 -0.00000000000E+00 -0.14498134363E+04  0.14498134363E+04  0.00000000000E+00 0. -1.
         23    2    1    2    0    0  0.22785338050E+03 -0.77283294220E+02 -0.18667310953E+03  0.31792445688E+03  0.91319438711E+02 0.  0.
         23    2    1    2    0    0 -0.22785338050E+03  0.77283294220E+02 -0.11821628116E+04  0.12128664946E+04  0.12508537137E+03 0.  0.
          5    1    4    4  502    0 -0.14778589079E+03  0.57595098884E+02 -0.47275407235E+03  0.49866998130E+03  0.41800000000E+01 0. -1.
         -5    1    4    4    0  502 -0.80067489718E+02  0.19688195336E+02 -0.70940873921E+03  0.71419651330E+03  0.41800000000E+01 0. -1.
        -11    1    3    3    0    0  0.10860359534E+03 -0.47216714476E+01 -0.12401826456E+03  0.16491684282E+03  0.00000000000E+00 0. -1.
         11    1    3    3    0    0  0.11924978516E+03 -0.72561622772E+02 -0.62654844976E+02  0.15300761406E+03  0.00000000000E+00 0.  1.
</event>
<event>
 8    1  0.5900800E-006  0.9827979E+02  0.7561462E-02  0.1283955E+00
          2   -1    0    0  501    0  0.00000000000E+00  0.00000000000E+00  0.43807485079E+02  0.43807485079E+02  0.00000000000E+00 0. -1.
         -2   -1    0    0    0  501 -0.00000000000E+00 -0.00000000000E+00 -0.41406431956E+03  0.41406431956E+03  0.00000000000E+00 0.  1.
         23    2    1    2    0    0 -0.76914977095E+02 -0.93614186011E+01 -0.19546986668E+03  0.22940099282E+03  0.91721299963E+02 0.  0.
         23    2    1    2    0    0  0.76914977095E+02  0.93614186011E+01 -0.17478696781E+03  0.22847081183E+03  0.12507948625E+03 0.  0.
          5    1    4    4  502    0  0.59220468645E+02  0.12782065393E+02 -0.86901629186E+01  0.61346853496E+02  0.41800000000E+01 0.  1.
         -5    1    4    4    0  502  0.17694508450E+02 -0.34206467923E+01 -0.16609680489E+03  0.16712395833E+03  0.41800000000E+01 0.  1.
        -11    1    3    3    0    0 -0.84509669502E+02  0.20132646188E+02 -0.12111628903E+03  0.14905154528E+03  0.00000000000E+00 0. -1.
         11    1    3    3    0    0  0.75946924071E+01 -0.29494064789E+02 -0.74353577650E+02  0.80349447539E+02  0.00000000000E+00 0.  1.
</event>
<event>
 8    1  0.5900800E-006  0.1493365E+03  0.7561462E-02  0.1201291E+00
         -1   -1    0    0    0  501 -0.00000000000E+00  0.00000000000E+00  0.15791587388E+02  0.15791587388E+02  0.00000000000E+00 0.  1.
          1   -1    0    0  501    0  0.00000000000E+00 -0.00000000000E+00 -0.21773625109E+04  0.21773625109E+04  0.00000000000E+00 0. -1.
         23    2    1    2    0    0  0.10642505551E+03  0.32417788515E+02 -0.43421417660E+03  0.45770430360E+03  0.92596289986E+02 0.  0.
         23    2    1    2    0    0 -0.10642505551E+03 -0.32417788515E+02 -0.17273567469E+04  0.17354497947E+04  0.12508978112E+03 0.  0.
          5    1    4    4  502    0 -0.29808116555E+02  0.43181201766E+02 -0.35614853553E+03  0.36001721036E+03  0.41800000000E+01 0.  1.
         -5    1    4    4    0  502 -0.76616938954E+02 -0.75598990282E+02 -0.13712082114E+04  0.13754325843E+04  0.41800000000E+01 0.  1.
        -11    1    3    3    0    0  0.69188423283E+01  0.38031191791E+02 -0.19080853210E+03  0.19468471396E+03  0.00000000000E+00 0. -1.
         11    1    3    3    0    0  0.99506213181E+02 -0.56134032762E+01 -0.24340564450E+03  0.26301958964E+03  0.00000000000E+00 0.  1.
</event>
<event>
 8    1  0.5900800E-006  0.9455487E+02  0.7561462E-02  0.1292182E+00
          1   -1    0    0  501    0  0.00000000000E+00  0.00000000000E+00  0.93589828128E+03  0.93589828128E+03  0.00000000000E+00 0. -1.
         -1   -1    0    0    0  501 -0.00000000000E+00 -0.00000000000E+00 -0.25198581779E+02  0.25198581779E+02  0.00000000000E+00 0.  1.
         23    2    1    2    0    0  0.41756787253E+02 -0.65750893501E+01  0.10977980089E+03  0.14936534772E+03  0.92040976385E+02 0.  0.
         23    2    1    2    0    0 -0.41756787253E+02  0.65750893501E+01  0.80091989861E+03  0.81173151534E+03  0.12509399636E+03 0.  0.
          5    1    4    4  502    0 -0.26520098246E+02  0.63509517193E+02  0.33053364796E+03  0.33764884010E+03  0.41800000000E+01 0. -1.
         -5    1    4    4    0  502 -0.15236689006E+02 -0.56934427843E+02  0.47038625064E+03  0.47408267524E+03  0.41800000000E+01 0. -1.
        -11    1    3    3    0    0  0.11597788084E+02  0.18511011973E+02 -0.94851160665E+01  0.23814568640E+02  0.00000000000E+00 0.  1.
         11    1    3    3    0    0  0.30158999168E+02 -0.25086101323E+02  0.11926491696E+03  0.12555077908E+03  0.00000000000E+00 0. -1.
</event>
<event>
 8    1  0.5900800E-006  0.1148466E+03  0.7561462E-02  0.1251849E+00
          1   -1    0    0  501    0  0.00000000000E+00  0.00000000000E+00  0.20179746511E+03  0.20179746511E+03  0.00000000000E+00 0. -1.
         -1   -1    0    0    0  501 -0.00000000000E+00 -0.00000000000E+00 -0.94463769245E+02  0.94463769245E+02  0.00000000000E+00 0.  1.
         23    2    1    2    0    0 -0.75215834835E+02 -0.30794144437E+02  0.77558865873E+02  0.14414353207E+03  0.90312120013E+02 0.  0.
         23    2    1    2    0    0  0.75215834835E+02  0.30794144437E+02  0.29774829995E+02  0.15211770229E+03  0.12509018229E+03 0.  0.
          5    1    4    4  502    0 -0.32820291067E+02  0.16851146949E+02 -0.55121193561E+01  0.37536495828E+02  0.41800000000E+01 0.  1.
         -5    1    4    4    0  502  0.10803612590E+03  0.13942997488E+02  0.35286949351E+02  0.11458120646E+03  0.41800000000E+01 0.  1.
        -11    1    3    3    0    0 -0.15491746375E+02  0.16575200430E+01  0.74491308458E+02  0.76103197135E+02  0.00000000000E+00 0. -1.
         11    1    3    3    0    0 -0.59724088460E+02 -0.32451664480E+02  0.30675574151E+01  0.68040334937E+02  0.00000000000E+00 0.  1.
</event>
<event>
 8    1  0.5900800E-006  0.1232872E+03  0.7561462E-02  0.1237771E+00
         -2   -1    0    0    0  501 -0.00000000000E+00  0.00000000000E+00  0.80492167895E+02  0.80492167895E+02  0.00000000000E+00 0.  1.
          2   -1    0    0  501    0  0.00000000000E+00 -0.00000000000E+00 -0.20607239136E+03  0.20607239136E+03  0.00000000000E+00 0. -1.
         23    2    1    2    0    0 -0.43080322078E+02  0.54172870259E+02 -0.57070978947E+02  0.12803492907E+03  0.91352243556E+02 0.  0.
         23    2    1    2    0    0  0.43080322078E+02 -0.54172870259E+02 -0.68509244522E+02  0.15852963018E+03  0.12509001974E+03 0.  0.
          5    1    4    4  502    0  0.14011661018E+02  0.35087346341E+02 -0.49913937370E+02  0.62740115249E+02  0.41800000000E+01 0.  1.
         -5    1    4    4    0  502  0.29068661060E+02 -0.89260216600E+02 -0.18595307152E+02  0.95789514934E+02  0.41800000000E+01 0.  1.
        -11    1    3    3    0    0  0.26339723175E+02 -0.32047568342E+00 -0.12205782923E+02  0.29032134926E+02  0.00000000000E+00 0.  1.
         11    1    3    3    0    0 -0.69420045253E+02  0.54493345943E+02 -0.44865196024E+02  0.99002794149E+02  0.00000000000E+00 0. -1.
</event>
<event>
 8    1  0.5900800E-006  0.9229984E+02  0.7561462E-02  0.1297376E+00
         -1   -1    0    0    0  501 -0.00000000000E+00  0.00000000000E+00  0.15166469033E+02  0.15166469033E+02  0.00000000000E+00 0.  1.
          1   -1    0    0  501    0  0.00000000000E+00 -0.00000000000E+00 -0.99463684778E+03  0.99463684778E+03  0.00000000000E+00 0. -1.
         23    2    1    2    0    0 -0.61083613811E+01  0.33826237059E+02 -0.20204066517E+03  0.22340299421E+03  0.88920982060E+02 0.  0.
         23    2    1    2    0    0  0.61083613811E+01 -0.33826237059E+02 -0.77742971358E+03  0.78640032260E+03  0.11334452538E+03 0.  0.
          5    1    4    4  502    0 -0.84209117804E+01  0.40919022663E+02 -0.25466908121E+03  0.25810674438E+03  0.41800000000E+01 0. -1.
         -5    1    4    4    0  502  0.14529273162E+02 -0.74745259722E+02 -0.52276063237E+03  0.52829357822E+03  0.41800000000E+01 0.  1.
        -11    1    3    3    0    0 -0.21254882372E+02  0.43477974336E+02 -0.19947332428E+03  0.20526010663E+03  0.00000000000E+00 0. -1.
         11    1    3    3    0    0  0.15146520991E+02 -0.96517372767E+01 -0.25673408919E+01  0.18142887583E+02  0.00000000000E+00 0.  1.
</event>
<event>
 8    1  0.5900800E-006  0.1417968E+03  0.7561462E-02  0.1210932E+00
         -2   -1    0    0    0  501 -0.00000000000E+00  0.00000000000E+00  0.27540531093E+03  0.27540531093E+03  0.00000000000E+00 0.  1.
          2   -1    0    0  501    0  0.00000000000E+00 -0.00000000000E+00 -0.86505868199E+02  0.86505868199E+02  0.00000000000E+00 0. -1.
         23    2    1    2    0    0 -0.68704778240E+02 -0.77256614785E+02  0.12815869836E+03  0.18862593387E+03  0.92011737737E+02 0.  0.
         23    2    1    2    0    0  0.68704778240E+02  0.77256614785E+02  0.60740744375E+02  0.17328524526E+03  0.12509759038E+03 0.  0.
          5    1    4    4  502    0  0.74249055970E+02  0.46294230306E+01 -0.55385700368E+01  0.74716143022E+02  0.41800000000E+01 0. -1.
         -5    1    4    4    0  502 -0.55442777305E+01  0.72627191755E+02  0.66279314412E+02  0.98569102241E+02  0.41800000000E+01 0. -1.
        -11    1    3    3    0    0 -0.31684968393E+02  0.16212119465E+02  0.19460362418E+02  0.40564464067E+02  0.00000000000E+00 0. -1.
         11    1    3    3    0    0 -0.37019809847E+02 -0.93468734250E+02  0.10869833594E+03  0.14806146980E+03  0.00000000000E+00 0.  1.
</event>
<event>
 8    1  0.5900800E-006  0.9440579E+02  0.7561462E-02  0.1292520E+00
         -1   -1    0    0    0  501 -0.00000000000E+00  0.00000000000E+00  0.48542780455E+03  0.48542780455E+03  0.00000000000E+00 0.  1.
          1   -1    0    0  501    0  0.00000000000E+00 -0.00000000000E+00 -0.35270997412E+02  0.35270997412E+02  0.00000000000E+00 0. -1.
         23    2    1    2    0    0  0.36857757366E+02 -0.63498222411E+02  0.20378161613E+03  0.23479890613E+03  0.90625938441E+02 0.  0.
         23    2    1    2    0    0 -0.36857757366E+02  0.63498222411E+02  0.24637519101E+03  0.28589989584E+03  0.12508995630E+03 0.  0.
          5    1    4    4  502    0 -0.46156417546E+01  0.80492712851E+01 -0.14224505342E+02  0.17490107754E+02  0.41800000000E+01 0. -1.
         -5    1    4    4    0  502 -0.32242115611E+02  0.55448951126E+02  0.26059969635E+03  0.26840978808E+03  0.41800000000E+01 0. -1.
        -11    1    3    3    0    0 -0.28300409850E+02 -0.29432745678E+02  0.51726856665E+02  0.65900435630E+02  0.00000000000E+00 0. -1.
         11    1    3    3    0    0  0.65158167216E+02 -0.34065476733E+02  0.15205475947E+03  0.16889847050E+03  0.00000000000E+00 0.  1.
</event>
<event>
 8    1  0.5900800E-006  0.1080581E+03  0.7561462E-02  0.1264209E+00
         -2   -1    0    0    0  501 -0.00000000000E+00  0.00000000000E+00  0.20070369332E+03  0.20070369332E+03  0.00000000000E+00 0.  1.
          2   -1    0    0  501    0  0.00000000000E+00 -0.00000000000E+00 -0.69265324936E+02  0.69265324936E+02  0.00000000000E+00 0. -1.
         23    2    1    2    0    0 -0.31485963377E+02 -0.17425176076E+02  0.64339092831E+02  0.12357393552E+03  0.99176590096E+02 0.  0.
         23    2    1    2    0    0  0.31485963377E+02  0.17425176076E+02  0.67099275550E+02  0.14639508273E+03  0.12503681385E+03 0.  0.
          5    1    4    4  502    0  0.11628602973E+01  0.60595973649E+02 -0.23668316274E+00  0.60751565292E+02  0.41800000000E+01 0. -1.
         -5    1    4    4    0  502  0.30323103080E+02 -0.43170797572E+02  0.67335958712E+02  0.85643517438E+02  0.41800000000E+01 0. -1.
        -11    1    3    3    0    0 -0.12162491772E+01  0.38677193648E+02  0.10402571594E+02  0.40070164291E+02  0.00000000000E+00 0. -1.
         11    1    3    3    0    0 -0.30269714200E+02 -0.56102369725E+02  0.53936521238E+02  0.83503771231E+02  0.00000000000E+00 0.  1.
</event>
<event>
 8    1  0.5900800E-006  0.1295012E+03  0.7561462E-02  0.1228198E+00
         -1   -1    0    0    0  501 -0.00000000000E+00  0.00000000000E+00  0.37476655061E+03  0.37476655061E+03  0.00000000000E+00 0.  1.
          1   -1    0    0  501    0  0.00000000000E+00 -0.00000000000E+00 -0.58921574504E+02  0.58921574504E+02  0.00000000000E+00 0. -1.
         23    2    1    2    0    0  0.72164591171E+02 -0.70518366342E+02  0.14658653033E+03  0.20028461295E+03  0.91900745929E+02 0.  0.
         23    2    1    2    0    0 -0.72164591171E+02  0.70518366342E+02  0.16925844577E+03  0.23340351216E+03  0.12509280479E+03 0.  0.
          5    1    4    4  502    0 -0.11449339562E+02  0.92384797629E+02  0.12094916280E+03  0.15268336710E+03  0.41800000000E+01 0. -1.
         -5    1    4    4    0  502 -0.60715251610E+02 -0.21866431288E+02  0.48309282978E+02  0.80720145052E+02  0.41800000000E+01 0. -1.
        -11    1    3    3    0    0  0.23402318744E+02 -0.27633817726E+02  0.12758504331E+03  0.13262443093E+03  0.00000000000E+00 0. -1.
         11    1    3    3    0    0  0.48762272428E+02 -0.42884548616E+02  0.19001487023E+02  0.67660182023E+02  0.00000000000E+00 0.  1.
</event>
<event>
 8    1  0.5900800E-006  0.1238742E+03  0.7561462E-02  0.1236839E+00
         -2   -1    0    0    0  501 -0.00000000000E+00  0.00000000000E+00  0.51594432143E+02  0.51594432143E+02  0.00000000000E+00 0.  1.
          2   -1    0    0  501    0  0.00000000000E+00 -0.00000000000E+00 -0.71190913786E+03  0.71190913786E+03  0.00000000000E+00 0. -1.
         23    2    1    2    0    0  0.86623216681E+02 -0.39019225302E+02 -0.61026225563E+02  0.14397125433E+03  0.89316517267E+02 0.  0.
         23    2    1    2    0    0 -0.86623216681E+02  0.39019225302E+02 -0.59928848016E+03  0.61953231567E+03  0.12509007195E+03 0.  0.
          5    1    4    4  502    0 -0.92788798065E+02  0.54954787635E+02 -0.28496135628E+03  0.30471336811E+03  0.41800000000E+01 0. -1.
         -5    1    4    4    0  502  0.61655813832E+01 -0.15935562333E+02 -0.31432712388E+03  0.31481894756E+03  0.41800000000E+01 0. -1.
        -11    1    3    3    0    0  0.51728916792E+02  0.18518160019E+02 -0.28487505329E+01  0.55017437805E+02  0.00000000000E+00 0.  1.
         11    1    3    3    0    0  0.34894299889E+02 -0.57537385321E+02 -0.58177475030E+02  0.88953816530E+02  0.00000000000E+00 0. -1.
</event>
<event>
 7    1  0.5900800E-006  0.1108108E+03  0.7561462E-02  0.1259076E+00
          2   -1    0    0  501    0  0.00000000000E+00  0.00000000000E+00  0.82433266123E+02  0.82433266123E+02  0.00000000000E+00 0. -1.
         -2   -1    0    0    0  501 -0.00000000000E+00 -0.00000000000E+00 -0.52497322609E+03  0.52497322609E+03  0.00000000000E+00 0.  1.
         23    2    1    2    0    0  0.70354240263E+02  0.39034703306E+02 -0.15761281518E+03  0.19981234017E+03  0.92788709380E+02 0.  0.
          5    1    1    2  502    0 -0.74989214219E+02 -0.13550812073E+02  0.36850047844E+02  0.84749071872E+02  0.41800000000E+01 0. -1.
         -5    1    1    2    0  502  0.46349739564E+01 -0.25483891233E+02 -0.32177719263E+03  0.32284508017E+03  0.41800000000E+01 0.  1.
        -11    1    3    3    0    0  0.89911859039E+02  0.20711919646E+02 -0.14025420616E+03  0.16788200725E+03  0.00000000000E+00 0.  1.
         11    1    3    3    0    0 -0.19557618777E+02  0.18322783660E+02 -0.17358609021E+02  0.31930332920E+02  0.00000000000E+00 0. -1.
</event>
<event>
 8    1  0.5900800E-006  0.1060319E+03  0.7561462E-02  0.1268100E+00
          3   -1    0    0  501    0  0.00000000000E+00  0.00000000000E+00  0.94861591048E+02  0.94861591048E+02  0.00000000000E+00 0. -1.
         -3   -1    0    0    0  501 -0.00000000000E+00 -0.00000000000E+00 -0.13210146057E+03  0.13210146057E+03  0.00000000000E+00 0.  1.
         23    2    1    2    0    0 -0.16587970926E+02  0.10769763331E+02 -0.34722661881E+02  0.10029621715E+03  0.91991952611E+02 0.  0.
         23    2    1    2    0    0  0.16587970926E+02 -0.10769763331E+02 -0.25172076422E+01  0.12666683447E+03  0.12508797719E+03 0.  0.
          5    1    4    4  502    0 -0.80286980140E+00 -0.65766574049E+02  0.12124012294E+02  0.67010080855E+02  0.41800000000E+01 0.  1.
         -5    1    4    4    0  502  0.17390840727E+02  0.54996810718E+02 -0.14641219936E+02  0.59656753613E+02  0.41800000000E+01 0.  1.
        -11    1    3    3    0    0  0.34028843391E+02 -0.68883133199E+01 -0.31023301963E+02  0.46560243853E+02  0.00000000000E+00 0.  1.
         11    1    3    3    0    0 -0.50616814317E+02  0.17658076651E+02 -0.36993599176E+01  0.53735973299E+02  0.00000000000E+00 0. -1.
</event>
<event>
 8    1  0.5900800E-006  0.7923197E+02  0.7561462E-02  0.1331245E+00
         -1   -1    0    0    0  501 -0.00000000000E+00  0.00000000000E+00  0.27591460431E+02  0.27591460431E+02  0.00000000000E+00 0.  1.
          1   -1    0    0  501    0  0.00000000000E+00 -0.00000000000E+00 -0.49496915666E+03  0.49496915666E+03  0.00000000000E+00 0. -1.
         23    2    1    2    0    0  0.10837547783E+02  0.41505531128E+02 -0.18649270738E+03  0.21210303413E+03  0.91476803752E+02 0.  0.
         23    2    1    2    0    0 -0.10837547783E+02 -0.41505531128E+02 -0.28088498885E+03  0.31045758296E+03  0.12508945720E+03 0.  0.
          5    1    4    4  502    0  0.25713810838E+02 -0.91504440109E+01 -0.24222031824E+01  0.27717686802E+02  0.41800000000E+01 0.  1.
         -5    1    4    4    0  502 -0.36551358621E+02 -0.32355087117E+02 -0.27846278567E+03  0.28273989616E+03  0.41800000000E+01 0.  1.
        -11    1    3    3    0    0 -0.29859080669E+02  0.17379205909E+02 -0.14536787505E+03  0.14941693543E+03  0.00000000000E+00 0. -1.
         11    1    3    3    0    0  0.40696628451E+02  0.24126325219E+02 -0.41124832324E+02  0.62686098695E+02  0.00000000000E+00 0.  1.
</event>
<event>
 8    1  0.5900800E-006  0.1703034E+03  0.7561462E-02  0.1177532E+00
         -2   -1    0    0    0  501 -0.00000000000E+00  0.00000000000E+00  0.40421721277E+02  0.40421721277E+02  0.00000000000E+00 0.  1.
          2   -1    0    0  501    0  0.00000000000E+00 -0.00000000000E+00 -0.89640814632E+03  0.89640814632E+03  0.00000000000E+00 0. -1.
         23    2    1    2    0    0 -0.15160321749E+03  0.36900086375E+02 -0.37133050204E+03  0.41253583071E+03  0.89186983052E+02 0.  0.
         23    2    1    2    0    0  0.15160321749E+03 -0.36900086375E+02 -0.48465592300E+03  0.52429403689E+03  0.12509085294E+03 0.  0.
          5    1    4    4  502    0  0.43255531359E+02 -0.43403933327E+02 -0.59620072647E+02  0.85597709571E+02  0.41800000000E+01 0.  1.
         -5    1    4    4    0  502  0.10834768613E+03  0.65038469514E+01 -0.42503585036E+03  0.43869632732E+03  0.41800000000E+01 0.  1.
        -11    1    3    3    0    0 -0.74188344301E+02 -0.17152808848E+02 -0.23241419959E+03  0.24457000931E+03  0.00000000000E+00 0. -1.
         11    1    3    3    0    0 -0.77414873185E+02  0.54052895223E+02 -0.13891630244E+03  0.16796582140E+03  0.00000000000E+00 0.  1.
</event>
<event>
 6    1  0.5900800E-006  0.1885348E+03  0.7561462E-02  0.1159789E+00
          1   -1    0    0  501    0  0.00000000000E+00  0.00000000000E+00  0.86967251538E+02  0.86967251538E+02  0.00000000000E+00 0. -1.
         -1   -1    0    0    0  501 -0.00000000000E+00 -0.00000000000E+00 -0.69018886115E+03  0.69018886115E+03  0.00000000000E+00 0.  1.
          5    1    1    2  502    0  0.34186875667E+02  0.13842172178E+03 -0.52419238102E+02  0.15196895884E+03  0.41800000000E+01 0. -1.
         -5    1    1    2    0  502  0.41120956664E+02  0.63201340742E+00 -0.11286326530E+03  0.12019534755E+03  0.41800000000E+01 0.  1.
        -11    1    1    2    0    0 -0.44709131808E+01 -0.11952732911E+03 -0.40881150859E+03  0.42595025652E+03  0.00000000000E+00 0.  1.
         11    1    1    2    0    0 -0.70836919150E+02 -0.19526406072E+02 -0.29127597610E+02  0.79041549778E+02  0.00000000000E+00 0. -1.
</event>
<event>
 8    1  0.5900800E-006  0.9633421E+02  0.7561462E-02  0.1288199E+00
         -3   -1    0    0    0  501 -0.00000000000E+00  0.00000000000E+00  0.11526859463E+03  0.11526859463E+03  0.00000000000E+00 0.  1.
          3   -1    0    0  501    0  0.00000000000E+00 -0.00000000000E+00 -0.13633315232E+03  0.13633315232E+03  0.00000000000E+00 0. -1.
         23    2    1    2    0    0  0.50679058832E+02 -0.11772486628E+02  0.26442807017E+02  0.10803228817E+03  0.90910916833E+02 0.  0.
         23    2    1    2    0    0 -0.50679058832E+02  0.11772486628E+02 -0.47507364714E+02  0.14356945877E+03  0.12509309072E+03 0.  0.
          5    1    4    4  502    0  0.21111608569E+02  0.14985180811E+02 -0.64482343749E+02  0.69611067480E+02  0.41800000000E+01 0.  1.
         -5    1    4    4    0  502 -0.71790667400E+02 -0.32126941823E+01  0.16974979035E+02  0.73958391295E+02  0.41800000000E+01 0.  1.
        -11    1    3    3    0    0  0.90680369662E+01 -0.42038830980E+02  0.35527169085E+02  0.55782365921E+02  0.00000000000E+00 0.  1.
         11    1    3    3    0    0  0.41611021866E+02  0.30266344351E+02 -0.90843620681E+01  0.52249922251E+02  0.00000000000E+00 0. -1.
</event>
<event>
 8    1  0.1164254E-005  0.2916977E+03  0.7561462E-02  0.1089466E+00
          2   -1    0    0  501    0  0.00000000000E+00  0.00000000000E+00  0.60701053968E+03  0.60701053968E+03  0.00000000000E+00 0. -1.
         -2   -1    0    0    0  501 -0.00000000000E+00 -0.00000000000E+00 -0.17645902686E+03  0.17645902686E+03  0.00000000000E+00 0.  1.
         23    2    1    2    0    0 -0.64316382374E+02 -0.27729848604E+03  0.59837307895E+02  0.29962336696E+03  0.71851313210E+02 0.  0.
         23    2    1    2    0    0  0.64316382374E+02  0.27729848604E+03  0.37071420492E+03  0.48384619958E+03  0.12508827172E+03 0.  0.
          5    1    4    4  502    0  0.17547578311E+02  0.13969254547E+02  0.10265790639E+03  0.10516261561E+03  0.41800000000E+01 0. -1.
         -5    1    4    4    0  502  0.46768804063E+02  0.26332923149E+03  0.26805629853E+03  0.37868358398E+03  0.41800000000E+01 0. -1.
        -11    1    3    3    0    0  0.84640304938E+01 -0.11400768249E+03  0.14919791033E+02  0.11529090009E+03  0.00000000000E+00 0. -1.
         11    1    3    3    0    0 -0.72780412868E+02 -0.16329080355E+03  0.44917516861E+02  0.18433246687E+03  0.00000000000E+00 0.  1.
</event>
<event>
 8    1  0.5900800E-006  0.1273118E+03  0.7561462E-02  0.1231500E+00
          1   -1    0    0  501    0  0.00000000000E+00  0.00000000000E+00  0.27856429765E+03  0.27856429765E+03  0.00000000000E+00 0. -1.
         -1   -1    0    0    0  501 -0.00000000000E+00 -0.00000000000E+00 -0.13353137468E+03  0.13353137468E+03  0.00000000000E+00 0.  1.
         23    2    1    2    0    0  0.50924997040E+02  0.47750601015E+02 -0.84574760795E+02  0.14145081522E+03  0.89341858851E+02 0.  0.
         23    2    1    2    0    0 -0.50924997040E+02 -0.47750601015E+02  0.22960768377E+03  0.27064485711E+03  0.12512184067E+03 0.  0.
          5    1    4    4  502    0 -0.57821160062E+02 -0.85543258067E+02  0.18239441674E+03  0.20963332561E+03  0.41800000000E+01 0.  1.
         -5    1    4    4    0  502  0.68961630219E+01  0.37792657052E+02  0.47213267030E+02  0.61011531493E+02  0.41800000000E+01 0.  1.
        -11    1    3    3    0    0  0.32930166261E+02 -0.22657906216E+02 -0.22457098025E+02  0.45848640283E+02  0.00000000000E+00 0.  1.
         11    1    3    3    0    0  0.17994830779E+02  0.70408507232E+02 -0.62117662770E+02  0.95602174941E+02  0.00000000000E+00 0. -1.
</event>
<event>
 8    1  0.5900800E-006  0.9295917E+02  0.7561462E-02  0.1295840E+00
         -1   -1    0    0    0  501 -0.00000000000E+00  0.00000000000E+00  0.47768498004E+03  0.47768498004E+03  0.00000000000E+00 0.  1.
          1   -1    0    0  501    0  0.00000000000E+00 -0.00000000000E+00 -0.33112525546E+02  0.33112525546E+02  0.00000000000E+00 0. -1.
         23    2    1    2    0    0 -0.68774774159E+02 -0.18350347936E-02  0.25128870815E+03  0.27707301546E+03  0.94305203929E+02 0.  0.
         23    2    1    2    0    0  0.68774774159E+02  0.18350347936E-02  0.19328374634E+03  0.23372449012E+03  0.11197571665E+03 0.  0.
          5    1    4    4  502    0  0.27680764156E+02  0.32477527425E+02  0.11348887946E+02  0.44354077034E+02  0.41800000000E+01 0. -1.
         -5    1    4    4    0  502  0.41094010003E+02 -0.32475692390E+02  0.18193485840E+03  0.18937041309E+03  0.41800000000E+01 0.  1.
        -11    1    3    3    0    0 -0.79334997240E+02  0.33839996234E+01  0.25360315761E+03  0.26574434104E+03  0.00000000000E+00 0. -1.
         11    1    3    3    0    0  0.10560223081E+02 -0.33858346582E+01 -0.23144494648E+01  0.11328674423E+02  0.00000000000E+00 0.  1.
</event>
<event>
 8    1  0.5900800E-006  0.2067561E+03  0.7561462E-02  0.1144161E+00
         -3   -1    0    0    0  501 -0.00000000000E+00  0.00000000000E+00  0.33307968763E+03  0.33307968763E+03  0.00000000000E+00 0.  1.
          3   -1    0    0  501    0  0.00000000000E+00 -0.00000000000E+00 -0.14893784498E+03  0.14893784498E+03  0.00000000000E+00 0. -1.
         23    2    1    2    0    0 -0.50166038731E+02 -0.17123457413E+03  0.17082575500E+03  0.26370014764E+03  0.92295278745E+02 0.  0.
         23    2    1    2    0    0  0.50166038731E+02  0.17123457413E+03  0.13316087659E+02  0.21831738497E+03  0.12508897461E+03 0.  0.
          5    1    4    4  502    0  0.88750050494E+02  0.11020865121E+03 -0.11071441159E+02  0.14199495580E+03  0.41800000000E+01 0.  1.
         -5    1    4    4    0  502 -0.38584011763E+02  0.61025922916E+02  0.24387528818E+02  0.76322429162E+02  0.41800000000E+01 0.  1.
        -11    1    3    3    0    0 -0.57338695055E+02 -0.44215170974E+02  0.48065314408E+02  0.86907892300E+02  0.00000000000E+00 0.  1.
         11    1    3    3    0    0  0.71726563235E+01 -0.12701940315E+03  0.12276044059E+03  0.17679225534E+03  0.00000000000E+00 0. -1.
</event>
<event>
 8    1  0.5900800E-006  0.1132174E+03  0.7561462E-02  0.1254725E+00
         -1   -1    0    0    0  501 -0.00000000000E+00  0.00000000000E+00  0.24356702492E+03  0.24356702492E+03  0.00000000000E+00 0.  1.
          1   -1    0    0  501    0  0.00000000000E+00 -0.00000000000E+00 -0.86154492043E+02  0.86154492043E+02  0.00000000000E+00 0. -1.
         23    2    1    2    0    0 -0.83453201910E+02  0.28152815095E+02  0.11116862296E+03  0.16989937010E+03  0.93543120135E+02 0.  0.
         23    2    1    2    0    0  0.83453201910E+02 -0.28152815095E+02  0.46243909917E+02  0.15982214686E+03  0.12509037339E+03 0.  0.
          5    1    4    4  502    0  0.64916788268E+02 -0.43398792923E+02  0.84078218263E+02  0.11482274954E+03  0.41800000000E+01 0.  1.
         -5    1    4    4    0  502  0.18536413643E+02  0.15245977828E+02 -0.37834308346E+02  0.44999397314E+02  0.41800000000E+01 0.  1.
        -11    1    3    3    0    0 -0.42939903587E+02 -0.30442480205E+02  0.25517865046E+02  0.58495652468E+02  0.00000000000E+00 0.  1.
         11    1    3    3    0    0 -0.40513298323E+02  0.58595295300E+02  0.85650757913E+02  0.11140371764E+03  0.00000000000E+00 0. -1.
</event>
<event>
 8    1  0.5900800E-006  0.1536337E+03  0.7561462E-02  0.1196078E+00
          1   -1    0    0  501    0  0.00000000000E+00  0.00000000000E+00  0.43960105899E+03  0.43960105899E+03  0.00000000000E+00 0. -1.
         -1   -1    0    0    0  501 -0.00000000000E+00 -0.00000000000E+00 -0.83884955053E+02  0.83884955053E+02  0.00000000000E+00 0.  1.
         23    2    1    2    0    0 -0.59714166192E+02  0.10103029992E+03  0.25446310122E+02  0.15133205524E+03  0.92092198904E+02 0.  0.
         23    2    1    2    0    0  0.59714166192E+02 -0.10103029992E+03  0.33026979381E+03  0.37215395880E+03  0.12509008435E+03 0.  0.
          5    1    4    4  502    0  0.14652712257E+02 -0.11387407327E+03  0.17044953500E+03  0.20555418488E+03  0.41800000000E+01 0.  1.
         -5    1    4    4    0  502  0.45061453935E+02  0.12843773353E+02  0.15982025881E+03  0.16659977392E+03  0.41800000000E+01 0.  1.
        -11    1    3    3    0    0  0.12793031389E+02  0.61373335086E+02 -0.58416204313E+01  0.62964056738E+02  0.00000000000E+00 0.  1.
         11    1    3    3    0    0 -0.72507197582E+02  0.39656964830E+02  0.31287930554E+02  0.88367998501E+02  0.00000000000E+00 0. -1.
</event>
<event>
 8    1  0.5900800E-006  0.1413746E+03  0.7561462E-02  0.1211491E+00
          2   -1    0    0  501    0  0.00000000000E+00  0.00000000000E+00  0.69284709727E+03  0.69284709727E+03  0.00000000000E+00 0.  1.
         -2   -1    0    0    0  501 -0.00000000000E+00 -0.00000000000E+00 -0.32697439692E+02  0.32697439692E+02  0.00000000000E+00 0. -1.
         23    2    1    2    0    0 -0.40142513198E+02 -0.87943954358E+02  0.39165943028E+03  0.41396562385E+03  0.92870167035E+02 0.  0.
         23    2    1    2    0    0  0.40142513198E+02  0.87943954358E+02  0.26849022730E+03  0.31157891312E+03  0.12509538948E+03 0.  0.
          5    1    4    4  502    0  0.20340785293E+02 -0.30102279798E+02  0.44684966887E+02  0.57741782628E+02  0.41800000000E+01 0. -1.
         -5    1    4    4    0  502  0.19801727905E+02  0.11804623416E+03  0.22380526041E+03  0.25383713049E+03  0.41800000000E+01 0. -1.
        -11    1    3    3    0    0 -0.16615337990E+02 -0.99021620551E+02  0.24101307691E+03  0.26109127529E+03  0.00000000000E+00 0.  1.
         11    1    3    3    0    0 -0.23527175209E+02  0.11077666193E+02  0.15064635337E+03  0.15287434855E+03  0.00000000000E+00 0. -1.
</event>
<event>
 8    1  0.5900800E-006  0.1513661E+03  0.7561462E-02  0.1198804E+00
          4   -1    0    0  501    0  0.00000000000E+00  0.00000000000E+00  0.30149642745E+03  0.30149642745E+03  0.00000000000E+00 0.  1.
         -4   -1    0    0    0  501 -0.00000000000E+00 -0.00000000000E+00 -0.14590875087E+03  0.14590875087E+03  0.00000000000E+00 0. -1.
         23    2    1    2    0    0 -0.10727671041E+03  0.68501778601E+02 -0.60331198600E+02  0.16728223939E+03  0.90236953762E+02 0.  0.
         23    2    1    2    0    0  0.10727671041E+03 -0.68501778601E+02  0.21591887518E+03  0.28012293893E+03  0.12508842467E+03 0.  0.
          5    1    4    4  502    0  0.29888235176E+02 -0.64495355438E+02  0.18199148308E+03  0.19542602127E+03  0.41800000000E+01 0. -1.
         -5    1    4    4    0  502  0.77388475235E+02 -0.40064231628E+01  0.33927392096E+02  0.84696917654E+02  0.41800000000E+01 0. -1.
        -11    1    3    3    0    0 -0.19198644790E+02  0.62787648978E+02 -0.12310205351E+02  0.66801332186E+02  0.00000000000E+00 0.  1.
         11    1    3    3    0    0 -0.88078065621E+02  0.57141296226E+01 -0.48020993249E+02  0.10048090721E+03  0.00000000000E+00 0. -1.
</event>
<event>
 8    1  0.5900800E-006  0.1101475E+03  0.7561462E-02  0.1260297E+00
         -2   -1    0    0    0  501 -0.00000000000E+00  0.00000000000E+00  0.37772729219E+03  0.37772729219E+03  0.00000000000E+00 0.  1.
          2   -1    0    0  501    0  0.00000000000E+00 -0.00000000000E+00 -0.40461926897E+02  0.40461926897E+02  0.00000000000E+00 0. -1.
         23    2    1    2    0    0 -0.16299690931E+02 -0.16683458223E+02  0.23607091976E+03  0.25561210887E+03  0.95205322028E+02 0.  0.
         23    2    1    2    0    0  0.16299690931E+02  0.16683458223E+02  0.10119444553E+03  0.16257711021E+03  0.12508790212E+03 0.  0.
          5    1    4    4  502    0 -0.36230657310E+02 -0.35898949976E+02  0.28729226677E+02  0.58687613718E+02  0.41800000000E+01 0. -1.
         -5    1    4    4    0  502  0.52530348241E+02  0.52582408199E+02  0.72465218849E+02  0.10388949649E+03  0.41800000000E+01 0. -1.
        -11    1    3    3    0    0 -0.15008471228E+02  0.37544627082E+02  0.13474082974E+03  0.14067673735E+03  0.00000000000E+00 0.  1.
         11    1    3    3    0    0 -0.12912197031E+01 -0.54228085305E+02  0.10133009002E+03  0.11493537153E+03  0.00000000000E+00 0. -1.
</event>
<event>
 8    1  0.5900800E-006  0.1403756E+03  0.7561462E-02  0.1212824E+00
         -1   -1    0    0    0  501 -0.00000000000E+00  0.00000000000E+00  0.37567232867E+02  0.37567232867E+02  0.00000000000E+00 0.  1.
          1   -1    0    0  501    0  0.00000000000E+00 -0.00000000000E+00 -0.86215430676E+03  0.86215430676E+03  0.00000000000E+00 0. -1.
         23    2    1    2    0    0  0.76278944748E+02  0.48479756894E+02 -0.11258576958E+03  0.17118731061E+03  0.91982474200E+02 0.  0.
         23    2    1    2    0    0 -0.76278944748E+02 -0.48479756894E+02 -0.71200130431E+03  0.72853422902E+03  0.12508997272E+03 0.  0.
          5    1    4    4  502    0 -0.39060518955E+02 -0.88674076480E+02 -0.38991097411E+03  0.40179205581E+03  0.41800000000E+01 0.  1.
         -5    1    4    4    0  502 -0.37218425792E+02  0.40194319587E+02 -0.32209033020E+03  0.32674217321E+03  0.41800000000E+01 0.  1.
        -11    1    3    3    0    0  0.55072459926E+02  0.76141816958E+02 -0.78670040206E+02  0.12255418132E+03  0.00000000000E+00 0. -1.
         11    1    3    3    0    0  0.21206484822E+02 -0.27662060064E+02 -0.33915729375E+02  0.48633129290E+02  0.00000000000E+00 0.  1.
</event>
<event>
 8    1  0.5900800E-006  0.1108015E+03  0.7561462E-02  0.1259093E+00
          1   -1    0    0  501    0  0.00000000000E+00  0.00000000000E+00  0.24990795933E+03  0.24990795933E+03  0.00000000000E+00 0. -1.
         -1   -1    0    0    0  501 -0.00000000000E+00 -0.00000000000E+00 -0.50615476961E+02  0.50615476961E+02  0.00000000000E+00 0.  1.
         23    2    1    2    0    0 -0.29614981421E+02  0.17341703398E+02  0.71191448179E+02  0.11821616317E+03  0.87915056384E+02 0.  0.
         23    2    1    2    0    0  0.29614981421E+02 -0.17341703398E+02  0.12810103419E+03  0.18230727312E+03  0.12509310561E+03 0.  0.
          5    1    4    4  502    0  0.36225855862E+00  0.52084017126E+02  0.37046254120E+02  0.64052895451E+02  0.41800000000E+01 0. -1.
         -5    1    4    4    0  502  0.29252722862E+02 -0.69425720524E+02  0.91054780067E+02  0.11825437767E+03  0.41800000000E+01 0. -1.
        -11    1    3    3    0    0  0.27746137650E+02 -0.11085569791E+02  0.28326537150E+02  0.41171965207E+02  0.00000000000E+00 0. -1.
         11    1    3    3    0    0 -0.57361119071E+02  0.28427273188E+02  0.42864911029E+02  0.77044197961E+02  0.00000000000E+00 0.  1.
</event>
<event>
 7    1  0.5900800E-006  0.1928575E+03  0.7561462E-02  0.1155909E+00
          2   -1    0    0  501    0  0.00000000000E+00  0.00000000000E+00  0.43401329453E+03  0.43401329453E+03  0.00000000000E+00 0. -1.
         -2   -1    0    0    0  501 -0.00000000000E+00 -0.00000000000E+00 -0.95091208149E+02  0.95091208149E+02  0.00000000000E+00 0.  1.
         23    2    1    2    0    0  0.74175056037E+02 -0.59708757949E+02  0.77160500189E+02  0.16224239412E+03  0.10630981586E+03 0.  0.
          5    1    1    2  502    0  0.64590980411E+02 -0.36497143063E+02  0.14048709635E+03  0.15892807443E+03  0.41800000000E+01 0. -1.
         -5    1    1    2    0  502 -0.13876603645E+03  0.96205901012E+02  0.12127448985E+03  0.20793403413E+03  0.41800000000E+01 0.  1.
        -11    1    3    3    0    0  0.74212016516E+02  0.81370771240E+01  0.35953472657E+02  0.82863065449E+02  0.00000000000E+00 0. -1.
         11    1    3    3    0    0 -0.36960478848E-01 -0.67845835073E+02  0.41207027532E+02  0.79379328674E+02  0.00000000000E+00 0.  1.
</event>
<event>
 8    1  0.5900800E-006  0.1820906E+03  0.7561462E-02  0.1165795E+00
          1   -1    0    0  501    0  0.00000000000E+00  0.00000000000E+00  0.45470041487E+03  0.45470041487E+03  0.00000000000E+00 0. -1.
         -1   -1    0    0    0  501 -0.00000000000E+00 -0.00000000000E+00 -0.82095306386E+02  0.82095306386E+02  0.00000000000E+00 0.  1.
         23    2    1    2    0    0 -0.15614680825E+03 -0.31424522719E+02  0.16149009585E+03  0.24424470217E+03  0.90593030218E+02 0.  0.
         23    2    1    2    0    0  0.15614680825E+03  0.31424522719E+02  0.21111501263E+03  0.29255101909E+03  0.12508886384E+03 0.  0.
          5    1    4    4  502    0  0.11713841634E+02  0.34234509238E+02  0.11078270783E+03  0.11661687898E+03  0.41800000000E+01 0.  1.
         -5    1    4    4    0  502  0.14443296661E+03 -0.28099865192E+01  0.10033230480E+03  0.17593414011E+03  0.41800000000E+01 0.  1.
        -11    1    3    3    0    0 -0.55758013537E+02 -0.56900693044E+02  0.70763427075E+02  0.10655565472E+03  0.00000000000E+00 0. -1.
         11    1    3    3    0    0 -0.10038879471E+03  0.25476170325E+02  0.90726668780E+02  0.13768904744E+03  0.00000000000E+00 0.  1.
</event>
<event>
 8    1  0.5900800E-006  0.2310605E+03  0.7561462E-02  0.1125896E+00
          1   -1    0    0  501    0  0.00000000000E+00  0.00000000000E+00  0.71943358532E+03  0.71943358532E+03  0.00000000000E+00 0. -1.
         -1   -1    0    0    0  501 -0.00000000000E+00 -0.00000000000E+00 -0.84259876355E+02  0.84259876355E+02  0.00000000000E+00 0.  1.
         23    2    1    2    0    0 -0.19662846529E+03 -0.95543494246E+02  0.35998662430E+03  0.43064264223E+03  0.89840987193E+02 0.  0.
         23    2    1    2    0    0  0.19662846529E+03  0.95543494246E+02  0.27518708467E+03  0.37305081945E+03  0.12509064580E+03 0.  0.
          5    1    4    4  502    0 -0.12304038666E+02  0.13448374658E+02  0.56949631143E+02  0.59941480093E+02  0.41800000000E+01 0.  1.
         -5    1    4    4    0  502  0.20893250395E+03  0.82095119588E+02  0.21823745353E+03  0.31310933935E+03  0.41800000000E+01 0.  1.
        -11    1    3    3    0    0 -0.71700159272E+02 -0.28891151852E+02  0.21279207777E+03  0.22639805621E+03  0.00000000000E+00 0. -1.
         11    1    3    3    0    0 -0.12492830601E+03 -0.66652342394E+02  0.14719454653E+03  0.20424458602E+03  0.00000000000E+00 0.  1.
</event>
<event>
 8    1  0.5900800E-006  0.1428365E+03  0.7561462E-02  0.1209562E+00
         -1   -1    0    0    0  501 -0.00000000000E+00  0.00000000000E+00  0.23201893402E+02  0.23201893402E+02  0.00000000000E+00 0.  1.
          1   -1    0    0  501    0  0.00000000000E+00 -0.00000000000E+00 -0.16979728750E+04  0.16979728750E+04  0.00000000000E+00 0. -1.
         23    2    1    2    0    0 -0.29284227629E+02  0.13211662317E+03 -0.38418841958E+03  0.41750181753E+03  0.91622365136E+02 0.  0.
         23    2    1    2    0    0  0.29284227629E+02 -0.13211662317E+03 -0.12905825620E+04  0.13036729509E+04  0.12508974922E+03 0.  0.
          5    1    4    4  502    0  0.35030131143E+02 -0.38363530549E+02 -0.91561736081E+03  0.91709950081E+03  0.41800000000E+01 0.  1.
         -5    1    4    4    0  502 -0.57459035139E+01 -0.93753092616E+02 -0.37496520123E+03  0.38657345009E+03  0.41800000000E+01 0.  1.
        -11    1    3    3    0    0 -0.16174055418E+01  0.84099011597E+02 -0.32787754645E+03  0.33849511846E+03  0.00000000000E+00 0. -1.
         11    1    3    3    0    0 -0.27666822087E+02  0.48017611568E+02 -0.56310873128E+02  0.79006699068E+02  0.00000000000E+00 0.  1.
</event>
<event>
 8    1  0.5900800E-006  0.8827449E+02  0.7561462E-02  0.1307085E+00
         -1   -1    0    0    0  501 -0.00000000000E+00  0.00000000000E+00  0.15878859949E+03  0.15878859949E+03  0.00000000000E+00 0.  1.
          1   -1    0    0  501    0  0.00000000000E+00 -0.00000000000E+00 -0.15128961839E+03  0.15128961839E+03  0.00000000000E+00 0. -1.
         23    2    1    2    0    0  0.56917539478E+02  0.39631857284E+02  0.89870629540E+02  0.14502023537E+03  0.90243272337E+02 0.  0.
         23    2    1    2    0    0 -0.56917539478E+02 -0.39631857284E+02 -0.82371648441E+02  0.16505798250E+03  0.12509499874E+03 0.  0.
          5    1    4    4  502    0 -0.11053732560E+02 -0.43291735279E+02  0.22691064515E+02  0.50286341643E+02  0.41800000000E+01 0. -1.
         -5    1    4    4    0  502 -0.45863806919E+02  0.36598779958E+01 -0.10506271296E+03  0.11477164086E+03  0.41800000000E+01 0. -1.
        -11    1    3    3    0    0  0.54586248919E+02  0.50497243184E+02  0.10349436630E+03  0.12743905993E+03  0.00000000000E+00 0.  1.
         11    1    3    3    0    0  0.23312905588E+01 -0.10865385900E+02 -0.13623736764E+02  0.17581175440E+02  0.00000000000E+00 0. -1.
</event>
<event>
 8    1  0.5900800E-006  0.1069843E+03  0.7561462E-02  0.1266259E+00
          1   -1    0    0  501    0  0.00000000000E+00  0.00000000000E+00  0.87375276687E+02  0.87375276687E+02  0.00000000000E+00 0. -1.
         -1   -1    0    0    0  501 -0.00000000000E+00 -0.00000000000E+00 -0.22369494686E+03  0.22369494686E+03  0.00000000000E+00 0.  1.
         23    2    1    2    0    0  0.73584689879E+02  0.47788712340E+02 -0.67285712395E+02  0.14339218964E+03  0.91298879214E+02 0.  0.
         23    2    1    2    0    0 -0.73584689879E+02 -0.47788712340E+02 -0.69033957779E+02  0.16767803391E+03  0.12510702665E+03 0.  0.
          5    1    4    4  502    0  0.80083010485E+01 -0.13896136697E+02  0.30382635175E+02  0.34609426765E+02  0.41800000000E+01 0. -1.
         -5    1    4    4    0  502 -0.81592990927E+02 -0.33892575643E+02 -0.99416592955E+02  0.13306860714E+03  0.41800000000E+01 0. -1.
        -11    1    3    3    0    0 -0.42252422403E+01 -0.10763934601E+02  0.12844276189E+02  0.17282661568E+02  0.00000000000E+00 0. -1.
         11    1    3    3    0    0  0.77809932119E+02  0.58552646941E+02 -0.80129988584E+02  0.12610952807E+03  0.00000000000E+00 0.  1.
</event>
<event>
 8    1  0.5900800E-006  0.1185182E+03  0.7561462E-02  0.1245562E+00
         -2   -1    0    0    0  501 -0.00000000000E+00  0.00000000000E+00  0.77142028360E+02  0.77142028360E+02  0.00000000000E+00 0.  1.
          2   -1    0    0  501    0  0.00000000000E+00 -0.00000000000E+00 -0.20425284182E+03  0.20425284182E+03  0.00000000000E+00 0. -1.
         23    2    1    2    0    0  0.29896899110E+02  0.52113426827E+02 -0.43537577742E+02  0.11939902513E+03  0.93546633801E+02 0.  0.
         23    2    1    2    0    0 -0.29896899110E+02 -0.52113426827E+02 -0.83573235717E+02  0.16199584504E+03  0.12509410158E+03 0.  0.
          5    1    4    4  502    0 -0.51843878424E+02 -0.80133264077E+02 -0.82367903702E+02  0.12613909664E+03  0.41800000000E+01 0.  1.
         -5    1    4    4    0  502  0.21946979314E+02  0.28019837251E+02 -0.12053320146E+01  0.35856748400E+02  0.41800000000E+01 0.  1.
        -11    1    3    3    0    0  0.52510472188E+02  0.41919572214E+01 -0.31470792563E+01  0.52771453482E+02  0.00000000000E+00 0.  1.
         11    1    3    3    0    0 -0.22613573078E+02  0.47921469605E+02 -0.40390498486E+02  0.66627571653E+02  0.00000000000E+00 0. -1.
</event>
<event>
 8    1  0.5900800E-006  0.1264028E+03  0.7561462E-02  0.1232893E+00
         -1   -1    0    0    0  501 -0.00000000000E+00  0.00000000000E+00  0.31473271641E+02  0.31473271641E+02  0.00000000000E+00 0.  1.
          1   -1    0    0  501    0  0.00000000000E+00 -0.00000000000E+00 -0.61481195664E+03  0.61481195664E+03  0.00000000000E+00 0. -1.
         23    2    1    2    0    0  0.25583085213E+02  0.73827397509E+02 -0.17332878130E+03  0.21055549244E+03  0.90475245762E+02 0.  0.
         23    2    1    2    0    0 -0.25583085213E+02 -0.73827397509E+02 -0.41000990370E+03  0.43572973585E+03  0.12508917898E+03 0.  0.
          5    1    4    4  502    0  0.27470523958E+02  0.16998604919E+02 -0.17798837860E+03  0.18094451517E+03  0.41800000000E+01 0.  1.
         -5    1    4    4    0  502 -0.53053609171E+02 -0.90826002428E+02 -0.23202152510E+03  0.25478522067E+03  0.41800000000E+01 0.  1.
        -11    1    3    3    0    0  0.21018150362E+02 -0.15124365425E+02 -0.67125030583E+02  0.71946360609E+02  0.00000000000E+00 0.  1.
         11    1    3    3    0    0  0.45649348510E+01  0.88951762933E+02 -0.10620375072E+03  0.13860913183E+03  0.00000000000E+00 0. -1.
</event>
<event>
 8    1  0.5900800E-006  0.1195143E+03  0.7561462E-02  0.1243900E+00
          2   -1    0    0  501    0  0.00000000000E+00  0.00000000000E+00  0.91115415031E+03  0.91115415031E+03  0.00000000000E+00 0. -1.
         -2   -1    0    0    0  501 -0.00000000000E+00 -0.00000000000E+00 -0.22430782081E+02  0.22430782081E+02  0.00000000000E+00 0.  1.
         23    2    1    2    0    0 -0.63387011511E+01  0.90678886587E+02  0.33311053453E+03  0.35685516196E+03  0.90111812760E+02 0.  0.
         23    2    1    2    0    0  0.63387011511E+01 -0.90678886587E+02  0.55561283371E+03  0.57672977044E+03  0.12509503397E+03 0.  0.
          5    1    4    4  502    0 -0.17235331166E+02 -0.86574115059E+02  0.18192321937E+03  0.20225148747E+03  0.41800000000E+01 0.  1.
         -5    1    4    4    0  502  0.23574032317E+02 -0.41047715280E+01  0.37368961434E+03  0.37447828297E+03  0.41800000000E+01 0.  1.
        -11    1    3    3    0    0  0.11464457461E+02 -0.15178499315E+02  0.73635963766E+02  0.76053111614E+02  0.00000000000E+00 0.  1.
         11    1    3    3    0    0 -0.17803158612E+02  0.10585738590E+03  0.25947457076E+03  0.28080205034E+03  0.00000000000E+00 0. -1.
</event>
<event>
 8    1  0.5900800E-006  0.1696180E+03  0.7561462E-02  0.1178247E+00
         -2   -1    0    0    0  501 -0.00000000000E+00  0.00000000000E+00  0.22461899471E+02  0.22461899471E+02  0.00000000000E+00 0.  1.
          2   -1    0    0  501    0  0.00000000000E+00 -0.00000000000E+00 -0.15674819900E+04  0.15674819900E+04  0.00000000000E+00 0. -1.
         23    2    1    2    0    0 -0.57444686204E+02 -0.13461035626E+03 -0.57388437528E+03  0.59990857362E+03  0.95536278598E+02 0.  0.
         23    2    1    2    0    0  0.57444686204E+02  0.13461035626E+03 -0.97113571520E+03  0.99003531580E+03  0.12508200995E+03 0.  0.
          5    1    4    4  502    0  0.56589525528E+02  0.30701730764E+02 -0.16410827174E+03  0.17633481768E+03  0.41800000000E+01 0.  1.
         -5    1    4    4    0  502  0.85516067540E+00  0.10390862549E+03 -0.80702744346E+03  0.81370049813E+03  0.41800000000E+01 0.  1.
        -11    1    3    3    0    0 -0.13917844003E+02 -0.12547883897E+03 -0.36131300204E+03  0.38273454359E+03  0.00000000000E+00 0.  1.
         11    1    3    3    0    0 -0.43526842200E+02 -0.91315172838E+01 -0.21257137324E+03  0.21717403003E+03  0.00000000000E+00 0. -1.
</event>
<event>
 8    1  0.5900800E-006  0.9741363E+02  0.7561462E-02  0.1285831E+00
         -2   -1    0    0    0  501 -0.00000000000E+00  0.00000000000E+00  0.52958864305E+02  0.52958864305E+02  0.00000000000E+00 0.  1.
          2   -1    0    0  501    0  0.00000000000E+00 -0.00000000000E+00 -0.30674988092E+03  0.30674988092E+03  0.00000000000E+00 0. -1.
         23    2    1    2    0    0 -0.92158051060E+01 -0.12999878891E+02 -0.23497467716E+02  0.97153005212E+02  0.92912041833E+02 0.  0.
         23    2    1    2    0    0  0.92158051060E+01  0.12999878891E+02 -0.23029354890E+03  0.26255574001E+03  0.12508585065E+03 0.  0.
          5    1    4    4  502    0  0.54710567014E+02  0.38885623348E+02 -0.16873649452E+03  0.18164474897E+03  0.41800000000E+01 0. -1.
         -5    1    4    4    0  502 -0.45494761908E+02 -0.25885744457E+02 -0.61557054374E+02  0.80910991035E+02  0.41800000000E+01 0. -1.
        -11    1    3    3    0    0  0.27884924436E+02 -0.23544248335E+02 -0.40920308896E+02  0.54830395955E+02  0.00000000000E+00 0. -1.
         11    1    3    3    0    0 -0.37100729542E+02  0.10544369444E+02  0.17422841180E+02  0.42322609257E+02  0.00000000000E+00 0.  1.
</event>
<event>
 8    1  0.5900800E-006  0.1102666E+03  0.7561462E-02  0.1260077E+00
          3   -1    0    0  501    0  0.00000000000E+00  0.00000000000E+00  0.51515870578E+02  0.51515870578E+02  0.00000000000E+00 0. -1.
         -3   -1    0    0    0  501 -0.00000000000E+00 -0.00000000000E+00 -0.24746949818E+03  0.24746949818E+03  0.00000000000E+00 0.  1.
         23    2    1    2    0    0  0.15093117308E+02 -0.20057536726E+02 -0.10631177710E+03  0.14305499889E+03  0.92371163174E+02 0.  0.
         23    2    1    2    0    0 -0.15093117308E+02  0.20057536726E+02 -0.89641850503E+02  0.15593036987E+03  0.12509401232E+03 0.  0.
          5    1    4    4  502    0 -0.55118727581E+02  0.50897287030E+02 -0.40672396483E+02  0.85441934627E+02  0.41800000000E+01 0. -1.
         -5    1    4    4    0  502  0.40025610273E+02 -0.30839750305E+02 -0.48969454020E+02  0.70488435247E+02  0.41800000000E+01 0. -1.
        -11    1    3    3    0    0 -0.36524209812E+02 -0.22705175499E+02 -0.37968220478E+02  0.57368359425E+02  0.00000000000E+00 0.  1.
         11    1    3    3    0    0  0.51617327120E+02  0.26476387734E+01 -0.68343556626E+02  0.85686639463E+02  0.00000000000E+00 0. -1.
</event>
<event>
 8    1  0.5900800E-006  0.1049665E+03  0.7561462E-02  0.1270186E+00
         -2   -1    0    0    0  501 -0.00000000000E+00  0.00000000000E+00  0.13006928237E+03  0.13006928237E+03  0.00000000000E+00 0.  1.
          2   -1    0    0  501    0  0.00000000000E+00 -0.00000000000E+00 -0.95690702807E+02  0.95690702807E+02  0.00000000000E+00 0. -1.
         23    2    1    2    0    0 -0.36613851404E+02  0.11454450122E+02  0.49477735014E+02  0.10302169921E+03  0.81814703474E+02 0.  0.
         23    2    1    2    0    0  0.36613851404E+02 -0.11454450122E+02 -0.15099155448E+02  0.12273828597E+03  0.11560676366E+03 0.  0.
          5    1    4    4  502    0 -0.83745236313E+01 -0.55651168567E+02 -0.18649209228E+02  0.59434422802E+02  0.41800000000E+01 0. -1.
         -5    1    4    4    0  502  0.44988375036E+02  0.44196718445E+02  0.35500537802E+01  0.63303863164E+02  0.41800000000E+01 0.  1.
        -11    1    3    3    0    0 -0.49946205050E+02  0.36541471882E+02  0.32057078147E+02  0.69696189462E+02  0.00000000000E+00 0.  1.
         11    1    3    3    0    0  0.13332353646E+02 -0.25087021760E+02  0.17420656867E+02  0.33325509751E+02  0.00000000000E+00 0. -1.
</event>
<event>
 8    1  0.5900800E-006  0.1333664E+03  0.7561462E-02  0.1222544E+00
          1   -1    0    0  501    0  0.00000000000E+00  0.00000000000E+00  0.24746530332E+03  0.24746530332E+03  0.00000000000E+00 0. -1.
         -1   -1    0    0    0  501 -0.00000000000E+00 -0.00000000000E+00 -0.92079340817E+02  0.92079340817E+02  0.00000000000E+00 0.  1.
         23    2    1    2    0    0  0.92665950410E+02 -0.16743873781E+02  0.91303906756E+02  0.17035678626E+03  0.10870922482E+03 0.  0.
         23    2    1    2    0    0 -0.92665950410E+02  0.16743873781E+02  0.64082055745E+02  0.16918785788E+03  0.12510270065E+03 0.  0.
          5    1    4    4  502    0 -0.13370350485E+02 -0.28720431840E+02 -0.25691744540E+02  0.41002044031E+02  0.41800000000E+01 0.  1.
         -5    1    4    4    0  502 -0.79295599925E+02  0.45464305621E+02  0.89773800286E+02  0.12818581384E+03  0.41800000000E+01 0.  1.
        -11    1    3    3    0    0  0.11227548697E+03 -0.33837866789E+02  0.68780303605E+02  0.13594674092E+03  0.00000000000E+00 0.  1.
         11    1    3    3    0    0 -0.19609536563E+02  0.17093993008E+02  0.22523603150E+02  0.34410045336E+02  0.00000000000E+00 0. -1.
</event>
<event>
 8    1  0.5900800E-006  0.1374869E+03  0.7561462E-02  0.1216751E+00
          2   -1    0    0  501    0  0.00000000000E+00  0.00000000000E+00  0.63131187037E+03  0.63131187037E+03  0.00000000000E+00 0. -1.
         -2   -1    0    0    0  501 -0.00000000000E+00 -0.00000000000E+00 -0.43222229357E+02  0.43222229357E+02  0.00000000000E+00 0.  1.
         23    2    1    2    0    0  0.10978094911E+03 -0.54839963912E+02  0.24623730169E+03  0.29038532486E+03  0.92906133922E+02 0.  0.
         23    2    1    2    0    0 -0.10978094911E+03  0.54839963912E+02  0.34185233933E+03  0.38414877487E+03  0.12509188984E+03 0.  0.
          5    1    4    4  502    0 -0.25942832018E+01 -0.11204784963E+02 -0.64028078603E+01  0.13811077434E+02  0.41800000000E+01 0.  1.
         -5    1    4    4    0  502 -0.10718666591E+03  0.66044748875E+02  0.34825514719E+03  0.37033769744E+03  0.41800000000E+01 0.  1.
        -11    1    3    3    0    0  0.55596150708E+02 -0.60644532895E+02  0.20837437569E+03  0.22402806026E+03  0.00000000000E+00 0. -1.
         11    1    3    3    0    0  0.54184798399E+02  0.58045689823E+01  0.37862926004E+02  0.66357264593E+02  0.00000000000E+00 0.  1.
</event>
<event>
 8    1  0.5900800E-006  0.1106090E+03  0.7561462E-02  0.1259446E+00
         -2   -1    0    0    0  501 -0.00000000000E+00  0.00000000000E+00  0.57167838738E+02  0.57167838738E+02  0.00000000000E+00 0.  1.
          2   -1    0    0  501    0  0.00000000000E+00 -0.00000000000E+00 -0.26583799102E+03  0.26583799102E+03  0.00000000000E+00 0. -1.
         23    2    1    2    0    0 -0.51557951098E+02  0.17919232849E+02 -0.65175117313E+02  0.12496904847E+03  0.91597739766E+02 0.  0.
         23    2    1    2    0    0  0.51557951098E+02 -0.17919232849E+02 -0.14349503497E+03  0.19803678130E+03  0.12509364675E+03 0.  0.
          5    1    4    4  502    0  0.43219829916E+02  0.38127019479E+02 -0.18400492018E+02  0.60643827541E+02  0.41800000000E+01 0.  1.
         -5    1    4    4    0  502  0.83381211820E+01 -0.56046252328E+02 -0.12509454295E+03  0.13739295375E+03  0.41800000000E+01 0.  1.
        -11    1    3    3    0    0 -0.63492345126E+02  0.44462981435E+02 -0.46558601120E+02  0.90420893304E+02  0.00000000000E+00 0. -1.
         11    1    3    3    0    0  0.11934394028E+02 -0.26543748587E+02 -0.18616516193E+02  0.34548155161E+02  0.00000000000E+00 0.  1.
</event>
<event>
 8    1  0.5900800E-006  0.1127740E+03  0.7561462E-02  0.1255517E+00
          2   -1    0    0  501    0  0.00000000000E+00  0.00000000000E+00  0.12386304605E+04  0.12386304605E+04  0.00000000000E+00 0. -1.
         -2   -1    0    0    0  501 -0.00000000000E+00 -0.00000000000E+00 -0.11380750840E+02  0.11380750840E+02  0.00000000000E+00 0.  1.
         23    2    1    2    0    0  0.29568126143E+02  0.27854964051E+02  0.38496256084E+03  0.39751728558E+03  0.90408218580E+02 0.  0.
         23    2    1    2    0    0 -0.29568126143E+02 -0.27854964051E+02  0.84228714881E+03  0.85249392574E+03  0.12509228301E+03 0.  0.
          5    1    4    4  502    0  0.44260553438E+02 -0.34928898463E+02  0.40815962486E+03  0.41205676345E+03  0.41800000000E+01 0.  1.
         -5    1    4    4    0  502 -0.73828679582E+02  0.70739344120E+01  0.43412752395E+03  0.44043716229E+03  0.41800000000E+01 0.  1.
        -11    1    3    3    0    0  0.12575266856E+02  0.58418202901E+02  0.29512003260E+03  0.30110904571E+03  0.00000000000E+00 0.  1.
         11    1    3    3    0    0  0.16992859287E+02 -0.30563238850E+02  0.89842528239E+02  0.96408239876E+02  0.00000000000E+00 0. -1.
</event>
<event>
 8    1  0.5900800E-006  0.1819634E+03  0.7561462E-02  0.1165916E+00
         -1   -1    0    0    0  501 -0.00000000000E+00  0.00000000000E+00  0.12910593771E+03  0.12910593771E+03  0.00000000000E+00 0.  1.
          1   -1    0    0  501    0  0.00000000000E+00 -0.00000000000E+00 -0.32205661772E+03  0.32205661772E+03  0.00000000000E+00 0. -1.
         23    2    1    2    0    0  0.74028803867E+02 -0.14155480112E+03 -0.21500353084E+02  0.18552781194E+03  0.91870987250E+02 0.  0.
         23    2    1    2    0    0 -0.74028803867E+02  0.14155480112E+03 -0.17145032693E+03  0.26563474348E+03  0.12509427173E+03 0.  0.
          5    1    4    4  502    0 -0.98744860150E+01 -0.22170878954E+02 -0.90648725234E+01  0.26243049775E+02  0.41800000000E+01 0.  1.
         -5    1    4    4    0  502 -0.64154317852E+02  0.16372568007E+03 -0.16238545440E+03  0.23939169371E+03  0.41800000000E+01 0.  1.
        -11    1    3    3    0    0  0.49089035432E+02 -0.12264791839E+03  0.19933769003E+02  0.13360239680E+03  0.00000000000E+00 0.  1.
         11    1    3    3    0    0  0.24939768435E+02 -0.18906882733E+02 -0.41434122087E+02  0.51925415139E+02  0.00000000000E+00 0. -1.
</event>
<event>
 8    1  0.5900800E-006  0.1272982E+03  0.7561462E-02  0.1231521E+00
          2   -1    0    0  501    0  0.00000000000E+00  0.00000000000E+00  0.19370328993E+02  0.19370328993E+02  0.00000000000E+00 0.  1.
         -2   -1    0    0    0  501 -0.00000000000E+00 -0.00000000000E+00 -0.93567795412E+03  0.93567795412E+03  0.00000000000E+00 0. -1.
         23    2    1    2    0    0  0.73282597923E+02  0.28799975671E+02 -0.46467875328E+03  0.47984685457E+03  0.90149222623E+02 0.  0.
         23    2    1    2    0    0 -0.73282597923E+02 -0.28799975671E+02 -0.45162887185E+03  0.47520142854E+03  0.12509189438E+03 0.  0.
          5    1    4    4  502    0  0.15877237763E+02  0.27754246765E+02 -0.19534917164E+03  0.19799281844E+03  0.41800000000E+01 0. -1.
         -5    1    4    4    0  502 -0.89159835686E+02 -0.56554222437E+02 -0.25627970021E+03  0.27720861010E+03  0.41800000000E+01 0. -1.
        -11    1    3    3    0    0  0.20137693661E+02 -0.30819752448E+02 -0.20076473154E+03  0.20411237414E+03  0.00000000000E+00 0.  1.
         11    1    3    3    0    0  0.53144904262E+02  0.59619728119E+02 -0.26391402174E+03  0.27573448043E+03  0.00000000000E+00 0. -1.
</event>
<event>
 8    1  0.5900800E-006  0.1528539E+03  0.7561462E-02  0.1197009E+00
          3   -1    0    0  501    0  0.00000000000E+00  0.00000000000E+00  0.27191069915E+03  0.27191069915E+03  0.00000000000E+00 0. -1.
         -3   -1    0    0    0  501 -0.00000000000E+00 -0.00000000000E+00 -0.99327366298E+02  0.99327366298E+02  0.00000000000E+00 0.  1.
         23    2    1    2    0    0 -0.12027933041E+03  0.70643500118E+01  0.50967522972E+02  0.15920887542E+03  0.90734531724E+02 0.  0.
         23    2    1    2    0    0  0.12027933041E+03 -0.70643500118E+01  0.12161580988E+03  0.21202919003E+03  0.12509576270E+03 0.  0.
          5    1    4    4  502    0  0.68407667365E+02 -0.52146280626E+02  0.11383416805E+03  0.14273939103E+03  0.41800000000E+01 0.  1.
         -5    1    4    4    0  502  0.51871663050E+02  0.45081930615E+02  0.77816418314E+01  0.69289798998E+02  0.41800000000E+01 0.  1.
        -11    1    3    3    0    0 -0.67792349015E+02 -0.41286711339E+02  0.29613377374E+02  0.84719225903E+02  0.00000000000E+00 0. -1.
         11    1    3    3    0    0 -0.52486981400E+02  0.48351061351E+02  0.21354145598E+02  0.74489649512E+02  0.00000000000E+00 0.  1.
</event>
<event>
 8    1  0.5900800E-006  0.1614938E+03  0.7561462E-02  0.1187021E+00
          3   -1    0    0  501    0  0.00000000000E+00  0.00000000000E+00  0.51258104758E+03  0.51258104758E+03  0.00000000000E+00 0. -1.
         -3   -1    0    0    0  501 -0.00000000000E+00 -0.00000000000E+00 -0.59232015376E+02  0.59232015376E+02  0.00000000000E+00 0.  1.
         23    2    1    2    0    0 -0.71204447592E+01 -0.13509627965E+03  0.19755455974E+03  0.25656913389E+03  0.92185741214E+02 0.  0.
         23    2    1    2    0    0  0.71204447592E+01  0.13509627965E+03  0.25579447247E+03  0.31524392907E+03  0.12508483984E+03 0.  0.
          5    1    4    4  502    0  0.59630008507E+02  0.51467034640E+02  0.73178612159E+02  0.10759728271E+03  0.41800000000E+01 0. -1.
         -5    1    4    4    0  502 -0.52509563748E+02  0.83629245011E+02  0.18261586031E+03  0.20764664635E+03  0.41800000000E+01 0. -1.
        -11    1    3    3    0    0 -0.22588300715E+02 -0.23453794495E+02  0.42944776821E+01  0.32844395930E+02  0.00000000000E+00 0.  1.
         11    1    3    3    0    0  0.15467855956E+02 -0.11164248516E+03  0.19326008205E+03  0.22372473796E+03  0.00000000000E+00 0. -1.
</event>
<event>
 8    1  0.5900800E-006  0.1168355E+03  0.7561462E-02  0.1248411E+00
         -4   -1    0    0    0  501 -0.00000000000E+00  0.00000000000E+00  0.30306512286E+03  0.30306512286E+03  0.00000000000E+00 0.  1.
          4   -1    0    0  501    0  0.00000000000E+00 -0.00000000000E+00 -0.76535175995E+02  0.76535175995E+02  0.00000000000E+00 0. -1.
         23    2    1    2    0    0  0.62424517567E+02 -0.65139332580E+02  0.17019007707E+03  0.21539970689E+03  0.96397190583E+02 0.  0.
         23    2    1    2    0    0 -0.62424517567E+02  0.65139332580E+02  0.56339869798E+02  0.16420059197E+03  0.12509076877E+03 0.  0.
          5    1    4    4  502    0  0.33262776297E+01 -0.99026118933E+01 -0.30094627495E+02  0.32129189987E+02  0.41800000000E+01 0.  1.
         -5    1    4    4    0  502 -0.65750795197E+02  0.75041944473E+02  0.86434497292E+02  0.13207140198E+03  0.41800000000E+01 0.  1.
        -11    1    3    3    0    0 -0.69460022137E+01 -0.51368223960E+02  0.34149991867E+02  0.62073853787E+02  0.00000000000E+00 0.  1.
         11    1    3    3    0    0  0.69370519781E+02 -0.13771108620E+02  0.13604008520E+03  0.15332585310E+03  0.00000000000E+00 0. -1.
</event>
<event>
 8    1  0.5900800E-006  0.1142045E+03  0.7561462E-02  0.1252976E+00
          2   -1    0    0  501    0  0.00000000000E+00  0.00000000000E+00  0.58568624251E+03  0.58568624251E+03  0.00000000000E+00 0. -1.
         -2   -1    0    0    0  501 -0.00000000000E+00 -0.00000000000E+00 -0.22627789328E+02  0.22627789328E+02  0.00000000000E+00 0.  1.
         23    2    1    2    0    0 -0.34184066781E+02 -0.12405842566E+02  0.23908904839E+03  0.25913599508E+03  0.93088321147E+02 0.  0.
         23    2    1    2    0    0  0.34184066781E+02  0.12405842566E+02  0.32396940480E+03  0.34917803676E+03  0.12508665301E+03 0.  0.
          5    1    4    4  502    0 -0.19450102542E+02  0.56998269816E+02  0.14713426431E+03  0.15903796209E+03  0.41800000000E+01 0. -1.
         -5    1    4    4    0  502  0.53634169323E+02 -0.44592427250E+02  0.17683514048E+03  0.19014007467E+03  0.41800000000E+01 0. -1.
        -11    1    3    3    0    0 -0.25347467428E+02 -0.51864483423E+02  0.11590651844E+03  0.12948644625E+03  0.00000000000E+00 0.  1.
         11    1    3    3    0    0 -0.88365993526E+01  0.39458640857E+02  0.12318252995E+03  0.12964954882E+03  0.00000000000E+00 0. -1.
</event>
<event>
 8    1  0.5900800E-006  0.1505013E+03  0.7561462E-02  0.1199858E+00
         -4   -1    0    0    0  501 -0.00000000000E+00  0.00000000000E+00  0.36159198070E+03  0.36159198070E+03  0.00000000000E+00 0.  1.
          4   -1    0    0  501    0  0.00000000000E+00 -0.00000000000E+00 -0.63280653607E+02  0.63280653607E+02  0.00000000000E+00 0. -1.
         23    2    1    2    0    0 -0.96069346326E+02 -0.42644397871E+02  0.15670100688E+03  0.20865769021E+03  0.89078404540E+02 0.  0.
         23    2    1    2    0    0  0.96069346326E+02  0.42644397871E+02  0.14161032022E+03  0.21621494410E+03  0.12509018860E+03 0.  0.
          5    1    4    4  502    0  0.11731307713E+03  0.22661968094E+01  0.97483386229E+02  0.15260398653E+03  0.41800000000E+01 0.  1.
         -5    1    4    4    0  502 -0.21243730804E+02  0.40378201061E+02  0.44126933991E+02  0.63610957569E+02  0.41800000000E+01 0.  1.
        -11    1    3    3    0    0 -0.46542164278E+02  0.25859878127E+02  0.61052965695E+02  0.81008462351E+02  0.00000000000E+00 0.  1.
         11    1    3    3    0    0 -0.49527182048E+02 -0.68504275998E+02  0.95648041181E+02  0.12764922786E+03  0.00000000000E+00 0. -1.
</event>
<event>
 8    1  0.5900800E-006  0.1057461E+03  0.7561462E-02  0.1268656E+00
         -2   -1    0    0    0  501 -0.00000000000E+00  0.00000000000E+00  0.27053832910E+02  0.27053832910E+02  0.00000000000E+00 0.  1.
          2   -1    0    0  501    0  0.00000000000E+00 -0.00000000000E+00 -0.60097725365E+03  0.60097725365E+03  0.00000000000E+00 0. -1.
         23    2    1    2    0    0 -0.11400602656E+02 -0.65432028239E+02 -0.26170865548E+03  0.28519641503E+03  0.91838176883E+02 0.  0.
         23    2    1    2    0    0  0.11400602656E+02  0.65432028239E+02 -0.31221476527E+03  0.34283467153E+03  0.12508488436E+03 0.  0.
          5    1    4    4  502    0  0.29564929743E+02 -0.28516893911E+02 -0.13778405867E+03  0.14383746915E+03  0.41800000000E+01 0. -1.
         -5    1    4    4    0  502 -0.18164327087E+02  0.93948922150E+02 -0.17443070660E+03  0.19899720238E+03  0.41800000000E+01 0. -1.
        -11    1    3    3    0    0  0.73046116668E+01 -0.48951862786E+02 -0.25446813604E+03  0.25923671515E+03  0.00000000000E+00 0. -1.
         11    1    3    3    0    0 -0.18705214323E+02 -0.16480165453E+02 -0.72405194406E+01  0.25959699883E+02  0.00000000000E+00 0.  1.
</event>
<event>
 8    1  0.5900800E-006  0.9962928E+02  0.7561462E-02  0.1281077E+00
         -1   -1    0    0    0  501 -0.00000000000E+00  0.00000000000E+00  0.32300276353E+03  0.32300276353E+03  0.00000000000E+00 0.  1.
          1   -1    0    0  501    0  0.00000000000E+00 -0.00000000000E+00 -0.51274178925E+02  0.51274178925E+02  0.00000000000E+00 0. -1.
         23    2    1    2    0    0 -0.13424376950E+02 -0.98419606178E+01  0.21887248871E+03  0.23746655634E+03  0.90598680908E+02 0.  0.
         23    2    1    2    0    0  0.13424376950E+02  0.98419606178E+01  0.52856095897E+02  0.13681038611E+03  0.12508491832E+03 0.  0.
          5    1    4    4  502    0  0.58729277049E+02  0.18041917044E+02 -0.61095680114E+01  0.61882452881E+02  0.41800000000E+01 0.  1.
         -5    1    4    4    0  502 -0.45304900099E+02 -0.81999564263E+01  0.58965663908E+02  0.74927933233E+02  0.41800000000E+01 0.  1.
        -11    1    3    3    0    0  0.37585365398E+02  0.59419465163E+01  0.10540313350E+03  0.11206153208E+03  0.00000000000E+00 0.  1.
         11    1    3    3    0    0 -0.51009742348E+02 -0.15783907134E+02  0.11346935521E+03  0.12540502427E+03  0.00000000000E+00 0. -1.
</event>
<event>
 8    1  0.5900800E-006  0.9970563E+02  0.7561462E-02  0.1280916E+00
         -1   -1    0    0    0  501 -0.00000000000E+00  0.00000000000E+00  0.22181686511E+02  0.22181686511E+02  0.00000000000E+00 0.  1.
          1   -1    0    0  501    0  0.00000000000E+00 -0.00000000000E+00 -0.70571881624E+03  0.70571881624E+03  0.00000000000E+00 0. -1.
         23    2    1    2    0    0  0.67890147320E+01  0.17432359910E+02 -0.12796724789E+03  0.15811525428E+03  0.90966143210E+02 0.  0.
         23    2    1    2    0    0 -0.67890147320E+01 -0.17432359910E+02 -0.55556988184E+03  0.56978524847E+03  0.12508939953E+03 0.  0.
          5    1    4    4  502    0 -0.42289646042E+02  0.38113518770E+02 -0.32351002710E+03  0.32850763234E+03  0.41800000000E+01 0. -1.
         -5    1    4    4    0  502  0.35500631310E+02 -0.55545878679E+02 -0.23205985474E+03  0.24127761613E+03  0.41800000000E+01 0. -1.
        -11    1    3    3    0    0 -0.30219064491E+02 -0.81326321541E+01 -0.11629990658E+02  0.33385449633E+02  0.00000000000E+00 0. -1.
         11    1    3    3    0    0  0.37008079223E+02  0.25564992064E+02 -0.11633725723E+03  0.12472980465E+03  0.00000000000E+00 0.  1.
</event>
<event>
 8    1  0.5900800E-006  0.1385534E+03  0.7561462E-02  0.1215289E+00
         -1   -1    0    0    0  501 -0.00000000000E+00  0.00000000000E+00  0.27891994862E+02  0.27891994862E+02  0.00000000000E+00 0.  1.
          1   -1    0    0  501    0  0.00000000000E+00 -0.00000000000E+00 -0.86317407528E+03  0.86317407528E+03  0.00000000000E+00 0. -1.
         23    2    1    2    0    0 -0.99723346184E+02  0.17078492221E+02 -0.25559089741E+03  0.28946336889E+03  0.90696826963E+02 0.  0.
         23    2    1    2    0    0  0.99723346184E+02 -0.17078492221E+02 -0.57969118301E+03  0.60160270125E+03  0.12509005485E+03 0.  0.
          5    1    4    4  502    0  0.10544326928E+03 -0.51647423817E+02 -0.51153223040E+03  0.52485086887E+03  0.41800000000E+01 0.  1.
         -5    1    4    4    0  502 -0.57199230974E+01  0.34568931596E+02 -0.68158952617E+02  0.76751832380E+02  0.41800000000E+01 0.  1.
        -11    1    3    3    0    0 -0.10107703388E+03 -0.59613563910E+01 -0.24282265525E+03  0.26308733617E+03  0.00000000000E+00 0.  1.
         11    1    3    3    0    0  0.13536876994E+01  0.23039848612E+02 -0.12768242158E+02  0.26376032724E+02  0.00000000000E+00 0. -1.
</event>
<event>
 8    1  0.5900800E-006  0.1469719E+03  0.7561462E-02  0.1204244E+00
          3   -1    0    0  501    0  0.00000000000E+00  0.00000000000E+00  0.11816144245E+03  0.11816144245E+03  0.00000000000E+00 0. -1.
         -3   -1    0    0    0  501 -0.00000000000E+00 -0.00000000000E+00 -0.27013915060E+03  0.27013915060E+03  0.00000000000E+00 0.  1.
         23    2    1    2    0    0  0.10474315182E+03  0.90702955016E+02 -0.10103247478E+03  0.19479630829E+03  0.92411508274E+02 0.  0.
         23    2    1    2    0    0 -0.10474315182E+03 -0.90702955016E+02 -0.50945233372E+02  0.19350428476E+03  0.12510130902E+03 0.  0.
          5    1    4    4  502    0 -0.16679054236E+02 -0.30320997228E+02 -0.76119057120E+02  0.83720588746E+02  0.41800000000E+01 0.  1.
         -5    1    4    4    0  502 -0.88064097582E+02 -0.60381957789E+02  0.25173823749E+02  0.10978369602E+03  0.41800000000E+01 0.  1.
        -11    1    3    3    0    0 -0.46966970451E+01  0.23142801209E+02 -0.52076285013E+02  0.57180308426E+02  0.00000000000E+00 0.  1.
         11    1    3    3    0    0  0.10943984886E+03  0.67560153807E+02 -0.48956189763E+02  0.13761599986E+03  0.00000000000E+00 0. -1.
</event>
<event>
 8    1  0.5900800E-006  0.8469349E+02  0.7561462E-02  0.1316236E+00
         -2   -1    0    0    0  501 -0.00000000000E+00  0.00000000000E+00  0.95037726423E+02  0.95037726423E+02  0.00000000000E+00 0.  1.
          2   -1    0    0  501    0  0.00000000000E+00 -0.00000000000E+00 -0.14152245518E+03  0.14152245518E+03  0.00000000000E+00 0. -1.
         23    2    1    2    0    0  0.59328779113E-01  0.30928942586E+02  0.11368407547E+02  0.95309589107E+02  0.89431952210E+02 0.  0.
         23    2    1    2    0    0 -0.59328779113E-01 -0.30928942586E+02 -0.57853136301E+02  0.14125059249E+03  0.12509253171E+03 0.  0.
          5    1    4    4  502    0 -0.14330911029E+02 -0.55482261568E+02 -0.84433833756E+02  0.10212835572E+03  0.41800000000E+01 0. -1.
         -5    1    4    4    0  502  0.14271582250E+02  0.24553318982E+02  0.26580697455E+02  0.39122236773E+02  0.41800000000E+01 0. -1.
        -11    1    3    3    0    0 -0.36182819484E+02  0.29950491293E+02 -0.16283168627E+02  0.49712874942E+02  0.00000000000E+00 0. -1.
         11    1    3    3    0    0  0.36242148264E+02  0.97845129356E+00  0.27651576174E+02  0.45596714164E+02  0.00000000000E+00 0.  1.
</event>
<event>
 8    1  0.5900800E-006  0.1748147E+03  0.7561462E-02  0.1172918E+00
         -2   -1    0    0    0  501 -0.00000000000E+00  0.00000000000E+00  0.55889049909E+02  0.55889049909E+02  0.00000000000E+00 0.  1.
          2   -1    0    0  501    0  0.00000000000E+00 -0.00000000000E+00 -0.74328848833E+03  0.74328848833E+03  0.00000000000E+00 0. -1.
         23    2    1    2    0    0  0.51094353625E+02 -0.14201617174E+03 -0.16364007237E+03  0.23993594161E+03  0.89509534580E+02 0.  0.
         23    2    1    2    0    0 -0.51094353625E+02  0.14201617174E+03 -0.52375936605E+03  0.55924159663E+03  0.12509222146E+03 0.  0.
          5    1    4    4  502    0  0.19211578808E+02  0.72817858713E+02 -0.10678359710E+03  0.13073535986E+03  0.41800000000E+01 0.  1.
         -5    1    4    4    0  502 -0.70305932433E+02  0.69198313029E+02 -0.41697576895E+03  0.42850623677E+03  0.41800000000E+01 0.  1.
        -11    1    3    3    0    0 -0.94688442621E+01 -0.10298000296E+03 -0.95454870091E+02  0.14073440320E+03  0.00000000000E+00 0.  1.
         11    1    3    3    0    0  0.60563197887E+02 -0.39036168781E+02 -0.68185202278E+02  0.99201538400E+02  0.00000000000E+00 0. -1.
</event>
<event>
 8    1  0.5900800E-006  0.1095049E+03  0.7561462E-02  0.1261489E+00
          2   -1    0    0  501    0  0.00000000000E+00  0.00000000000E+00  0.32053415349E+04  0.32053415349E+04  0.00000000000E+00 0. -1.
         -2   -1    0    0    0  501 -0.00000000000E+00 -0.00000000000E+00 -0.98583063290E+01  0.98583063290E+01  0.00000000000E+00 0.  1.
         23    2    1    2    0    0 -0.44756474556E+00  0.38263287102E+02  0.27937285484E+03  0.29615740980E+03  0.90530325860E+02 0.  0.
         23    2    1    2    0    0  0.44756474556E+00 -0.38263287102E+02  0.29161103737E+04  0.29190424314E+04  0.12507887625E+03 0.  0.
          5    1    4    4  502    0  0.58546022144E+02 -0.67342464121E+01  0.96398300810E+03  0.96579174727E+03  0.41800000000E+01 0. -1.
         -5    1    4    4    0  502 -0.58098457398E+02 -0.31529040690E+02  0.19521273656E+04  0.19532506842E+04  0.41800000000E+01 0. -1.
        -11    1    3    3    0    0 -0.25542436530E+02  0.56944443905E+02  0.13943579100E+03  0.15276591755E+03  0.00000000000E+00 0. -1.
         11    1    3    3    0    0  0.25094871784E+02 -0.18681156803E+02  0.13993706385E+03  0.14339149224E+03  0.00000000000E+00 0.  1.
</event>
<event>
 8    1  0.5900800E-006  0.7421134E+02  0.7561462E-02  0.1346331E+00
          3   -1    0    0  501    0  0.00000000000E+00  0.00000000000E+00  0.25919107775E+03  0.25919107775E+03  0.00000000000E+00 0. -1.
         -3   -1    0    0    0  501 -0.00000000000E+00 -0.00000000000E+00 -0.66773413534E+02  0.66773413534E+02  0.00000000000E+00 0.  1.
         23    2    1    2    0    0 -0.28448858336E+02  0.54715009297E+02  0.34330366011E+02  0.11515047515E+03  0.90983449673E+02 0.  0.
         23    2    1    2    0    0  0.28448858336E+02 -0.54715009297E+02  0.15808729821E+03  0.21081401614E+03  0.12509150955E+03 0.  0.
          5    1    4    4  502    0  0.14993755343E+02 -0.61350707364E+02  0.17602505481E+03  0.18705885254E+03  0.41800000000E+01 0. -1.
         -5    1    4    4    0  502  0.13455102994E+02  0.66356980668E+01 -0.17937756602E+02  0.23755163593E+02  0.41800000000E+01 0. -1.
        -11    1    3    3    0    0  0.71463158956E+01  0.11837083307E+02 -0.28190265379E+02  0.31398685231E+02  0.00000000000E+00 0.  1.
         11    1    3    3    0    0 -0.35595174232E+02  0.42877925990E+02  0.62520631390E+02  0.83751789922E+02  0.00000000000E+00 0. -1.
</event>
<event>
 8    1  0.5900800E-006  0.1784896E+03  0.7561462E-02  0.1169273E+00
          4   -1    0    0  501    0  0.00000000000E+00  0.00000000000E+00  0.26129294327E+03  0.26129294327E+03  0.00000000000E+00 0. -1.
         -4   -1    0    0    0  501 -0.00000000000E+00 -0.00000000000E+00 -0.30514191617E+03  0.30514191617E+03  0.00000000000E+00 0.  1.
         23    2    1    2    0    0 -0.11115460223E+03 -0.90516479328E+02 -0.23939940554E+03  0.29360684930E+03  0.91347293080E+02 0.  0.
         23    2    1    2    0    0  0.11115460223E+03  0.90516479328E+02  0.19555043263E+03  0.27282801014E+03  0.12508626139E+03 0.  0.
          5    1    4    4  502    0 -0.26209947825E+02  0.29936406921E+02  0.38506049474E+02  0.55527813485E+02  0.41800000000E+01 0.  1.
         -5    1    4    4    0  502  0.13736455006E+03  0.60580072407E+02  0.15704438316E+03  0.21730019666E+03  0.41800000000E+01 0.  1.
        -11    1    3    3    0    0  0.10982646308E+02 -0.26934449367E+02 -0.66449804443E+02  0.72537297945E+02  0.00000000000E+00 0. -1.
         11    1    3    3    0    0 -0.12213724854E+03 -0.63582029961E+02 -0.17294960110E+03  0.22106955135E+03  0.00000000000E+00 0.  1.
</event>
<event>
 8    1  0.5900800E-006  0.1315173E+03  0.7561462E-02  0.1225222E+00
          2   -1    0    0  501    0  0.00000000000E+00  0.00000000000E+00  0.44921732697E+03  0.44921732697E+03  0.00000000000E+00 0. -1.
         -2   -1    0    0    0  501 -0.00000000000E+00 -0.00000000000E+00 -0.42593044233E+02  0.42593044233E+02  0.00000000000E+00 0.  1.
         23    2    1    2    0    0  0.42701222488E+02 -0.73764383452E+02  0.19320674757E+03  0.23016343284E+03  0.91552060814E+02 0.  0.
         23    2    1    2    0    0 -0.42701222488E+02  0.73764383452E+02  0.21341753516E+03  0.26164693836E+03  0.12508995712E+03 0.  0.
          5    1    4    4  502    0 -0.36581411066E+02  0.10464894520E+03  0.19651983532E+03  0.22567037786E+03  0.41800000000E+01 0. -1.
         -5    1    4    4    0  502 -0.61198114225E+01 -0.30884561746E+02  0.16897699836E+02  0.35976560506E+02  0.41800000000E+01 0. -1.
        -11    1    3    3    0    0 -0.21661964796E+02 -0.44786962636E+02  0.11209527283E+03  0.12263956512E+03  0.00000000000E+00 0. -1.
         11    1    3    3    0    0  0.64363187284E+02 -0.28977420816E+02  0.81111474741E+02  0.10752386772E+03  0.00000000000E+00 0.  1.
</event>
<event>
 8    1  0.5900800E-006  0.1244102E+03  0.7561462E-02  0.1235994E+00
          1   -1    0    0  501    0  0.00000000000E+00  0.00000000000E+00  0.66263809558E+03  0.66263809558E+03  0.00000000000E+00 0. -1.
         -1   -1    0    0    0  501 -0.00000000000E+00 -0.00000000000E+00 -0.34185861215E+02  0.34185861215E+02  0.00000000000E+00 0.  1.
         23    2    1    2    0    0 -0.91626045649E+02  0.12456709472E+02  0.18210694122E+03  0.22414854428E+03  0.92353289130E+02 0.  0.
         23    2    1    2    0    0  0.91626045649E+02 -0.12456709472E+02  0.44634529315E+03  0.47267541252E+03  0.12508965994E+03 0.  0.
          5    1    4    4  502    0 -0.23466368813E+02  0.16214301602E+02  0.39686876291E+02  0.49051958080E+02  0.41800000000E+01 0. -1.
         -5    1    4    4    0  502  0.11509241446E+03 -0.28671011074E+02  0.40665841686E+03  0.42362345443E+03  0.41800000000E+01 0. -1.
        -11    1    3    3    0    0 -0.70529768583E+02 -0.91386714903E+01  0.45920658421E+02  0.84656189631E+02  0.00000000000E+00 0.  1.
         11    1    3    3    0    0 -0.21096277066E+02  0.21595380962E+02  0.13618628279E+03  0.13949235465E+03  0.00000000000E+00 0. -1.
</event>
<event>
 8    1  0.6298487E-006  0.3616880E+03  0.7561462E-02  0.1057917E+00
         -2   -1    0    0    0  501 -0.00000000000E+00  0.00000000000E+00  0.67362472700E+02  0.67362472700E+02  0.00000000000E+00 0.  1.
          2   -1    0    0  501    0  0.00000000000E+00 -0.00000000000E+00 -0.21883951520E+04  0.21883951520E+04  0.00000000000E+00 0. -1.
         23    2    1    2    0    0  0.34700652293E+03 -0.14649847406E+02 -0.69086970336E+03  0.77871949860E+03  0.92059575768E+02 0.  0.
         23    2    1    2    0    0 -0.34700652293E+03  0.14649847406E+02 -0.14301629760E+04  0.14770381261E+04  0.12508934099E+03 0.  0.
          5    1    4    4  502    0 -0.11070467909E+03 -0.50666941550E+02 -0.40269375179E+03  0.42071652578E+03  0.41800000000E+01 0.  1.
         -5    1    4    4    0  502 -0.23630184384E+03  0.65316788956E+02 -0.10274692242E+04  0.10563216004E+04  0.41800000000E+01 0.  1.
        -11    1    3    3    0    0  0.26582008372E+03  0.23103257884E+02 -0.55779788255E+03  0.61833045794E+03  0.00000000000E+00 0. -1.
         11    1    3    3    0    0  0.81186439212E+02 -0.37753105290E+02 -0.13307182081E+03  0.16038904066E+03  0.00000000000E+00 0.  1.
</event>
<event>
 8    1  0.5900800E-006  0.8728071E+02  0.7561462E-02  0.1309574E+00
          2   -1    0    0  501    0  0.00000000000E+00  0.00000000000E+00  0.68179438662E+03  0.68179438662E+03  0.00000000000E+00 0. -1.
         -2   -1    0    0    0  501 -0.00000000000E+00 -0.00000000000E+00 -0.34894604637E+02  0.34894604637E+02  0.00000000000E+00 0.  1.
         23    2    1    2    0    0  0.53635582917E+01 -0.35246662387E+02  0.62139206875E+02  0.11763662444E+03  0.93305945212E+02 0.  0.
         23    2    1    2    0    0 -0.53635582917E+01  0.35246662387E+02  0.58476057511E+03  0.59905236681E+03  0.12509081908E+03 0.  0.
          5    1    4    4  502    0  0.31417531590E+02 -0.23488542493E+02  0.76507006811E+02  0.86078844154E+02  0.41800000000E+01 0. -1.
         -5    1    4    4    0  502 -0.36781089882E+02  0.58735204880E+02  0.50825356829E+03  0.51297352266E+03  0.41800000000E+01 0. -1.
        -11    1    3    3    0    0  0.19473588617E+02 -0.44661385566E+02 -0.44460541703E+01  0.48924711669E+02  0.00000000000E+00 0.  1.
         11    1    3    3    0    0 -0.14110030325E+02  0.94147231781E+01  0.66585261046E+02  0.68711912772E+02  0.00000000000E+00 0. -1.
</event>
<event>
 8    1  0.5900800E-006  0.1130265E+03  0.7561462E-02  0.1255066E+00
         -3   -1    0    0    0  501 -0.00000000000E+00  0.00000000000E+00  0.45074988767E+03  0.45074988767E+03  0.00000000000E+00 0.  1.
          3   -1    0    0  501    0  0.00000000000E+00 -0.00000000000E+00 -0.38736961263E+02  0.38736961263E+02  0.00000000000E+00 0. -1.
         23    2    1    2    0    0 -0.22388743841E+01 -0.74799481006E+02  0.21191354172E+03  0.24192502567E+03  0.89556652263E+02 0.  0.
         23    2    1    2    0    0  0.22388743841E+01  0.74799481006E+02  0.20009938469E+03  0.24756182326E+03  0.12508843938E+03 0.  0.
          5    1    4    4  502    0  0.12007154246E+02  0.10386930958E+03  0.18629246850E+03  0.21367115258E+03  0.41800000000E+01 0.  1.
         -5    1    4    4    0  502 -0.97682798615E+01 -0.29069828572E+02  0.13806916191E+02  0.33890670683E+02  0.41800000000E+01 0.  1.
        -11    1    3    3    0    0 -0.26550974587E+02 -0.38353763327E+02  0.31545135249E+02  0.56312174268E+02  0.00000000000E+00 0. -1.
         11    1    3    3    0    0  0.24312100203E+02 -0.36445717679E+02  0.18036840647E+03  0.18561285141E+03  0.00000000000E+00 0.  1.
</event>
<event>
 8    1  0.5900800E-006  0.2322849E+03  0.7561462E-02  0.1125042E+00
          2   -1    0    0  501    0  0.00000000000E+00  0.00000000000E+00  0.15602463873E+03  0.15602463873E+03  0.00000000000E+00 0. -1.
         -2   -1    0    0    0  501 -0.00000000000E+00 -0.00000000000E+00 -0.40167554823E+03  0.40167554823E+03  0.00000000000E+00 0.  1.
         23    2    1    2    0    0 -0.20868806930E+03 -0.80228427184E+02 -0.13448249161E+03  0.27842618675E+03  0.97202315417E+02 0.  0.
         23    2    1    2    0    0  0.20868806930E+03  0.80228427184E+02 -0.11116841789E+03  0.27927400021E+03  0.12509292251E+03 0.  0.
          5    1    4    4  502    0  0.68257574898E+02  0.58210582250E+02 -0.10325666295E+03  0.13684655370E+03  0.41800000000E+01 0. -1.
         -5    1    4    4    0  502  0.14043049440E+03  0.22017844933E+02 -0.79117549409E+01  0.14242744651E+03  0.41800000000E+01 0. -1.
        -11    1    3    3    0    0 -0.18342483366E+03 -0.44408484329E+02 -0.71762326316E+02  0.20190744058E+03  0.00000000000E+00 0.  1.
         11    1    3    3    0    0 -0.25263235639E+02 -0.35819942855E+02 -0.62720165290E+02  0.76518746168E+02  0.00000000000E+00 0. -1.
</event>
<event>
 8    1  0.5900800E-006  0.8776743E+02  0.7561462E-02  0.1308350E+00
          1   -1    0    0  501    0  0.00000000000E+00  0.00000000000E+00  0.86199512818E+02  0.86199512818E+02  0.00000000000E+00 0. -1.
         -1   -1    0    0    0  501 -0.00000000000E+00 -0.00000000000E+00 -0.14867713264E+03  0.14867713264E+03  0.00000000000E+00 0.  1.
         23    2    1    2    0    0  0.33541716678E+02 -0.11565113752E+02 -0.42299817953E+02  0.10330564711E+03  0.87315425397E+02 0.  0.
         23    2    1    2    0    0 -0.33541716678E+02  0.11565113752E+02 -0.20177801871E+02  0.13157099835E+03  0.12507991567E+03 0.  0.
          5    1    4    4  502    0 -0.43738767497E+02 -0.44829841490E+02  0.14542727466E+02  0.64434135303E+02  0.41800000000E+01 0.  1.
         -5    1    4    4    0  502  0.10197050819E+02  0.56394955243E+02 -0.34720529336E+02  0.67136863046E+02  0.41800000000E+01 0.  1.
        -11    1    3    3    0    0 -0.10239298256E+02 -0.32087080855E+01  0.22343092791E+02  0.24786141931E+02  0.00000000000E+00 0. -1.
         11    1    3    3    0    0  0.43781014933E+02 -0.83564056670E+01 -0.64642910744E+02  0.78519505180E+02  0.00000000000E+00 0.  1.
</event>
<event>
 8    1  0.5900800E-006  0.2769570E+03  0.7561462E-02  0.1097363E+00
         -1   -1    0    0    0  501 -0.00000000000E+00  0.00000000000E+00  0.42171025337E+02  0.42171025337E+02  0.00000000000E+00 0.  1.
          1   -1    0    0  501    0  0.00000000000E+00 -0.00000000000E+00 -0.18313036632E+04  0.18313036632E+04  0.00000000000E+00 0. -1.
         23    2    1    2    0    0 -0.18430265080E+03 -0.17600041742E+03 -0.81513887588E+03  0.85895246710E+03  0.91675186057E+02 0.  0.
         23    2    1    2    0    0  0.18430265080E+03  0.17600041742E+03 -0.97399376201E+03  0.10145222215E+04  0.12509146807E+03 0.  0.
          5    1    4    4  502    0  0.11871701855E+03  0.28704620168E+02 -0.44621043557E+03  0.46264339498E+03  0.41800000000E+01 0.  1.
         -5    1    4    4    0  502  0.65585632254E+02  0.14729579725E+03 -0.52778332644E+03  0.55187882648E+03  0.41800000000E+01 0.  1.
        -11    1    3    3    0    0 -0.37538698132E+02 -0.96402573872E+02 -0.33525939974E+03  0.35085819816E+03  0.00000000000E+00 0.  1.
         11    1    3    3    0    0 -0.14676395267E+03 -0.79597843550E+02 -0.47987947614E+03  0.50809426894E+03  0.00000000000E+00 0. -1.
</event>
<event>
 8    1  0.5900800E-006  0.1196930E+03  0.7561462E-02  0.1243604E+00
          4   -1    0    0  501    0  0.00000000000E+00  0.00000000000E+00  0.12054545945E+03  0.12054545945E+03  0.00000000000E+00 0. -1.
         -4   -1    0    0    0  501 -0.00000000000E+00 -0.00000000000E+00 -0.19390066699E+03  0.19390066699E+03  0.00000000000E+00 0.  1.
         23    2    1    2    0    0 -0.40888478383E+02  0.56430904211E+02 -0.11699396625E+03  0.16475204151E+03  0.92732585568E+02 0.  0.
         23    2    1    2    0    0  0.40888478383E+02 -0.56430904211E+02  0.43638758708E+02  0.14969408494E+03  0.12509061991E+03 0.  0.
          5    1    4    4  502    0  0.76664812014E+02 -0.19635518888E+02 -0.42666852306E+01  0.79364500918E+02  0.41800000000E+01 0.  1.
         -5    1    4    4    0  502 -0.35776333631E+02 -0.36795385322E+02  0.47905443939E+02  0.70329584017E+02  0.41800000000E+01 0.  1.
        -11    1    3    3    0    0 -0.63695888807E+02  0.22083919857E+02 -0.42747922804E+02  0.79826378292E+02  0.00000000000E+00 0. -1.
         11    1    3    3    0    0  0.22807410424E+02  0.34346984354E+02 -0.74246043451E+02  0.84925663215E+02  0.00000000000E+00 0.  1.
</event>
<event>
 8    1  0.5900800E-006  0.1452522E+03  0.7561462E-02  0.1206431E+00
          2   -1    0    0  501    0  0.00000000000E+00  0.00000000000E+00  0.10663737397E+04  0.10663737397E+04  0.00000000000E+00 0. -1.
         -2   -1    0    0    0  501 -0.00000000000E+00 -0.00000000000E+00 -0.26782329809E+02  0.26782329809E+02  0.00000000000E+00 0.  1.
         23    2    1    2    0    0 -0.38809052122E+02 -0.12017273388E+03  0.55846998294E+03  0.58024995133E+03  0.94093866289E+02 0.  0.
         23    2    1    2    0    0  0.38809052122E+02  0.12017273388E+03  0.48112142697E+03  0.51290611820E+03  0.12508888881E+03 0.  0.
          5    1    4    4  502    0  0.11108247832E+02  0.20143079801E+01 -0.41020655347E+01  0.12718095305E+02  0.41800000000E+01 0. -1.
         -5    1    4    4    0  502  0.27700804289E+02  0.11815842590E+03  0.48522349250E+03  0.50018802290E+03  0.41800000000E+01 0. -1.
        -11    1    3    3    0    0 -0.67415171289E+02 -0.59348945742E+02  0.29745100768E+03  0.31071563310E+03  0.00000000000E+00 0.  1.
         11    1    3    3    0    0  0.28606119168E+02 -0.60823788142E+02  0.26101897525E+03  0.26953431822E+03  0.00000000000E+00 0. -1.
</event>
<event>
 8    1  0.5900800E-006  0.1584646E+03  0.7561462E-02  0.1190441E+00
         -2   -1    0    0    0  501 -0.00000000000E+00  0.00000000000E+00  0.23445788323E+02  0.23445788323E+02  0.00000000000E+00 0.  1.
          2   -1    0    0  501    0  0.00000000000E+00 -0.00000000000E+00 -0.11847253886E+04  0.11847253886E+04  0.00000000000E+00 0. -1.
         23    2    1    2    0    0 -0.24919330088E+02  0.11837376727E+03 -0.41437101973E+03  0.44125975260E+03  0.91506860330E+02 0.  0.
         23    2    1    2    0    0  0.24919330088E+02 -0.11837376727E+03 -0.74690858059E+03  0.76691142436E+03  0.12508950102E+03 0.  0.
          5    1    4    4  502    0  0.93500279867E+01  0.21947642478E+02 -0.46783784692E+02  0.52681276976E+02  0.41800000000E+01 0.  1.
         -5    1    4    4    0  502  0.15569302101E+02 -0.14032140975E+03 -0.70012479590E+03  0.71423014738E+03  0.41800000000E+01 0.  1.
        -11    1    3    3    0    0 -0.57622769967E+02  0.52647743566E+02 -0.20177735099E+03  0.21634756272E+03  0.00000000000E+00 0. -1.
         11    1    3    3    0    0  0.32703439879E+02  0.65726023704E+02 -0.21259366874E+03  0.22491218989E+03  0.00000000000E+00 0.  1.
</event>
<event>
 8    1  0.5900800E-006  0.1302805E+03  0.7561462E-02  0.1227040E+00
         -1   -1    0    0    0  501 -0.00000000000E+00  0.00000000000E+00  0.12156493835E+02  0.12156493835E+02  0.00000000000E+00 0.  1.
          1   -1    0    0  501    0  0.00000000000E+00 -0.00000000000E+00 -0.18276308251E+04  0.18276308251E+04  0.00000000000E+00 0. -1.
         23    2    1    2    0    0  0.14418492595E+02 -0.78369795314E+02 -0.42894392089E+03  0.44534703218E+03  0.89394485585E+02 0.  0.
         23    2    1    2    0    0 -0.14418492595E+02  0.78369795314E+02 -0.13865304104E+04  0.13944402868E+04  0.12508963464E+03 0.  0.
          5    1    4    4  502    0 -0.30654158968E+02  0.10495403709E+03 -0.12252523819E+04  0.12301284075E+04  0.41800000000E+01 0. -1.
         -5    1    4    4    0  502  0.16235666373E+02 -0.26584241777E+02 -0.16127802852E+03  0.16431187923E+03  0.41800000000E+01 0. -1.
        -11    1    3    3    0    0 -0.26292273569E+02  0.51568757046E+01 -0.91205541744E+02  0.95059601626E+02  0.00000000000E+00 0. -1.
         11    1    3    3    0    0  0.40710766164E+02 -0.83526671019E+02 -0.33773837915E+03  0.35028743055E+03  0.00000000000E+00 0.  1.
</event>
<event>
 8    1  0.5900800E-006  0.1182311E+03  0.7561462E-02  0.1246044E+00
          1   -1    0    0  501    0  0.00000000000E+00  0.00000000000E+00  0.37017513315E+02  0.37017513315E+02  0.00000000000E+00 0. -1.
         -1   -1    0    0    0  501 -0.00000000000E+00 -0.00000000000E+00 -0.42692002494E+03  0.42692002494E+03  0.00000000000E+00 0.  1.
         23    2    1    2    0    0  0.28829415702E+02 -0.54943974091E+02 -0.21395107374E+03  0.23928883482E+03  0.87373388511E+02 0.  0.
         23    2    1    2    0    0 -0.28829415702E+02  0.54943974091E+02 -0.17595143789E+03  0.22464870343E+03  0.12513255356E+03 0.  0.
          5    1    4    4  502    0 -0.65859856978E+02  0.72875777410E+02 -0.12349153278E+03  0.15784812562E+03  0.41800000000E+01 0. -1.
         -5    1    4    4    0  502  0.37030441277E+02 -0.17931803319E+02 -0.52459905109E+02  0.66800577807E+02  0.41800000000E+01 0. -1.
        -11    1    3    3    0    0 -0.46858767221E+01 -0.62302118821E+02 -0.18191505881E+03  0.19234500272E+03  0.00000000000E+00 0.  1.
         11    1    3    3    0    0  0.33515292424E+02  0.73581447295E+01 -0.32036014928E+02  0.46943832104E+02  0.00000000000E+00 0. -1.
</event>
<event>
 8    1  0.5900800E-006  0.1272274E+03  0.7561462E-02  0.1231629E+00
          2   -1    0    0  501    0  0.00000000000E+00  0.00000000000E+00  0.17580213250E+03  0.17580213250E+03  0.00000000000E+00 0.  1.
         -2   -1    0    0    0  501 -0.00000000000E+00 -0.00000000000E+00 -0.11714546104E+03  0.11714546104E+03  0.00000000000E+00 0. -1.
         23    2    1    2    0    0  0.56751823029E+02  0.61143089100E+02 -0.17217437412E+02  0.12453252950E+03  0.90844174221E+02 0.  0.
         23    2    1    2    0    0 -0.56751823029E+02 -0.61143089100E+02  0.75874108875E+02  0.16841506404E+03  0.12508999415E+03 0.  0.
          5    1    4    4  502    0  0.20419800660E+02 -0.53245961125E+02 -0.35803011998E+01  0.57292159951E+02  0.41800000000E+01 0.  1.
         -5    1    4    4    0  502 -0.77171623688E+02 -0.78971279747E+01  0.79454410074E+02  0.11112290409E+03  0.41800000000E+01 0.  1.
        -11    1    3    3    0    0  0.10102858472E+02 -0.22024075373E+02  0.86519475723E+01  0.25729046662E+02  0.00000000000E+00 0.  1.
         11    1    3    3    0    0  0.46648964557E+02  0.83167164473E+02 -0.25869384984E+02  0.98803482834E+02  0.00000000000E+00 0. -1.
</event>
<event>
 8    1  0.5900800E-006  0.1042378E+03  0.7561462E-02  0.1271629E+00
         -2   -1    0    0    0  501 -0.00000000000E+00  0.00000000000E+00  0.10290923939E+03  0.10290923939E+03  0.00000000000E+00 0.  1.
          2   -1    0    0  501    0  0.00000000000E+00 -0.00000000000E+00 -0.21967825881E+03  0.21967825881E+03  0.00000000000E+00 0. -1.
         23    2    1    2    0    0 -0.48445823527E+02  0.19842111072E+02  0.42430256084E+02  0.11346572328E+03  0.91287658195E+02 0.  0.
         23    2    1    2    0    0  0.48445823527E+02 -0.19842111072E+02 -0.15919927550E+03  0.20912177492E+03  0.12508717056E+03 0.  0.
          5    1    4    4  502    0 -0.15116705794E+02 -0.40273433129E+02 -0.82316144917E+01  0.43996546310E+02  0.41800000000E+01 0. -1.
         -5    1    4    4    0  502  0.63562529322E+02  0.20431322057E+02 -0.15096766101E+03  0.16512522861E+03  0.41800000000E+01 0. -1.
        -11    1    3    3    0    0  0.26849730771E+01  0.42392263070E+02 -0.13146256885E+01  0.42497544509E+02  0.00000000000E+00 0.  1.
         11    1    3    3    0    0 -0.51130796604E+02 -0.22550151998E+02  0.43744881772E+02  0.70968178769E+02  0.00000000000E+00 0. -1.
</event>
<event>
 8    1  0.5900800E-006  0.1565045E+03  0.7561462E-02  0.1192701E+00
         -1   -1    0    0    0  501 -0.00000000000E+00  0.00000000000E+00  0.63092236045E+02  0.63092236045E+02  0.00000000000E+00 0.  1.
          1   -1    0    0  501    0  0.00000000000E+00 -0.00000000000E+00 -0.65506694517E+03  0.65506694517E+03  0.00000000000E+00 0. -1.
         23    2    1    2    0    0 -0.12261323638E+03  0.53454862656E+02 -0.94857311692E+02  0.18838179489E+03  0.92727358360E+02 0.  0.
         23    2    1    2    0    0  0.12261323638E+03 -0.53454862656E+02 -0.49711739743E+03  0.52977738632E+03  0.12508774582E+03 0.  0.
          5    1    4    4  502    0  0.14302429413E+02 -0.67982692692E+02 -0.14090664321E+03  0.15715712040E+03  0.41800000000E+01 0.  1.
         -5    1    4    4    0  502  0.10831080696E+03  0.14527830036E+02 -0.35621075422E+03  0.37262026592E+03  0.41800000000E+01 0.  1.
        -11    1    3    3    0    0 -0.50263313327E+02  0.26688413448E+02  0.10431143350E+02  0.57857418111E+02  0.00000000000E+00 0.  1.
         11    1    3    3    0    0 -0.72349923051E+02  0.26766449209E+02 -0.10528845504E+03  0.13052437678E+03  0.00000000000E+00 0. -1.
</event>
<event>
 8    1  0.5900800E-006  0.1024958E+03  0.7561462E-02  0.1275133E+00
          4   -1    0    0  501    0  0.00000000000E+00  0.00000000000E+00  0.20432974894E+03  0.20432974894E+03  0.00000000000E+00 0. -1.
         -4   -1    0    0    0  501 -0.00000000000E+00 -0.00000000000E+00 -0.90916657835E+02  0.90916657835E+02  0.00000000000E+00 0.  1.
         23    2    1    2    0    0  0.14245079743E+02  0.51706488345E+02 -0.76634405067E+01  0.11308246762E+03  0.99259422364E+02 0.  0.
         23    2    1    2    0    0 -0.14245079743E+02 -0.51706488345E+02  0.12107653161E+03  0.18216393916E+03  0.12509073103E+03 0.  0.
          5    1    4    4  502    0  0.42818210797E+02 -0.35542487772E+02  0.10758500261E+03  0.12119683494E+03  0.41800000000E+01 0. -1.
         -5    1    4    4    0  502 -0.57063290541E+02 -0.16164000572E+02  0.13491529001E+02  0.60967104217E+02  0.41800000000E+01 0. -1.
        -11    1    3    3    0    0 -0.12338386513E+02 -0.14113252458E+02 -0.32799077662E+02  0.37778289693E+02  0.00000000000E+00 0.  1.
         11    1    3    3    0    0  0.26583466256E+02  0.65819740803E+02  0.25135637155E+02  0.75304177923E+02  0.00000000000E+00 0. -1.
</event>
<event>
 8    1  0.5900800E-006  0.1002458E+03  0.7561462E-02  0.1279780E+00
          1   -1    0    0  501    0  0.00000000000E+00  0.00000000000E+00  0.29568864287E+03  0.29568864287E+03  0.00000000000E+00 0. -1.
         -1   -1    0    0    0  501 -0.00000000000E+00 -0.00000000000E+00 -0.41200312854E+02  0.41200312854E+02  0.00000000000E+00 0.  1.
         23    2    1    2    0    0 -0.14015269040E+02 -0.16398697505E+02  0.77711771137E+02  0.11926062837E+03  0.87855751426E+02 0.  0.
         23    2    1    2    0    0  0.14015269040E+02  0.16398697505E+02  0.17677655888E+03  0.21762832736E+03  0.12508713784E+03 0.  0.
          5    1    4    4  502    0  0.64954190120E+02  0.26617055246E+02  0.12900580935E+03  0.14692680385E+03  0.41800000000E+01 0. -1.
         -5    1    4    4    0  502 -0.50938921080E+02 -0.10218357741E+02  0.47770749531E+02  0.70701523509E+02  0.41800000000E+01 0. -1.
        -11    1    3    3    0    0 -0.10902549528E+02 -0.46513532319E+02  0.15759421325E+02  0.50306397560E+02  0.00000000000E+00 0.  1.
         11    1    3    3    0    0 -0.31127195118E+01  0.30114834814E+02  0.61952349813E+02  0.68954230805E+02  0.00000000000E+00 0. -1.
</event>
<event>
 8    1  0.5900800E-006  0.1563546E+03  0.7561462E-02  0.1192875E+00
         -2   -1    0    0    0  501 -0.00000000000E+00  0.00000000000E+00  0.20386014521E+03  0.20386014521E+03  0.00000000000E+00 0.  1.
          2   -1    0    0  501    0  0.00000000000E+00 -0.00000000000E+00 -0.14947734040E+03  0.14947734040E+03  0.00000000000E+00 0. -1.
         23    2    1    2    0    0  0.13393423379E+03  0.13157758050E+02  0.35505848784E+02  0.16863435362E+03  0.95212259427E+02 0.  0.
         23    2    1    2    0    0 -0.13393423379E+03 -0.13157758050E+02  0.18876956025E+02  0.18470313200E+03  0.12508957560E+03 0.  0.
          5    1    4    4  502    0 -0.54098957845E+02  0.24872941296E+02  0.62143574984E+02  0.86166447996E+02  0.41800000000E+01 0. -1.
         -5    1    4    4    0  502 -0.79835275944E+02 -0.38030699346E+02 -0.43266618958E+02  0.98536684001E+02  0.41800000000E+01 0. -1.
        -11    1    3    3    0    0  0.40539639056E+02 -0.40063208299E+02  0.17657774169E+02  0.59668416960E+02  0.00000000000E+00 0.  1.
         11    1    3    3    0    0  0.93394594733E+02  0.53220966349E+02  0.17848074615E+02  0.10896593666E+03  0.00000000000E+00 0. -1.
</event>
<event>
 8    1  0.5900800E-006  0.9690245E+02  0.7561462E-02  0.1286948E+00
          1   -1    0    0  501    0  0.00000000000E+00  0.00000000000E+00  0.58508668000E+02  0.58508668000E+02  0.00000000000E+00 0. -1.
         -1   -1    0    0    0  501 -0.00000000000E+00 -0.00000000000E+00 -0.28514220008E+03  0.28514220008E+03  0.00000000000E+00 0.  1.
         23    2    1    2    0    0  0.27893645349E+02 -0.62890344158E+02 -0.11568509448E+03  0.16284527271E+03  0.91664011044E+02 0.  0.
         23    2    1    2    0    0 -0.27893645349E+02  0.62890344158E+02 -0.11094843761E+03  0.18080559538E+03  0.12509139328E+03 0.  0.
          5    1    4    4  502    0 -0.11063790017E+01 -0.73083081595E+01 -0.10497377659E+03  0.10531667301E+03  0.41800000000E+01 0.  1.
         -5    1    4    4    0  502 -0.26787266347E+02  0.70198652317E+02 -0.59746610196E+01  0.75488922365E+02  0.41800000000E+01 0.  1.
        -11    1    3    3    0    0  0.44210875475E+02  0.89687917118E+00 -0.69668348746E+02  0.82517178330E+02  0.00000000000E+00 0.  1.
         11    1    3    3    0    0 -0.16317230126E+02 -0.63787223329E+02 -0.46016745729E+02  0.80328094379E+02  0.00000000000E+00 0. -1.
</event>
<event>
 7    1  0.5900800E-006  0.1120171E+03  0.7561462E-02  0.1256880E+00
         -1   -1    0    0    0  501 -0.00000000000E+00  0.00000000000E+00  0.86887679443E+02  0.86887679443E+02  0.00000000000E+00 0.  1.
          1   -1    0    0  501    0  0.00000000000E+00 -0.00000000000E+00 -0.16335714079E+03  0.16335714079E+03  0.00000000000E+00 0. -1.
         23    2    1    2    0    0 -0.27236406375E+02  0.11248461712E+02 -0.73191055608E+01  0.95371375547E+02  0.90408961085E+02 0.  0.
          5    1    1    2  502    0 -0.87259915007E+01 -0.69345592176E+02 -0.31929155257E+02  0.76953865643E+02  0.41800000000E+01 0. -1.
         -5    1    1    2    0  502  0.35962397876E+02  0.58097130465E+02 -0.37221200526E+02  0.77919579040E+02  0.41800000000E+01 0.  1.
        -11    1    3    3    0    0 -0.55833064850E+02  0.11301542707E+02  0.15215995059E+02  0.58962551706E+02  0.00000000000E+00 0.  1.
         11    1    3    3    0    0  0.28596658474E+02 -0.53080995883E-01 -0.22535100620E+02  0.36408823841E+02  0.00000000000E+00 0. -1.
</event>
<event>
 8    1  0.5900800E-006  0.1028172E+03  0.7561462E-02  0.1274481E+00
          2   -1    0    0  501    0  0.00000000000E+00  0.00000000000E+00  0.15857038708E+03  0.15857038708E+03  0.00000000000E+00 0. -1.
         -2   -1    0    0    0  501 -0.00000000000E+00 -0.00000000000E+00 -0.81228278592E+02  0.81228278592E+02  0.00000000000E+00 0.  1.
         23    2    1    2    0    0  0.30334626834E+01 -0.10667289122E+02  0.37950406310E+02  0.10818980032E+03  0.10070653703E+03 0.  0.
         23    2    1    2    0    0 -0.30334626834E+01  0.10667289122E+02  0.39391702179E+02  0.13160886536E+03  0.12508474842E+03 0.  0.
          5    1    4    4  502    0 -0.62422552710E+02  0.20302845162E+01  0.62025200315E+01  0.62901834606E+02  0.41800000000E+01 0. -1.
         -5    1    4    4    0  502  0.59389090027E+02  0.86370046059E+01  0.33189182148E+02  0.68707030750E+02  0.41800000000E+01 0. -1.
        -11    1    3    3    0    0  0.41414504140E+02  0.43993054230E+01 -0.12074336459E+02  0.43362479660E+02  0.00000000000E+00 0.  1.
         11    1    3    3    0    0 -0.38381041456E+02 -0.15066594545E+02  0.50024742770E+02  0.64827320657E+02  0.00000000000E+00 0. -1.
</event>
<event>
 8    1  0.5900800E-006  0.9140351E+02  0.7561462E-02  0.1299488E+00
         -2   -1    0    0    0  501 -0.00000000000E+00  0.00000000000E+00  0.17758314194E+03  0.17758314194E+03  0.00000000000E+00 0.  1.
          2   -1    0    0  501    0  0.00000000000E+00 -0.00000000000E+00 -0.11427379656E+03  0.11427379656E+03  0.00000000000E+00 0. -1.
         23    2    1    2    0    0  0.26718381828E+01 -0.77801383697E+02  0.79866920436E+02  0.14358916051E+03  0.90437425945E+02 0.  0.
         23    2    1    2    0    0 -0.26718381828E+01  0.77801383697E+02 -0.16557575054E+02  0.14826777799E+03  0.12509590990E+03 0.  0.
          5    1    4    4  502    0 -0.28579682825E+01 -0.32634130010E+01 -0.57180927741E+02  0.57497380326E+02  0.41800000000E+01 0. -1.
         -5    1    4    4    0  502  0.18613009974E+00  0.81064796698E+02  0.40623352686E+02  0.90770397661E+02  0.41800000000E+01 0. -1.
        -11    1    3    3    0    0  0.21654178532E+02 -0.72839415728E+02  0.92910796887E+02  0.12002874701E+03  0.00000000000E+00 0.  1.
         11    1    3    3    0    0 -0.18982340349E+02 -0.49619679690E+01 -0.13043876451E+02  0.23560413496E+02  0.00000000000E+00 0. -1.
</event>
<event>
 8    1  0.5900800E-006  0.9498541E+02  0.7561462E-02  0.1291209E+00
         -1   -1    0    0    0  501 -0.00000000000E+00  0.00000000000E+00  0.33149499620E+02  0.33149499620E+02  0.00000000000E+00 0.  1.
          1   -1    0    0  501    0  0.00000000000E+00 -0.00000000000E+00 -0.58001675547E+03  0.58001675547E+03  0.00000000000E+00 0. -1.
         23    2    1    2    0    0 -0.53742787016E+02 -0.35317086107E+00 -0.10492000704E+03  0.15072365798E+03  0.93920185863E+02 0.  0.
         23    2    1    2    0    0  0.53742787016E+02  0.35317086107E+00 -0.44194724881E+03  0.46244259711E+03  0.12508946000E+03 0.  0.
          5    1    4    4  502    0  0.19918660240E+02  0.60053503934E+02 -0.26812141880E+03  0.27551722991E+03  0.41800000000E+01 0. -1.
         -5    1    4    4    0  502  0.33824126776E+02 -0.59700333073E+02 -0.17382583001E+03  0.18692536719E+03  0.41800000000E+01 0. -1.
        -11    1    3    3    0    0 -0.12692579042E+02  0.91943474020E+01  0.16163814901E+02  0.22514584141E+02  0.00000000000E+00 0.  1.
         11    1    3    3    0    0 -0.41050207974E+02 -0.95475182631E+01 -0.12108382194E+03  0.12820907384E+03  0.00000000000E+00 0. -1.
</event>
<event>
 8    1  0.5900800E-006  0.6782180E+02  0.7561462E-02  0.1367661E+00
          1   -1    0    0  501    0  0.00000000000E+00  0.00000000000E+00  0.22438297668E+03  0.22438297668E+03  0.00000000000E+00 0. -1.
         -1   -1    0    0    0  501 -0.00000000000E+00 -0.00000000000E+00 -0.60884926804E+02  0.60884926804E+02  0.00000000000E+00 0.  1.
         23    2    1    2    0    0 -0.19764084132E+02  0.22842545309E+02 -0.69447817356E+01  0.71696119921E+02  0.64650620419E+02 0.  0.
         23    2    1    2    0    0  0.19764084132E+02 -0.22842545309E+02  0.17044283161E+03  0.21357178356E+03  0.12509894879E+03 0.  0.
          5    1    4    4  502    0  0.39816424518E+02 -0.47659526054E+02  0.17037979993E+03  0.18139329290E+03  0.41800000000E+01 0.  1.
         -5    1    4    4    0  502 -0.20052340387E+02  0.24816980746E+02  0.63031681017E-01  0.32178490662E+02  0.41800000000E+01 0.  1.
        -11    1    3    3    0    0 -0.56197312460E+00  0.21993639063E+02  0.25689053552E+02  0.33822528666E+02  0.00000000000E+00 0. -1.
         11    1    3    3    0    0 -0.19202111007E+02  0.84890624615E+00 -0.32633835287E+02  0.37873591254E+02  0.00000000000E+00 0.  1.
</event>
<event>
 8    1  0.5900800E-006  0.9218306E+02  0.7561462E-02  0.1297650E+00
         -1   -1    0    0    0  501 -0.00000000000E+00  0.00000000000E+00  0.26571612614E+03  0.26571612614E+03  0.00000000000E+00 0.  1.
          1   -1    0    0  501    0  0.00000000000E+00 -0.00000000000E+00 -0.52967344740E+02  0.52967344740E+02  0.00000000000E+00 0. -1.
         23    2    1    2    0    0 -0.32211218725E+02  0.16637831634E+00  0.13744797549E+03  0.16916512258E+03  0.93205699601E+02 0.  0.
         23    2    1    2    0    0  0.32211218725E+02 -0.16637831634E+00  0.75300805907E+02  0.14951834830E+03  0.12509170561E+03 0.  0.
          5    1    4    4  502    0 -0.28198727508E+02  0.27779361133E+02  0.72571745521E+02  0.82770718168E+02  0.41800000000E+01 0. -1.
         -5    1    4    4    0  502  0.60409946233E+02 -0.27945739450E+02  0.27290603856E+01  0.66747630129E+02  0.41800000000E+01 0. -1.
        -11    1    3    3    0    0 -0.53921896291E+02 -0.83205230123E+01  0.13514291393E+03  0.14574089744E+03  0.00000000000E+00 0.  1.
         11    1    3    3    0    0  0.21710677566E+02  0.84869013287E+01  0.23050615643E+01  0.23424225139E+02  0.00000000000E+00 0. -1.
</event>
<event>
 8    1  0.5900800E-006  0.9583126E+02  0.7561462E-02  0.1289315E+00
          1   -1    0    0  501    0  0.00000000000E+00  0.00000000000E+00  0.59997601685E+03  0.59997601685E+03  0.00000000000E+00 0. -1.
         -1   -1    0    0    0  501 -0.00000000000E+00 -0.00000000000E+00 -0.25847303767E+02  0.25847303767E+02  0.00000000000E+00 0.  1.
         23    2    1    2    0    0 -0.46330276225E+02  0.34133934689E+02  0.21468070245E+03  0.24090494312E+03  0.92928830962E+02 0.  0.
         23    2    1    2    0    0  0.46330276225E+02 -0.34133934689E+02  0.35944801064E+03  0.38491837750E+03  0.12509062712E+03 0.  0.
          5    1    4    4  502    0  0.17095142448E+02 -0.74095499967E+02  0.13465703234E+03  0.15470092362E+03  0.41800000000E+01 0.  1.
         -5    1    4    4    0  502  0.29235133777E+02  0.39961565278E+02  0.22479097829E+03  0.23021745388E+03  0.41800000000E+01 0.  1.
        -11    1    3    3    0    0 -0.91216015841E+01  0.26238225557E+02  0.55301094242E+01  0.28323668655E+02  0.00000000000E+00 0.  1.
         11    1    3    3    0    0 -0.37208674641E+02  0.78957091322E+01  0.20915059303E+03  0.21258127447E+03  0.00000000000E+00 0. -1.
</event>
<event>
 8    1  0.5900800E-006  0.1565068E+03  0.7561462E-02  0.1192698E+00
         -2   -1    0    0    0  501 -0.00000000000E+00  0.00000000000E+00  0.49268865029E+02  0.49268865029E+02  0.00000000000E+00 0.  1.
          2   -1    0    0  501    0  0.00000000000E+00 -0.00000000000E+00 -0.57120400719E+03  0.57120400719E+03  0.00000000000E+00 0. -1.
         23    2    1    2    0    0 -0.12670483458E+03  0.19363735342E+00 -0.26551564972E+03  0.30829813487E+03  0.92168471351E+02 0.  0.
         23    2    1    2    0    0  0.12670483458E+03 -0.19363735342E+00 -0.25641949243E+03  0.31217473735E+03  0.12509179805E+03 0.  0.
          5    1    4    4  502    0  0.11506463010E+03 -0.49390942532E+02 -0.15991030573E+03  0.20314554532E+03  0.41800000000E+01 0. -1.
         -5    1    4    4    0  502  0.11640204485E+02  0.49197305179E+02 -0.96509186700E+02  0.10902919203E+03  0.41800000000E+01 0. -1.
        -11    1    3    3    0    0 -0.11563522196E+03  0.16995930424E+02 -0.26327569023E+03  0.28805286889E+03  0.00000000000E+00 0. -1.
         11    1    3    3    0    0 -0.11069612621E+02 -0.16802293071E+02 -0.22399594968E+01  0.20245265979E+02  0.00000000000E+00 0.  1.
</event>
<event>
 8    1  0.5900800E-006  0.1608853E+03  0.7561462E-02  0.1187701E+00
          2   -1    0    0  501    0  0.00000000000E+00  0.00000000000E+00  0.39443085329E+03  0.39443085329E+03  0.00000000000E+00 0.  1.
         -2   -1    0    0    0  501 -0.00000000000E+00 -0.00000000000E+00 -0.78509103189E+02  0.78509103189E+02  0.00000000000E+00 0. -1.
         23    2    1    2    0    0  0.15585159812E+02  0.13872138249E+03  0.15109288689E+03  0.22333760929E+03  0.86971881032E+02 0.  0.
         23    2    1    2    0    0 -0.15585159812E+02 -0.13872138249E+03  0.16482886322E+03  0.24960234719E+03  0.12508500472E+03 0.  0.
          5    1    4    4  502    0 -0.36655318242E+02 -0.31483179063E+02 -0.37596651165E+01  0.48645764472E+02  0.41800000000E+01 0. -1.
         -5    1    4    4    0  502  0.21070158429E+02 -0.10723820343E+03  0.16858852833E+03  0.20095658272E+03  0.41800000000E+01 0. -1.
        -11    1    3    3    0    0 -0.18378579973E+02 -0.25955429462E+01  0.23424899602E+02  0.29887036761E+02  0.00000000000E+00 0.  1.
         11    1    3    3    0    0  0.33963739785E+02  0.14131692544E+03  0.12766798729E+03  0.19345057253E+03  0.00000000000E+00 0. -1.
</event>
<event>
 8    1  0.5900800E-006  0.1526305E+03  0.7561462E-02  0.1197277E+00
         -2   -1    0    0    0  501 -0.00000000000E+00  0.00000000000E+00  0.62387637928E+02  0.62387637928E+02  0.00000000000E+00 0.  1.
          2   -1    0    0  501    0  0.00000000000E+00 -0.00000000000E+00 -0.45770500813E+03  0.45770500813E+03  0.00000000000E+00 0. -1.
         23    2    1    2    0    0 -0.11296598823E+03 -0.54396608773E+02 -0.16830728691E+03  0.23216690446E+03  0.99266425133E+02 0.  0.
         23    2    1    2    0    0  0.11296598823E+03  0.54396608773E+02 -0.22701008330E+03  0.28792574160E+03  0.12508936492E+03 0.  0.
          5    1    4    4  502    0  0.79163777664E+02 -0.17177136985E+02 -0.17565480332E+03  0.19347878451E+03  0.41800000000E+01 0.  1.
         -5    1    4    4    0  502  0.33802210564E+02  0.71573745759E+02 -0.51355279983E+02  0.94446957087E+02  0.41800000000E+01 0.  1.
        -11    1    3    3    0    0 -0.11603471594E+03 -0.65580984363E+02 -0.11028319259E+03  0.17299509641E+03  0.00000000000E+00 0.  1.
         11    1    3    3    0    0  0.30687277126E+01  0.11184375590E+02 -0.58024094312E+02  0.59171808049E+02  0.00000000000E+00 0. -1.
</event>
<event>
 8    1  0.5900800E-006  0.8899400E+02  0.7561462E-02  0.1305306E+00
         -1   -1    0    0    0  501 -0.00000000000E+00  0.00000000000E+00  0.24546693353E+02  0.24546693353E+02  0.00000000000E+00 0.  1.
          1   -1    0    0  501    0  0.00000000000E+00 -0.00000000000E+00 -0.77792260415E+03  0.77792260415E+03  0.00000000000E+00 0. -1.
         23    2    1    2    0    0  0.16175492509E+01  0.73617919316E+01 -0.79441187270E+02  0.11944342835E+03  0.88876419224E+02 0.  0.
         23    2    1    2    0    0 -0.16175492509E+01 -0.73617919316E+01 -0.67393472353E+03  0.68302586916E+03  0.11081296817E+03 0.  0.
          5    1    4    4  502    0 -0.13141561606E+02 -0.46188956977E+02 -0.55932906921E+03  0.56140235166E+03  0.41800000000E+01 0. -1.
         -5    1    4    4    0  502  0.11524012355E+02  0.38827165046E+02 -0.11460565431E+03  0.12162351749E+03  0.41800000000E+01 0.  1.
        -11    1    3    3    0    0  0.15697266907E+01  0.48202082157E+02 -0.39824385207E+02  0.62545075132E+02  0.00000000000E+00 0.  1.
         11    1    3    3    0    0  0.47822560209E-01 -0.40840290226E+02 -0.39616802063E+02  0.56898353213E+02  0.00000000000E+00 0. -1.
</event>
<event>
 8    1  0.5900800E-006  0.1177709E+03  0.7561462E-02  0.1246820E+00
         -1   -1    0    0    0  501 -0.00000000000E+00  0.00000000000E+00  0.38809246707E+02  0.38809246707E+02  0.00000000000E+00 0.  1.
          1   -1    0    0  501    0  0.00000000000E+00 -0.00000000000E+00 -0.42672542733E+03  0.42672542733E+03  0.00000000000E+00 0. -1.
         23    2    1    2    0    0  0.36288363287E+02  0.57540102407E+02 -0.17837406148E+03  0.21219078260E+03  0.92627823673E+02 0.  0.
         23    2    1    2    0    0 -0.36288363287E+02 -0.57540102407E+02 -0.20954211915E+03  0.25334389144E+03  0.12509004331E+03 0.  0.
          5    1    4    4  502    0 -0.23413991774E+02  0.38058007809E+02 -0.80695416497E+02  0.92335527360E+02  0.41800000000E+01 0.  1.
         -5    1    4    4    0  502 -0.12874371513E+02 -0.95598110216E+02 -0.12884670265E+03  0.16100836408E+03  0.41800000000E+01 0.  1.
        -11    1    3    3    0    0  0.54649807224E+02  0.50613271925E+02 -0.70546623929E+02  0.10259206047E+03  0.00000000000E+00 0.  1.
         11    1    3    3    0    0 -0.18361443936E+02  0.69268304821E+01 -0.10782743755E+03  0.10959872213E+03  0.00000000000E+00 0. -1.
</event>
<event>
 8    1  0.5900800E-006  0.9871003E+02  0.7561462E-02  0.1283032E+00
         -1   -1    0    0    0  501 -0.00000000000E+00  0.00000000000E+00  0.25255263882E+02  0.25255263882E+02  0.00000000000E+00 0.  1.
          1   -1    0    0  501    0  0.00000000000E+00 -0.00000000000E+00 -0.57875025072E+03  0.57875025072E+03  0.00000000000E+00 0. -1.
         23    2    1    2    0    0  0.17786330093E+02 -0.26243597640E+02 -0.12730803204E+03  0.15870964585E+03  0.89310339309E+02 0.  0.
         23    2    1    2    0    0 -0.17786330093E+02  0.26243597640E+02 -0.42618695480E+03  0.44529586875E+03  0.12509200748E+03 0.  0.
          5    1    4    4  502    0  0.47795996374E+02  0.84724865866E+01 -0.90554566568E+02  0.10282918956E+03  0.41800000000E+01 0. -1.
         -5    1    4    4    0  502 -0.65582326467E+02  0.17771111054E+02 -0.33563238823E+03  0.34246667920E+03  0.41800000000E+01 0. -1.
        -11    1    3    3    0    0  0.42671496196E+02  0.23268259342E+01 -0.10807854165E+03  0.11622066026E+03  0.00000000000E+00 0. -1.
         11    1    3    3    0    0 -0.24885166103E+02 -0.28570423575E+02 -0.19229490387E+02  0.42488985582E+02  0.00000000000E+00 0.  1.
</event>
<event>
 7    1  0.5900800E-006  0.1636163E+03  0.7561462E-02  0.1184673E+00
          2   -1    0    0  501    0  0.00000000000E+00  0.00000000000E+00  0.53305843626E+03  0.53305843626E+03  0.00000000000E+00 0. -1.
         -2   -1    0    0    0  501 -0.00000000000E+00 -0.00000000000E+00 -0.93801495244E+02  0.93801495244E+02  0.00000000000E+00 0.  1.
         23    2    1    2    0    0 -0.86854123211E+02  0.12618182245E+02  0.30796055289E+02  0.13087077449E+03  0.92064680271E+02 0.  0.
          5    1    1    2  502    0  0.57154309719E+02 -0.10293362809E+03  0.37820604898E+03  0.39613032552E+03  0.41800000000E+01 0. -1.
         -5    1    1    2    0  502  0.29699813492E+02  0.90315445850E+02  0.30254836753E+02  0.99858831495E+02  0.41800000000E+01 0.  1.
        -11    1    3    3    0    0 -0.79381497722E+02  0.37848429806E+02  0.47253997549E+02  0.99834193059E+02  0.00000000000E+00 0.  1.
         11    1    3    3    0    0 -0.74726254885E+01 -0.25230247561E+02 -0.16457942261E+02  0.31036581435E+02  0.00000000000E+00 0. -1.
</event>
<event>
 8    1  0.6781077E-006  0.1707947E+03  0.7561462E-02  0.1177022E+00
         -2   -1    0    0    0  501 -0.00000000000E+00  0.00000000000E+00  0.28908331967E+02  0.28908331967E+02  0.00000000000E+00 0.  1.
          2   -1    0    0  501    0  0.00000000000E+00 -0.00000000000E+00 -0.14790090146E+04  0.14790090146E+04  0.00000000000E+00 0. -1.
         23    2    1    2    0    0 -0.89010440128E+02  0.12954402367E+03 -0.41046762669E+03  0.44905539049E+03  0.91992166198E+02 0.  0.
         23    2    1    2    0    0  0.89010440128E+02 -0.12954402367E+03 -0.10396330559E+04  0.10588619561E+04  0.12508892241E+03 0.  0.
          5    1    4    4  502    0  0.94833867225E+02 -0.55724095351E+02 -0.39746718007E+03  0.41242728911E+03  0.41800000000E+01 0.  1.
         -5    1    4    4    0  502 -0.58234270964E+01 -0.73819928320E+02 -0.64216587588E+03  0.64643466697E+03  0.41800000000E+01 0.  1.
        -11    1    3    3    0    0 -0.40363938116E+02  0.52327708483E+02 -0.68756283977E+02  0.95366991992E+02  0.00000000000E+00 0.  1.
         11    1    3    3    0    0 -0.48646502012E+02  0.77216315188E+02 -0.34171134272E+03  0.35368839849E+03  0.00000000000E+00 0. -1.
</event>
<event>
 8    1  0.5900800E-006  0.7312205E+02  0.7561462E-02  0.1349787E+00
          2   -1    0    0  501    0  0.00000000000E+00  0.00000000000E+00  0.39676306798E+03  0.39676306798E+03  0.00000000000E+00 0. -1.
         -2   -1    0    0    0  501 -0.00000000000E+00 -0.00000000000E+00 -0.37382772100E+02  0.37382772100E+02  0.00000000000E+00 0.  1.
         23    2    1    2    0    0 -0.49146041464E+01 -0.45256234882E+02  0.10063611096E+03  0.14316371021E+03  0.91082056215E+02 0.  0.
         23    2    1    2    0    0  0.49146041464E+01  0.45256234882E+02  0.25874418493E+03  0.29098212987E+03  0.12509902693E+03 0.  0.
          5    1    4    4  502    0  0.23978166496E+02  0.11087207270E+02  0.24901509485E+03  0.25044733677E+03  0.41800000000E+01 0. -1.
         -5    1    4    4    0  502 -0.19063562350E+02  0.34169027612E+02  0.97290900744E+01  0.40534793093E+02  0.41800000000E+01 0. -1.
        -11    1    3    3    0    0  0.25675642999E+02 -0.18497145779E+00  0.81466873551E+02  0.85417353881E+02  0.00000000000E+00 0. -1.
         11    1    3    3    0    0 -0.30590247145E+02 -0.45071263425E+02  0.19169237404E+02  0.57746356333E+02  0.00000000000E+00 0.  1.
</event>
<event>
 8    1  0.5900800E-006  0.1201999E+03  0.7561462E-02  0.1242768E+00
         -2   -1    0    0    0  501 -0.00000000000E+00  0.00000000000E+00  0.27057759675E+02  0.27057759675E+02  0.00000000000E+00 0.  1.
          2   -1    0    0  501    0  0.00000000000E+00 -0.00000000000E+00 -0.79629939941E+03  0.79629939941E+03  0.00000000000E+00 0. -1.
         23    2    1    2    0    0 -0.61503480016E+02 -0.62615646129E+02 -0.23143560288E+03  0.26426342488E+03  0.92570633847E+02 0.  0.
         23    2    1    2    0    0  0.61503480016E+02  0.62615646129E+02 -0.53780603685E+03  0.55909373421E+03  0.12508826150E+03 0.  0.
          5    1    4    4  502    0  0.58351351821E+02 -0.25698269779E+02 -0.24678642143E+03  0.25492408975E+03  0.41800000000E+01 0.  1.
         -5    1    4    4    0  502  0.31521281957E+01  0.88313915908E+02 -0.29101961542E+03  0.30416964446E+03  0.41800000000E+01 0.  1.
        -11    1    3    3    0    0 -0.23504467835E+02 -0.28742691757E+02 -0.12029743085E+02  0.39029694545E+02  0.00000000000E+00 0.  1.
         11    1    3    3    0    0 -0.37999012182E+02 -0.33872954372E+02 -0.21940585980E+03  0.22523373033E+03  0.00000000000E+00 0. -1.
</event>
<event>
 8    1  0.5900800E-006  0.1904314E+03  0.7561462E-02  0.1158073E+00
          2   -1    0    0  501    0  0.00000000000E+00  0.00000000000E+00  0.55290205001E+03  0.55290205001E+03  0.00000000000E+00 0. -1.
         -2   -1    0    0    0  501 -0.00000000000E+00 -0.00000000000E+00 -0.77493415634E+02  0.77493415634E+02  0.00000000000E+00 0.  1.
         23    2    1    2    0    0  0.15850320185E+03  0.35508923630E+02  0.12469928292E+03  0.22415878873E+03  0.91176218102E+02 0.  0.
         23    2    1    2    0    0 -0.15850320185E+03 -0.35508923630E+02  0.35070935145E+03  0.40623667692E+03  0.12508812821E+03 0.  0.
          5    1    4    4  502    0 -0.16545842847E+03 -0.60635457631E+02  0.28118187009E+03  0.33186422937E+03  0.41800000000E+01 0.  1.
         -5    1    4    4    0  502  0.69552266126E+01  0.25126534000E+02  0.69527481367E+02  0.74372447542E+02  0.41800000000E+01 0.  1.
        -11    1    3    3    0    0  0.13562738247E+03  0.56704474207E+02  0.73858211012E+02  0.16451510449E+03  0.00000000000E+00 0.  1.
         11    1    3    3    0    0  0.22875819383E+02 -0.21195550577E+02  0.50841071909E+02  0.59643684239E+02  0.00000000000E+00 0. -1.
</event>
<event>
 8    1  0.5900800E-006  0.1220257E+03  0.7561462E-02  0.1239792E+00
         -2   -1    0    0    0  501 -0.00000000000E+00  0.00000000000E+00  0.37589282953E+02  0.37589282953E+02  0.00000000000E+00 0.  1.
          2   -1    0    0  501    0  0.00000000000E+00 -0.00000000000E+00 -0.52202389304E+03  0.52202389304E+03  0.00000000000E+00 0. -1.
         23    2    1    2    0    0  0.21785789222E+01  0.80041486898E+02 -0.13742372544E+03  0.18215472343E+03  0.88790073325E+02 0.  0.
         23    2    1    2    0    0 -0.21785789222E+01 -0.80041486898E+02 -0.34701088465E+03  0.37745845257E+03  0.12508774329E+03 0.  0.
          5    1    4    4  502    0  0.50409861117E+02  0.22116812967E+01 -0.10994228812E+03  0.12104059133E+03  0.41800000000E+01 0.  1.
         -5    1    4    4    0  502 -0.52588440039E+02 -0.82253168195E+02 -0.23706859653E+03  0.25641786124E+03  0.41800000000E+01 0.  1.
        -11    1    3    3    0    0  0.25868753480E+02  0.57279526596E+02 -0.29665195769E+02  0.69499355491E+02  0.00000000000E+00 0.  1.
         11    1    3    3    0    0 -0.23690174558E+02  0.22761960303E+02 -0.10775852967E+03  0.11265536793E+03  0.00000000000E+00 0. -1.
</event>
<event>
 8    1  0.8460835E-006  0.9352757E+02  0.7561462E-02  0.1294527E+00
          1   -1    0    0  501    0  0.00000000000E+00  0.00000000000E+00  0.58752920228E+03  0.58752920228E+03  0.00000000000E+00 0. -1.
         -1   -1    0    0    0  501 -0.00000000000E+00 -0.00000000000E+00 -0.27549572334E+02  0.27549572334E+02  0.00000000000E+00 0.  1.
         23    2    1    2    0    0  0.31835796360E+01 -0.72324410545E+02  0.17523853480E+03  0.20408708361E+03  0.75511840648E+02 0.  0.
         23    2    1    2    0    0 -0.31835796360E+01  0.72324410545E+02  0.38474109514E+03  0.41099169100E+03  0.12508998457E+03 0.  0.
          5    1    4    4  502    0 -0.23426436695E+02  0.42322931144E+02  0.36229965553E+02  0.60581443040E+02  0.41800000000E+01 0. -1.
         -5    1    4    4    0  502  0.20242857059E+02  0.30001479400E+02  0.34851112958E+03  0.35041024796E+03  0.41800000000E+01 0. -1.
        -11    1    3    3    0    0  0.69779220456E+01 -0.86812114029E+02  0.13036450646E+03  0.15677990651E+03  0.00000000000E+00 0.  1.
         11    1    3    3    0    0 -0.37943424096E+01  0.14487703484E+02  0.44874028340E+02  0.47307177109E+02  0.00000000000E+00 0. -1.
</event>
<event>
 8    1  0.5900800E-006  0.1173762E+03  0.7561462E-02  0.1247489E+00
          3   -1    0    0  501    0  0.00000000000E+00  0.00000000000E+00  0.23109865365E+03  0.23109865365E+03  0.00000000000E+00 0. -1.
         -3   -1    0    0    0  501 -0.00000000000E+00 -0.00000000000E+00 -0.65805830245E+02  0.65805830245E+02  0.00000000000E+00 0.  1.
         23    2    1    2    0    0 -0.18854964471E+02  0.53161245498E+02  0.45364986407E+02  0.11466443335E+03  0.88928749998E+02 0.  0.
         23    2    1    2    0    0  0.18854964471E+02 -0.53161245498E+02  0.11992783700E+03  0.18224005055E+03  0.12508845761E+03 0.  0.
          5    1    4    4  502    0 -0.23017630452E+02  0.28965043281E+02  0.64836437519E+02  0.74766443503E+02  0.41800000000E+01 0. -1.
         -5    1    4    4    0  502  0.41872594922E+02 -0.82126288778E+02  0.55091399482E+02  0.10747360704E+03  0.41800000000E+01 0. -1.
        -11    1    3    3    0    0 -0.54261122843E+02  0.40225077802E+02  0.31090005839E+02  0.74356672864E+02  0.00000000000E+00 0. -1.
         11    1    3    3    0    0  0.35406158372E+02  0.12936167696E+02  0.14274980569E+02  0.40307760488E+02  0.00000000000E+00 0.  1.
</event>
<event>
 8    1  0.5900800E-006  0.1957313E+03  0.7561462E-02  0.1153391E+00
          1   -1    0    0  501    0  0.00000000000E+00  0.00000000000E+00  0.63522749983E+03  0.63522749983E+03  0.00000000000E+00 0. -1.
         -1   -1    0    0    0  501 -0.00000000000E+00 -0.00000000000E+00 -0.87989351984E+02  0.87989351984E+02  0.00000000000E+00 0.  1.
         23    2    1    2    0    0  0.18038917810E+03  0.25087824579E+02  0.10614756049E+03  0.22987662292E+03  0.91685891227E+02 0.  0.
         23    2    1    2    0    0 -0.18038917810E+03 -0.25087824579E+02  0.44109058736E+03  0.49334022889E+03  0.12511602882E+03 0.  0.
          5    1    4    4  502    0 -0.30441916075E+02 -0.27556072839E+02  0.23402913923E+03  0.23764081681E+03  0.41800000000E+01 0.  1.
         -5    1    4    4    0  502 -0.14994726203E+03  0.24682482596E+01  0.20706144813E+03  0.25569941209E+03  0.41800000000E+01 0.  1.
        -11    1    3    3    0    0  0.16702316772E+03  0.47871586891E+02  0.75574194035E+02  0.18947265288E+03  0.00000000000E+00 0.  1.
         11    1    3    3    0    0  0.13366010381E+02 -0.22783762312E+02  0.30573366450E+02  0.40403970037E+02  0.00000000000E+00 0. -1.
</event>
<event>
 8    1  0.5900800E-006  0.1094878E+03  0.7561462E-02  0.1261521E+00
          1   -1    0    0  501    0  0.00000000000E+00  0.00000000000E+00  0.12543336557E+03  0.12543336557E+03  0.00000000000E+00 0. -1.
         -1   -1    0    0    0  501 -0.00000000000E+00 -0.00000000000E+00 -0.23090558634E+03  0.23090558634E+03  0.00000000000E+00 0.  1.
         23    2    1    2    0    0 -0.39123299101E+02  0.20646605602E+02 -0.17353405118E+03  0.20721735338E+03  0.10424993893E+03 0.  0.
         23    2    1    2    0    0  0.39123299101E+02 -0.20646605602E+02  0.68061830410E+02  0.14912159854E+03  0.12509166054E+03 0.  0.
          5    1    4    4  502    0  0.41502848005E+02  0.39626888348E+02  0.67447548593E+02  0.88653374915E+02  0.41800000000E+01 0.  1.
         -5    1    4    4    0  502 -0.23795489042E+01 -0.60273493949E+02  0.61428181718E+00  0.60468223622E+02  0.41800000000E+01 0.  1.
        -11    1    3    3    0    0 -0.53248059338E+02  0.47033707322E+02 -0.15856334940E+03  0.17375229846E+03  0.00000000000E+00 0.  1.
         11    1    3    3    0    0  0.14124760237E+02 -0.26387101720E+02 -0.14970701785E+02  0.33465054921E+02  0.00000000000E+00 0. -1.
</event>
<event>
 8    1  0.5900800E-006  0.1143620E+03  0.7561462E-02  0.1252699E+00
         -2   -1    0    0    0  501 -0.00000000000E+00  0.00000000000E+00  0.16995204893E+03  0.16995204893E+03  0.00000000000E+00 0. -1.
          2   -1    0    0  501    0  0.00000000000E+00 -0.00000000000E+00 -0.10061500996E+03  0.10061500996E+03  0.00000000000E+00 0.  1.
         23    2    1    2    0    0  0.63546516089E+02  0.28549252858E+02  0.64244315216E+02  0.12729217581E+03  0.84986742728E+02 0.  0.
         23    2    1    2    0    0 -0.63546516089E+02 -0.28549252858E+02  0.50927237489E+01  0.14327488308E+03  0.12509411154E+03 0.  0.
          5    1    4    4  502    0 -0.91097536826E+02 -0.32883206638E+02 -0.26922598671E+02  0.10060996578E+03  0.41800000000E+01 0. -1.
         -5    1    4    4    0  502  0.27551020737E+02  0.43339537803E+01  0.32015322420E+02  0.42664917305E+02  0.41800000000E+01 0. -1.
        -11    1    3    3    0    0  0.26971175524E+02  0.53081815927E+02  0.15350563129E+02  0.61487911654E+02  0.00000000000E+00 0.  1.
         11    1    3    3    0    0  0.36575340565E+02 -0.24532563069E+02  0.48893752087E+02  0.65804264158E+02  0.00000000000E+00 0. -1.
</event>
<event>
 8    1  0.5900800E-006  0.1763845E+03  0.7561462E-02  0.1171349E+00
         -2   -1    0    0    0  501 -0.00000000000E+00  0.00000000000E+00  0.23165674098E+02  0.23165674098E+02  0.00000000000E+00 0. -1.
          2   -1    0    0  501    0  0.00000000000E+00 -0.00000000000E+00 -0.13958958543E+04  0.13958958543E+04  0.00000000000E+00 0.  1.
         23    2    1    2    0    0  0.67725830489E+02  0.12299830727E+03 -0.56606768579E+03  0.59077007073E+03  0.94134371339E+02 0.  0.
         23    2    1    2    0    0 -0.67725830489E+02 -0.12299830727E+03 -0.80666249438E+03  0.82829145764E+03  0.12508791809E+03 0.  0.
          5    1    4    4  502    0 -0.10330936179E+03 -0.75149012893E+02 -0.52211984521E+03  0.53753772289E+03  0.41800000000E+01 0.  1.
         -5    1    4    4    0  502  0.35583531296E+02 -0.47849294373E+02 -0.28454264917E+03  0.29075373474E+03  0.41800000000E+01 0.  1.
        -11    1    3    3    0    0  0.64493759859E+02  0.13667124071E+03 -0.54406884731E+03  0.56466749837E+03  0.00000000000E+00 0.  1.
         11    1    3    3    0    0  0.32320706298E+01 -0.13672933442E+02 -0.21998838477E+02  0.26102572360E+02  0.00000000000E+00 0. -1.
</event>
<event>
 8    1  0.5900800E-006  0.2737141E+03  0.7561462E-02  0.1099173E+00
          2   -1    0    0  501    0  0.00000000000E+00  0.00000000000E+00  0.64863272152E+03  0.64863272152E+03  0.00000000000E+00 0. -1.
         -2   -1    0    0    0  501 -0.00000000000E+00 -0.00000000000E+00 -0.12732134804E+03  0.12732134804E+03  0.00000000000E+00 0.  1.
         23    2    1    2    0    0 -0.69494107257E+02 -0.24576728986E+03  0.14329398629E+03  0.30639442343E+03  0.90074327611E+02 0.  0.
         23    2    1    2    0    0  0.69494107257E+02  0.24576728986E+03  0.37801738719E+03  0.46955964613E+03  0.11116710190E+03 0.  0.
          5    1    4    4  502    0  0.98545632674E+02  0.19564729548E+03  0.31666149661E+03  0.38507282660E+03  0.41800000000E+01 0. -1.
         -5    1    4    4    0  502 -0.29051525417E+02  0.50119994378E+02  0.61355890572E+02  0.84486819525E+02  0.41800000000E+01 0.  1.
        -11    1    3    3    0    0 -0.88078136389E+02 -0.16156336293E+03  0.10679859366E+03  0.21275906082E+03  0.00000000000E+00 0.  1.
         11    1    3    3    0    0  0.18584029132E+02 -0.84203926929E+02  0.36495392630E+02  0.93635362616E+02  0.00000000000E+00 0. -1.
</event>
<event>
 8    1  0.5900800E-006  0.9169635E+02  0.7561462E-02  0.1298795E+00
          1   -1    0    0  501    0  0.00000000000E+00  0.00000000000E+00  0.10496505231E+04  0.10496505231E+04  0.00000000000E+00 0. -1.
         -1   -1    0    0    0  501 -0.00000000000E+00 -0.00000000000E+00 -0.15949218175E+02  0.15949218175E+02  0.00000000000E+00 0.  1.
         23    2    1    2    0    0 -0.18544055864E+02 -0.27741241640E+02  0.19653989686E+03  0.21848671965E+03  0.89415083229E+02 0.  0.
         23    2    1    2    0    0  0.18544055864E+02  0.27741241640E+02  0.83716140810E+03  0.84711302166E+03  0.12509112584E+03 0.  0.
          5    1    4    4  502    0  0.50703185736E+02  0.67658416746E+01  0.14393324049E+03  0.15280981571E+03  0.41800000000E+01 0.  1.
         -5    1    4    4    0  502 -0.32159129872E+02  0.20975399965E+02  0.69322816761E+03  0.69430320596E+03  0.41800000000E+01 0.  1.
        -11    1    3    3    0    0 -0.58649751523E+01  0.31919865644E+02  0.48315891420E+02  0.58203961377E+02  0.00000000000E+00 0.  1.
         11    1    3    3    0    0 -0.12679080712E+02 -0.59661107284E+02  0.14822400544E+03  0.16028275827E+03  0.00000000000E+00 0. -1.
</event>
<event>
 8    1  0.5900800E-006  0.1170802E+03  0.7561462E-02  0.1247993E+00
          2   -1    0    0  501    0  0.00000000000E+00  0.00000000000E+00  0.40474403488E+03  0.40474403488E+03  0.00000000000E+00 0. -1.
         -2   -1    0    0    0  501 -0.00000000000E+00 -0.00000000000E+00 -0.44472111119E+02  0.44472111119E+02  0.00000000000E+00 0.  1.
         23    2    1    2    0    0  0.56188503696E+02 -0.12595272055E+02  0.81135370437E+02  0.13795713209E+03  0.95568996717E+02 0.  0.
         23    2    1    2    0    0 -0.56188503696E+02  0.12595272055E+02  0.27913655332E+03  0.31125901390E+03  0.12509664068E+03 0.  0.
          5    1    4    4  502    0 -0.93979787471E+02  0.53171440600E+01  0.23106734584E+03  0.24953970262E+03  0.41800000000E+01 0. -1.
         -5    1    4    4    0  502  0.37791283775E+02  0.72781279946E+01  0.48069207484E+02  0.61719311277E+02  0.41800000000E+01 0. -1.
        -11    1    3    3    0    0  0.25657333258E+02  0.35775603815E+02  0.74101096148E+01  0.44644174343E+02  0.00000000000E+00 0. -1.
         11    1    3    3    0    0  0.30531170439E+02 -0.48370875870E+02  0.73725260823E+02  0.93312957750E+02  0.00000000000E+00 0.  1.
</event>
<event>
 8    1  0.5900800E-006  0.3192430E+03  0.7561462E-02  0.1075998E+00
          2   -1    0    0  501    0  0.00000000000E+00  0.00000000000E+00  0.84815156482E+03  0.84815156482E+03  0.00000000000E+00 0. -1.
         -2   -1    0    0    0  501 -0.00000000000E+00 -0.00000000000E+00 -0.12958085017E+03  0.12958085017E+03  0.00000000000E+00 0.  1.
         23    2    1    2    0    0  0.21064944813E+03  0.22257168426E+03  0.25793186493E+03  0.41050520078E+03  0.89857266223E+02 0.  0.
         23    2    1    2    0    0 -0.21064944813E+03 -0.22257168426E+03  0.46063884972E+03  0.56722721420E+03  0.12508884052E+03 0.  0.
          5    1    4    4  502    0 -0.16778887519E+03 -0.10526218508E+03  0.34012992025E+03  0.39362300402E+03  0.41800000000E+01 0. -1.
         -5    1    4    4    0  502 -0.42860572948E+02 -0.11730949917E+03  0.12050892948E+03  0.17360421018E+03  0.41800000000E+01 0. -1.
        -11    1    3    3    0    0  0.47036294821E+02  0.11639189775E+02  0.65286063596E+02  0.81302852772E+02  0.00000000000E+00 0.  1.
         11    1    3    3    0    0  0.16361315331E+03  0.21093249448E+03  0.19264580133E+03  0.32920234801E+03  0.00000000000E+00 0. -1.
</event>
<event>
 8    1  0.5900800E-006  0.1009248E+03  0.7561462E-02  0.1278363E+00
          2   -1    0    0  501    0  0.00000000000E+00  0.00000000000E+00  0.86359493372E+03  0.86359493372E+03  0.00000000000E+00 0. -1.
         -2   -1    0    0    0  501 -0.00000000000E+00 -0.00000000000E+00 -0.21335134719E+02  0.21335134719E+02  0.00000000000E+00 0.  1.
         23    2    1    2    0    0 -0.59005557691E+01  0.36870063768E+02  0.14166620524E+03  0.17227513392E+03  0.90637684758E+02 0.  0.
         23    2    1    2    0    0  0.59005557691E+01 -0.36870063768E+02  0.70059359376E+03  0.71265493452E+03  0.12510577092E+03 0.  0.
          5    1    4    4  502    0 -0.24207923326E+02 -0.75721011088E+02  0.48501041868E+03  0.49150002411E+03  0.41800000000E+01 0.  1.
         -5    1    4    4    0  502  0.30108479095E+02  0.38850947319E+02  0.21558317508E+03  0.22115491041E+03  0.41800000000E+01 0.  1.
        -11    1    3    3    0    0  0.22532836631E+02  0.38308705523E+02  0.13622274293E+03  0.14328964142E+03  0.00000000000E+00 0. -1.
         11    1    3    3    0    0 -0.28433392400E+02 -0.14386417545E+01  0.54434623066E+01  0.28985492498E+02  0.00000000000E+00 0.  1.
</event>
<event>
 8    1  0.5900800E-006  0.2241034E+03  0.7561462E-02  0.1130860E+00
         -1   -1    0    0    0  501 -0.00000000000E+00  0.00000000000E+00  0.25000149195E+03  0.25000149195E+03  0.00000000000E+00 0.  1.
          1   -1    0    0  501    0  0.00000000000E+00 -0.00000000000E+00 -0.64121619402E+03  0.64121619402E+03  0.00000000000E+00 0. -1.
         23    2    1    2    0    0  0.20393681315E+03 -0.92420545571E+02  0.15697876662E+03  0.28882044301E+03  0.92968457728E+02 0.  0.
         23    2    1    2    0    0 -0.20393681315E+03  0.92420545571E+02 -0.54819346869E+03  0.60239724295E+03  0.11061002757E+03 0.  0.
          5    1    4    4  502    0 -0.16337419636E+03  0.72689994348E+02 -0.51786058733E+03  0.54787957036E+03  0.41800000000E+01 0. -1.
         -5    1    4    4    0  502 -0.40562616792E+02  0.19730551223E+02 -0.30332881359E+02  0.54517672585E+02  0.41800000000E+01 0.  1.
        -11    1    3    3    0    0  0.10970866775E+03 -0.54064953370E+02  0.13962031495E+03  0.18561477126E+03  0.00000000000E+00 0.  1.
         11    1    3    3    0    0  0.94228145399E+02 -0.38355592201E+02  0.17358451671E+02  0.10320567176E+03  0.00000000000E+00 0. -1.
</event>
<event>
 8    1  0.5900800E-006  0.1047799E+03  0.7561462E-02  0.1270554E+00
         -1   -1    0    0    0  501 -0.00000000000E+00  0.00000000000E+00  0.28619003440E+02  0.28619003440E+02  0.00000000000E+00 0.  1.
          1   -1    0    0  501    0  0.00000000000E+00 -0.00000000000E+00 -0.52384627636E+03  0.52384627636E+03  0.00000000000E+00 0. -1.
         23    2    1    2    0    0  0.53284700628E+02 -0.19532961488E+02 -0.19144314955E+03  0.21906913861E+03  0.90111109604E+02 0.  0.
         23    2    1    2    0    0 -0.53284700628E+02  0.19532961488E+02 -0.30378412337E+03  0.33339614119E+03  0.12508955771E+03 0.  0.
          5    1    4    4  502    0 -0.28692429311E+02  0.72138356218E+02 -0.19671372814E+03  0.21152059280E+03  0.41800000000E+01 0.  1.
         -5    1    4    4    0  502 -0.24592271316E+02 -0.52605394730E+02 -0.10707039522E+03  0.12187554839E+03  0.41800000000E+01 0.  1.
        -11    1    3    3    0    0  0.16691589494E+02 -0.31030892417E+02 -0.14644322358E+02  0.38157327230E+02  0.00000000000E+00 0.  1.
         11    1    3    3    0    0  0.36593111133E+02  0.11497930930E+02 -0.17679882720E+03  0.18091181138E+03  0.00000000000E+00 0. -1.
</event>
<event>
 8    1  0.5900800E-006  0.6243054E+02  0.7561462E-02  0.1387906E+00
         -1   -1    0    0    0  501 -0.00000000000E+00  0.00000000000E+00  0.45828589541E+03  0.45828589541E+03  0.00000000000E+00 0.  1.
          1   -1    0    0  501    0  0.00000000000E+00 -0.00000000000E+00 -0.20504522024E+02  0.20504522024E+02  0.00000000000E+00 0. -1.
         23    2    1    2    0    0  0.12298076291E+01  0.21109306815E+02  0.15098430873E+03  0.16519219002E+03  0.63600966176E+02 0.  0.
         23    2    1    2    0    0 -0.12298076291E+01 -0.21109306815E+02  0.28679706465E+03  0.31359822742E+03  0.12507668321E+03 0.  0.
          5    1    4    4  502    0  0.21461712414E+02  0.61429425504E+01 -0.18165541252E+01  0.22784053893E+02  0.41800000000E+01 0.  1.
         -5    1    4    4    0  502 -0.22691520043E+02 -0.27252249366E+02  0.28861361878E+03  0.29081417352E+03  0.41800000000E+01 0.  1.
        -11    1    3    3    0    0 -0.99741954097E+01 -0.20796050663E+02  0.42458288101E+02  0.48318387036E+02  0.00000000000E+00 0. -1.
         11    1    3    3    0    0  0.11204003039E+02  0.41905357478E+02  0.10852602063E+03  0.11687380298E+03  0.00000000000E+00 0.  1.
</event>
<event>
 8    1  0.5900800E-006  0.1602657E+03  0.7561462E-02  0.1188397E+00
         -1   -1    0    0    0  501 -0.00000000000E+00  0.00000000000E+00  0.24102384820E+02  0.24102384820E+02  0.00000000000E+00 0.  1.
          1   -1    0    0  501    0  0.00000000000E+00 -0.00000000000E+00 -0.15207895325E+04  0.15207895325E+04  0.00000000000E+00 0. -1.
         23    2    1    2    0    0 -0.13031344962E+03  0.76011863164E+02 -0.52565304763E+03  0.55427907904E+03  0.90303778885E+02 0.  0.
         23    2    1    2    0    0  0.13031344962E+03 -0.76011863164E+02 -0.97103410006E+03  0.99061283830E+03  0.12508866223E+03 0.  0.
          5    1    4    4  502    0  0.12544273017E+03 -0.56392977882E+02 -0.48502085113E+03  0.50416142746E+03  0.41800000000E+01 0. -1.
         -5    1    4    4    0  502  0.48707194518E+01 -0.19618885282E+02 -0.48601324894E+03  0.48645141084E+03  0.41800000000E+01 0. -1.
        -11    1    3    3    0    0 -0.10245842304E+03  0.27065691725E+02 -0.22905379583E+03  0.25238050935E+03  0.00000000000E+00 0.  1.
         11    1    3    3    0    0 -0.27855026580E+02  0.48946171439E+02 -0.29659925181E+03  0.30189856969E+03  0.00000000000E+00 0. -1.
</event>
<event>
 8    1  0.5900800E-006  0.1667995E+03  0.7561462E-02  0.1181227E+00
         -2   -1    0    0    0  501 -0.00000000000E+00  0.00000000000E+00  0.10166374937E+03  0.10166374937E+03  0.00000000000E+00 0.  1.
          2   -1    0    0  501    0  0.00000000000E+00 -0.00000000000E+00 -0.35488918042E+03  0.35488918042E+03  0.00000000000E+00 0. -1.
         23    2    1    2    0    0  0.15415538502E+03 -0.12142772438E+02 -0.96286029137E+02  0.20321360142E+03  0.90074628749E+02 0.  0.
         23    2    1    2    0    0 -0.15415538502E+03  0.12142772438E+02 -0.15693940192E+03  0.25333932837E+03  0.12505802562E+03 0.  0.
          5    1    4    4  502    0 -0.54656478265E+02 -0.38006060275E+02 -0.11741789339E+03  0.13504156887E+03  0.41800000000E+01 0. -1.
         -5    1    4    4    0  502 -0.99498906752E+02  0.50148832713E+02 -0.39521508528E+02  0.11829775950E+03  0.41800000000E+01 0. -1.
        -11    1    3    3    0    0  0.26498659203E+02 -0.79675542712E+01 -0.66549288834E+02  0.72072662674E+02  0.00000000000E+00 0. -1.
         11    1    3    3    0    0  0.12765672581E+03 -0.41752181668E+01 -0.29736740304E+02  0.13114093875E+03  0.00000000000E+00 0.  1.
</event>
<event>
 8    1  0.5900800E-006  0.1400257E+03  0.7561462E-02  0.1213294E+00
         -1   -1    0    0    0  501 -0.00000000000E+00  0.00000000000E+00  0.53255393650E+02  0.53255393650E+02  0.00000000000E+00 0.  1.
          1   -1    0    0  501    0  0.00000000000E+00 -0.00000000000E+00 -0.72417866976E+03  0.72417866976E+03  0.00000000000E+00 0. -1.
         23    2    1    2    0    0 -0.12586313128E+03  0.34385820700E+02 -0.12466289527E+03  0.20204089118E+03  0.90861277608E+02 0.  0.
         23    2    1    2    0    0  0.12586313128E+03 -0.34385820700E+02 -0.54626038084E+03  0.57539317224E+03  0.12511189590E+03 0.  0.
          5    1    4    4  502    0  0.77159145819E+02 -0.53672450406E+02 -0.16028997947E+03  0.18586181866E+03  0.41800000000E+01 0. -1.
         -5    1    4    4    0  502  0.48703985465E+02  0.19286629706E+02 -0.38597040137E+03  0.38953135358E+03  0.41800000000E+01 0. -1.
        -11    1    3    3    0    0 -0.87550364185E+02  0.10279144000E+02 -0.12935147053E+03  0.15653284000E+03  0.00000000000E+00 0. -1.
         11    1    3    3    0    0 -0.38312767099E+02  0.24106676700E+02  0.46885752553E+01  0.45508051180E+02  0.00000000000E+00 0.  1.
</event>
<event>
 8    1  0.5900800E-006  0.1336756E+03  0.7561462E-02  0.1222101E+00
         -1   -1    0    0    0  501 -0.00000000000E+00  0.00000000000E+00  0.12468923025E+03  0.12468923025E+03  0.00000000000E+00 0.  1.
          1   -1    0    0  501    0  0.00000000000E+00 -0.00000000000E+00 -0.26879365932E+03  0.26879365932E+03  0.00000000000E+00 0. -1.
         23    2    1    2    0    0  0.52057875758E+01 -0.77968612354E+02  0.65541693227E+02  0.13715103288E+03  0.91697805494E+02 0.  0.
         23    2    1    2    0    0 -0.52057875758E+01  0.77968612354E+02 -0.20964612230E+03  0.25633185669E+03  0.12509324292E+03 0.  0.
          5    1    4    4  502    0  0.46477774438E+02  0.82587822690E+02 -0.12428918934E+03  0.15635282844E+03  0.41800000000E+01 0.  1.
         -5    1    4    4    0  502 -0.51683562013E+02 -0.46192103366E+01 -0.85356932960E+02  0.99979028255E+02  0.41800000000E+01 0.  1.
        -11    1    3    3    0    0  0.48136743024E+02 -0.48698671834E+02  0.39081136585E+02  0.78841879126E+02  0.00000000000E+00 0. -1.
         11    1    3    3    0    0 -0.42930955448E+02 -0.29269940519E+02  0.26460556642E+02  0.58309153754E+02  0.00000000000E+00 0.  1.
</event>
<event>
 8    1  0.5900800E-006  0.1104801E+03  0.7561462E-02  0.1259683E+00
          2   -1    0    0  501    0  0.00000000000E+00  0.00000000000E+00  0.12628478040E+03  0.12628478040E+03  0.00000000000E+00 0. -1.
         -2   -1    0    0    0  501 -0.00000000000E+00 -0.00000000000E+00 -0.13872331035E+03  0.13872331035E+03  0.00000000000E+00 0.  1.
         23    2    1    2    0    0  0.54208378317E+02  0.44935225062E+02 -0.38186730751E+02  0.11917163030E+03  0.88237907565E+02 0.  0.
         23    2    1    2    0    0 -0.54208378317E+02 -0.44935225062E+02  0.25748200800E+02  0.14583646045E+03  0.12509028987E+03 0.  0.
          5    1    4    4  502    0 -0.50155592258E+02  0.11340347177E+02 -0.35370483300E+02  0.62551821698E+02  0.41800000000E+01 0. -1.
         -5    1    4    4    0  502 -0.40527860593E+01 -0.56275572240E+02  0.61118684100E+02  0.83284638751E+02  0.41800000000E+01 0. -1.
        -11    1    3    3    0    0 -0.83406999904E+01  0.49386451417E+02 -0.19385337660E+02  0.53706425836E+02  0.00000000000E+00 0.  1.
         11    1    3    3    0    0  0.62549078308E+02 -0.44512263549E+01 -0.18801393092E+02  0.65465204463E+02  0.00000000000E+00 0. -1.
</event>
<event>
 8    1  0.5900800E-006  0.1478256E+03  0.7561462E-02  0.1203171E+00
          3   -1    0    0  501    0  0.00000000000E+00  0.00000000000E+00  0.17178841754E+04  0.17178841754E+04  0.00000000000E+00 0. -1.
         -3   -1    0    0    0  501 -0.00000000000E+00 -0.00000000000E+00 -0.15523839998E+02  0.15523839998E+02  0.00000000000E+00 0.  1.
         23    2    1    2    0    0 -0.61099592901E+02 -0.82442757065E+02  0.48563427137E+03  0.50597212978E+03  0.98169150647E+02 0.  0.
         23    2    1    2    0    0  0.61099592901E+02  0.82442757065E+02  0.12167260640E+04  0.12274358856E+04  0.12508625011E+03 0.  0.
          5    1    4    4  502    0  0.89164307813E+02  0.90172837824E+02  0.83575933689E+03  0.84533576528E+03  0.41800000000E+01 0. -1.
         -5    1    4    4    0  502 -0.28064714912E+02 -0.77300807590E+01  0.38096672711E+03  0.38210012030E+03  0.41800000000E+01 0. -1.
        -11    1    3    3    0    0  0.80005937611E+01 -0.68377745853E+02  0.19137048380E+03  0.20337695960E+03  0.00000000000E+00 0. -1.
         11    1    3    3    0    0 -0.69100186662E+02 -0.14065011212E+02  0.29426378758E+03  0.30259517018E+03  0.00000000000E+00 0.  1.
</event>
<event>
 8    1  0.5900800E-006  0.1285491E+03  0.7561462E-02  0.1229625E+00
          3   -1    0    0  501    0  0.00000000000E+00  0.00000000000E+00  0.13160964334E+03  0.13160964334E+03  0.00000000000E+00 0. -1.
         -3   -1    0    0    0  501 -0.00000000000E+00 -0.00000000000E+00 -0.19004330227E+03  0.19004330227E+03  0.00000000000E+00 0.  1.
         23    2    1    2    0    0  0.10307733737E+03  0.20410079871E+02 -0.73446053372E+02  0.15759625796E+03  0.91655599542E+02 0.  0.
         23    2    1    2    0    0 -0.10307733737E+03 -0.20410079871E+02  0.15012394448E+02  0.16405668765E+03  0.12509083075E+03 0.  0.
          5    1    4    4  502    0 -0.10564592373E+03  0.41976629512E+01  0.53145521415E+02  0.11840861633E+03  0.41800000000E+01 0. -1.
         -5    1    4    4    0  502  0.25685863650E+01 -0.24607742822E+02 -0.38133126967E+02  0.45648071317E+02  0.41800000000E+01 0. -1.
        -11    1    3    3    0    0  0.96158188067E+02 -0.84382710060E+01 -0.82070985111E+02  0.12670141336E+03  0.00000000000E+00 0.  1.
         11    1    3    3    0    0  0.69191493008E+01  0.28848350877E+02  0.86249317391E+01  0.30894844600E+02  0.00000000000E+00 0. -1.
</event>
<event>
 8    1  0.5900800E-006  0.8625733E+02  0.7561462E-02  0.1312177E+00
          2   -1    0    0  501    0  0.00000000000E+00  0.00000000000E+00  0.74428008719E+03  0.74428008719E+03  0.00000000000E+00 0. -1.
         -2   -1    0    0    0  501 -0.00000000000E+00 -0.00000000000E+00 -0.29147313919E+02  0.29147313919E+02  0.00000000000E+00 0.  1.
         23    2    1    2    0    0  0.18426019908E+02  0.18070630446E+02  0.64640169950E+02  0.11301400926E+03  0.89037906665E+02 0.  0.
         23    2    1    2    0    0 -0.18426019908E+02 -0.18070630446E+02  0.65049260332E+03  0.66041339185E+03  0.11108175037E+03 0.  0.
          5    1    4    4  502    0 -0.58116863784E+02  0.36641054635E+01  0.49454468407E+03  0.49797882733E+03  0.41800000000E+01 0. -1.
         -5    1    4    4    0  502  0.39690843876E+02 -0.21734735910E+02  0.15594791925E+03  0.16243456452E+03  0.41800000000E+01 0.  1.
        -11    1    3    3    0    0  0.18092387231E+02 -0.22074330227E+02 -0.83273877000E+01  0.29731396142E+02  0.00000000000E+00 0.  1.
         11    1    3    3    0    0  0.33363267727E+00  0.40144960673E+02  0.72967557650E+02  0.83282613117E+02  0.00000000000E+00 0. -1.
</event>
<event>
 8    1  0.5900800E-006  0.9949950E+02  0.7561462E-02  0.1281352E+00
         -3   -1    0    0    0  501 -0.00000000000E+00  0.00000000000E+00  0.13734528051E+03  0.13734528051E+03  0.00000000000E+00 0.  1.
          3   -1    0    0  501    0  0.00000000000E+00 -0.00000000000E+00 -0.11034142974E+03  0.11034142974E+03  0.00000000000E+00 0. -1.
         23    2    1    2    0    0 -0.13500896873E+02  0.48704016362E+02  0.48832761130E+02  0.11101718688E+03  0.85940804025E+02 0.  0.
         23    2    1    2    0    0  0.13500896873E+02 -0.48704016362E+02 -0.21828910356E+02  0.13666952337E+03  0.12509077450E+03 0.  0.
          5    1    4    4  502    0  0.46107227501E+02  0.21998891792E+02 -0.28085654182E+02  0.58447446811E+02  0.41800000000E+01 0. -1.
         -5    1    4    4    0  502 -0.32606330628E+02 -0.70702908154E+02  0.62567438261E+01  0.78222076563E+02  0.41800000000E+01 0. -1.
        -11    1    3    3    0    0 -0.46840596750E+01 -0.96644454704E+01 -0.18549929689E+02  0.21434593832E+02  0.00000000000E+00 0. -1.
         11    1    3    3    0    0 -0.88168371981E+01  0.58368461832E+02  0.67382690819E+02  0.89582593046E+02  0.00000000000E+00 0.  1.
</event>
<event>
 8    1  0.5900800E-006  0.6788560E+02  0.7561462E-02  0.1367434E+00
         -4   -1    0    0    0  501 -0.00000000000E+00  0.00000000000E+00  0.53428008346E+03  0.53428008346E+03  0.00000000000E+00 0.  1.
          4   -1    0    0  501    0  0.00000000000E+00 -0.00000000000E+00 -0.26181748427E+02  0.26181748427E+02  0.00000000000E+00 0. -1.
         23    2    1    2    0    0  0.11596215320E+02  0.30249016748E+01  0.33331257779E+03  0.34519162844E+03  0.88973948935E+02 0.  0.
         23    2    1    2    0    0 -0.11596215320E+02 -0.30249016748E+01  0.17478575724E+03  0.21527020345E+03  0.12509027668E+03 0.  0.
          5    1    4    4  502    0  0.46681600147E-01 -0.23031733823E+02 -0.12483987466E+02  0.26528951828E+02  0.41800000000E+01 0.  1.
         -5    1    4    4    0  502 -0.11642896920E+02  0.20006832148E+02  0.18726974470E+03  0.18874125162E+03  0.41800000000E+01 0.  1.
        -11    1    3    3    0    0 -0.37764202800E+02  0.98065121234E+01  0.17148884293E+03  0.17587133349E+03  0.00000000000E+00 0.  1.
         11    1    3    3    0    0  0.49360418120E+02 -0.67816104486E+01  0.16182373486E+03  0.16932029495E+03  0.00000000000E+00 0. -1.
</event>
<event>
 7    1  0.5900800E-006  0.1361713E+03  0.7561462E-02  0.1218576E+00
          3   -1    0    0  501    0  0.00000000000E+00  0.00000000000E+00  0.20969087642E+03  0.20969087642E+03  0.00000000000E+00 0. -1.
         -3   -1    0    0    0  501 -0.00000000000E+00 -0.00000000000E+00 -0.10556978088E+03  0.10556978088E+03  0.00000000000E+00 0.  1.
         23    2    1    2    0    0  0.84632964275E+02 -0.59369938995E+01  0.37240728957E+02  0.13025542342E+03  0.91551170922E+02 0.  0.
          5    1    1    2  502    0 -0.16202269997E+02  0.59399522205E+02  0.75646164957E+02  0.97624953080E+02  0.41800000000E+01 0. -1.
         -5    1    1    2    0  502 -0.68430694278E+02 -0.53462528306E+02 -0.87657983715E+01  0.87380280803E+02  0.41800000000E+01 0.  1.
        -11    1    3    3    0    0 -0.19448126195E+02 -0.12533302057E+00 -0.32161328686E+00  0.19451189063E+02  0.00000000000E+00 0.  1.
         11    1    3    3    0    0  0.10408109047E+03 -0.58116608790E+01  0.37562342244E+02  0.11080423435E+03  0.00000000000E+00 0. -1.
</event>
<event>
 8    1  0.5900800E-006  0.1136412E+03  0.7561462E-02  0.1253972E+00
          1   -1    0    0  501    0  0.00000000000E+00  0.00000000000E+00  0.66740850036E+03  0.66740850036E+03  0.00000000000E+00 0. -1.
         -1   -1    0    0    0  501 -0.00000000000E+00 -0.00000000000E+00 -0.30855740560E+02  0.30855740560E+02  0.00000000000E+00 0.  1.
         23    2    1    2    0    0 -0.52083503582E+02 -0.72380052956E+02  0.22057494359E+03  0.25482749359E+03  0.91280788436E+02 0.  0.
         23    2    1    2    0    0  0.52083503582E+02  0.72380052956E+02  0.41597781621E+03  0.44343674733E+03  0.12508813650E+03 0.  0.
          5    1    4    4  502    0  0.39312410057E+02 -0.14061329425E+02  0.27009852007E+03  0.27333837914E+03  0.41800000000E+01 0.  1.
         -5    1    4    4    0  502  0.12771093525E+02  0.86441382381E+02  0.14587929615E+03  0.17009836819E+03  0.41800000000E+01 0.  1.
        -11    1    3    3    0    0  0.11901779372E+01 -0.29315686711E+02  0.16218157180E+03  0.16481410208E+03  0.00000000000E+00 0.  1.
         11    1    3    3    0    0 -0.53273681519E+02 -0.43064366245E+02  0.58393371786E+02  0.90013391511E+02  0.00000000000E+00 0. -1.
</event>
<event>
 8    1  0.5900800E-006  0.3379068E+03  0.7561462E-02  0.1067691E+00
         -2   -1    0    0    0  501 -0.00000000000E+00  0.00000000000E+00  0.15225737581E+03  0.15225737581E+03  0.00000000000E+00 0.  1.
          2   -1    0    0  501    0  0.00000000000E+00 -0.00000000000E+00 -0.89292507680E+03  0.89292507680E+03  0.00000000000E+00 0. -1.
         23    2    1    2    0    0  0.25526347383E+02  0.33383375417E+03 -0.21063963596E+03  0.40590616381E+03  0.91072431351E+02 0.  0.
         23    2    1    2    0    0 -0.25526347383E+02 -0.33383375417E+03 -0.53002806504E+03  0.63927628879E+03  0.12509138202E+03 0.  0.
          5    1    4    4  502    0 -0.18438870255E+01 -0.19172922682E+03 -0.19000064762E+03  0.26996521041E+03  0.41800000000E+01 0. -1.
         -5    1    4    4    0  502 -0.23682460358E+02 -0.14210452735E+03 -0.34002741741E+03  0.36931107838E+03  0.41800000000E+01 0. -1.
        -11    1    3    3    0    0 -0.19188678844E+02  0.94075286454E+02 -0.24475989080E+02  0.99082990259E+02  0.00000000000E+00 0.  1.
         11    1    3    3    0    0  0.44715026227E+02  0.23975846772E+03 -0.18616364688E+03  0.30682317356E+03  0.00000000000E+00 0. -1.
</event>
<event>
 7    1  0.5900800E-006  0.1431309E+03  0.7561462E-02  0.1209177E+00
         -1   -1    0    0    0  501 -0.00000000000E+00  0.00000000000E+00  0.37049926910E+02  0.37049926910E+02  0.00000000000E+00 0.  1.
          1   -1    0    0  501    0  0.00000000000E+00 -0.00000000000E+00 -0.67457830580E+03  0.67457830580E+03  0.00000000000E+00 0. -1.
         23    2    1    2    0    0  0.23218961444E+02  0.32747640448E+02 -0.10900543806E+03  0.14433689308E+03  0.85670444452E+02 0.  0.
          5    1    1    2  502    0 -0.99240367032E+02  0.33522413221E+02 -0.25288018378E+03  0.27374853860E+03  0.41800000000E+01 0. -1.
         -5    1    1    2    0  502  0.76021405588E+02 -0.66270053669E+02 -0.27564275706E+03  0.29354280104E+03  0.41800000000E+01 0.  1.
        -11    1    3    3    0    0 -0.22237563665E+02  0.26521215030E+02 -0.86635406516E+02  0.93292967295E+02  0.00000000000E+00 0. -1.
         11    1    3    3    0    0  0.45456525109E+02  0.62264254184E+01 -0.22370031541E+02  0.51043925786E+02  0.00000000000E+00 0.  1.
</event>
<event>
 8    1  0.5900800E-006  0.1030972E+03  0.7561462E-02  0.1273915E+00
         -2   -1    0    0    0  501 -0.00000000000E+00  0.00000000000E+00  0.47582904864E+02  0.47582904864E+02  0.00000000000E+00 0. -1.
          2   -1    0    0  501    0  0.00000000000E+00 -0.00000000000E+00 -0.40232408564E+03  0.40232408564E+03  0.00000000000E+00 0.  1.
         23    2    1    2    0    0 -0.80936896282E+02 -0.28233055299E+02 -0.15769346774E+03  0.20126481758E+03  0.91062673124E+02 0.  0.
         23    2    1    2    0    0  0.80936896282E+02  0.28233055299E+02 -0.19704771304E+03  0.24864217293E+03  0.12508893777E+03 0.  0.
          5    1    4    4  502    0  0.80242785777E+02  0.30407244963E+02 -0.21422856290E+03  0.23081346316E+03  0.41800000000E+01 0. -1.
         -5    1    4    4    0  502  0.69411050516E+00 -0.21741896646E+01  0.17180849858E+02  0.17828709766E+02  0.41800000000E+01 0. -1.
        -11    1    3    3    0    0 -0.71881757145E+02  0.13221225114E+02 -0.59322316019E+02  0.94132486325E+02  0.00000000000E+00 0. -1.
         11    1    3    3    0    0 -0.90551391368E+01 -0.41454280413E+02 -0.98371151721E+02  0.10713233126E+03  0.00000000000E+00 0.  1.
</event>
<event>
 8    1  0.5900800E-006  0.1094763E+03  0.7561462E-02  0.1261543E+00
         -2   -1    0    0    0  501 -0.00000000000E+00  0.00000000000E+00  0.23762284913E+03  0.23762284913E+03  0.00000000000E+00 0.  1.
          2   -1    0    0  501    0  0.00000000000E+00 -0.00000000000E+00 -0.63929133782E+02  0.63929133782E+02  0.00000000000E+00 0. -1.
         23    2    1    2    0    0  0.31399792907E+02  0.29385231097E+02  0.11651642483E+03  0.15744995696E+03  0.96772790024E+02 0.  0.
         23    2    1    2    0    0 -0.31399792907E+02 -0.29385231097E+02  0.57177290513E+02  0.14410202595E+03  0.12508681998E+03 0.  0.
          5    1    4    4  502    0 -0.73906798785E+02 -0.43950022152E+02  0.28727066379E+02  0.90755364010E+02  0.41800000000E+01 0. -1.
         -5    1    4    4    0  502  0.42507005878E+02  0.14564791055E+02  0.28450224134E+02  0.53346661943E+02  0.41800000000E+01 0. -1.
        -11    1    3    3    0    0  0.22886136203E+02  0.55625662070E+02  0.11504898963E+03  0.12982395591E+03  0.00000000000E+00 0.  1.
         11    1    3    3    0    0  0.85136567039E+01 -0.26240430973E+02  0.14674351989E+01  0.27626001053E+02  0.00000000000E+00 0. -1.
</event>
<event>
 8    1  0.5900800E-006  0.1509689E+03  0.7561462E-02  0.1199287E+00
         -1   -1    0    0    0  501 -0.00000000000E+00  0.00000000000E+00  0.21200287796E+02  0.21200287796E+02  0.00000000000E+00 0. -1.
          1   -1    0    0  501    0  0.00000000000E+00 -0.00000000000E+00 -0.10959045533E+04  0.10959045533E+04  0.00000000000E+00 0.  1.
         23    2    1    2    0    0 -0.30195595595E+02  0.10225779784E+03 -0.47571569947E+03  0.49597459250E+03  0.91197250349E+02 0.  0.
         23    2    1    2    0    0  0.30195595595E+02 -0.10225779784E+03 -0.59898856606E+03  0.62113024862E+03  0.12508817799E+03 0.  0.
          5    1    4    4  502    0  0.54953387111E+00 -0.12600155794E+03 -0.45131256657E+03  0.46859065263E+03  0.41800000000E+01 0. -1.
         -5    1    4    4    0  502  0.29646061724E+02  0.23743760105E+02 -0.14767599949E+03  0.15253959599E+03  0.41800000000E+01 0. -1.
        -11    1    3    3    0    0 -0.58181098552E+02  0.43740483106E+02 -0.20314111878E+03  0.21578828566E+03  0.00000000000E+00 0.  1.
         11    1    3    3    0    0  0.27985502958E+02  0.58517314730E+02 -0.27257458070E+03  0.28018630684E+03  0.00000000000E+00 0. -1.
</event>
<event>
 8    1  0.5900800E-006  0.1133482E+03  0.7561462E-02  0.1254492E+00
          2   -1    0    0  501    0  0.00000000000E+00  0.00000000000E+00  0.23429774607E+03  0.23429774607E+03  0.00000000000E+00 0. -1.
         -2   -1    0    0    0  501 -0.00000000000E+00 -0.00000000000E+00 -0.56475930088E+02  0.56475930088E+02  0.00000000000E+00 0.  1.
         23    2    1    2    0    0 -0.40678705160E+02 -0.12975116526E+02  0.65273606032E+02  0.11718694259E+03  0.87458705494E+02 0.  0.
         23    2    1    2    0    0  0.40678705160E+02  0.12975116526E+02  0.11254820995E+03  0.17358673357E+03  0.12506855642E+03 0.  0.
          5    1    4    4  502    0  0.84142902767E+02  0.17456889096E+02  0.88950621225E+02  0.12375159183E+03  0.41800000000E+01 0. -1.
         -5    1    4    4    0  502 -0.43464197608E+02 -0.44817725703E+01  0.23597588730E+02  0.49835141747E+02  0.41800000000E+01 0. -1.
        -11    1    3    3    0    0 -0.48795299998E+02 -0.43383760013E+02  0.38032471573E+02  0.75561900643E+02  0.00000000000E+00 0. -1.
         11    1    3    3    0    0  0.81165948384E+01  0.30408643487E+02  0.27241134459E+02  0.41625041947E+02  0.00000000000E+00 0.  1.
</event>
<event>
 8    1  0.5900800E-006  0.9208157E+02  0.7561462E-02  0.1297888E+00
         -1   -1    0    0    0  501 -0.00000000000E+00  0.00000000000E+00  0.11321361844E+03  0.11321361844E+03  0.00000000000E+00 0.  1.
          1   -1    0    0  501    0  0.00000000000E+00 -0.00000000000E+00 -0.14247551172E+03  0.14247551172E+03  0.00000000000E+00 0. -1.
         23    2    1    2    0    0 -0.63661692155E+02  0.19866385539E+02 -0.33083656539E+02  0.11388174063E+03  0.86180265708E+02 0.  0.
         23    2    1    2    0    0  0.63661692155E+02 -0.19866385539E+02  0.38217632569E+01  0.14180738953E+03  0.12508895046E+03 0.  0.
          5    1    4    4  502    0  0.66480368139E+02  0.86498291244E+01 -0.47920705076E+02  0.82512576416E+02  0.41800000000E+01 0.  1.
         -5    1    4    4    0  502 -0.28186759842E+01 -0.28516214664E+02  0.51742468333E+02  0.59294813114E+02  0.41800000000E+01 0.  1.
        -11    1    3    3    0    0 -0.56872179233E+02  0.38181866247E+02 -0.52526641474E+02  0.86321189434E+02  0.00000000000E+00 0. -1.
         11    1    3    3    0    0 -0.67895129222E+01 -0.18315480708E+02  0.19442984935E+02  0.27560551200E+02  0.00000000000E+00 0.  1.
</event>
<event>
 8    1  0.5900800E-006  0.1163868E+03  0.7561462E-02  0.1249180E+00
          3   -1    0    0  501    0  0.00000000000E+00  0.00000000000E+00  0.34226701468E+02  0.34226701468E+02  0.00000000000E+00 0. -1.
         -3   -1    0    0    0  501 -0.00000000000E+00 -0.00000000000E+00 -0.44848988490E+03  0.44848988490E+03  0.00000000000E+00 0.  1.
         23    2    1    2    0    0 -0.13731950735E+02 -0.58190069551E+02 -0.19911125717E+03  0.22678445290E+03  0.90615918484E+02 0.  0.
         23    2    1    2    0    0  0.13731950735E+02  0.58190069551E+02 -0.21515192627E+03  0.25593213347E+03  0.12504501149E+03 0.  0.
          5    1    4    4  502    0 -0.28308770010E+02  0.84221610216E+02 -0.13557080879E+03  0.16214679362E+03  0.41800000000E+01 0.  1.
         -5    1    4    4    0  502  0.42040720745E+02 -0.26031540665E+02 -0.79581117482E+02  0.93785339845E+02  0.41800000000E+01 0.  1.
        -11    1    3    3    0    0  0.30166053238E+02 -0.24578497400E+02 -0.14224652550E+03  0.14747259854E+03  0.00000000000E+00 0.  1.
         11    1    3    3    0    0 -0.43898003973E+02 -0.33611572151E+02 -0.56864731663E+02  0.79311854362E+02  0.00000000000E+00 0. -1.
</event>
<event>
 8    1  0.5900800E-006  0.9399886E+02  0.7561462E-02  0.1293447E+00
         -1   -1    0    0    0  501 -0.00000000000E+00  0.00000000000E+00  0.26348606527E+02  0.26348606527E+02  0.00000000000E+00 0.  1.
          1   -1    0    0  501    0  0.00000000000E+00 -0.00000000000E+00 -0.52877096989E+03  0.52877096989E+03  0.00000000000E+00 0. -1.
         23    2    1    2    0    0 -0.24401333194E+02 -0.32302704768E+02 -0.19026576218E+03  0.21640393227E+03  0.94819364312E+02 0.  0.
         23    2    1    2    0    0  0.24401333194E+02  0.32302704768E+02 -0.31215660118E+03  0.33871564414E+03  0.12509058369E+03 0.  0.
          5    1    4    4  502    0 -0.37598555086E+02  0.52963453088E+02 -0.13575507917E+03  0.15055129567E+03  0.41800000000E+01 0.  1.
         -5    1    4    4    0  502  0.61999888279E+02 -0.20660748320E+02 -0.17640152201E+03  0.18816434847E+03  0.41800000000E+01 0.  1.
        -11    1    3    3    0    0 -0.17232645107E+02  0.61602599141E+01  0.35813743762E+01  0.18647763995E+02  0.00000000000E+00 0.  1.
         11    1    3    3    0    0 -0.71686880865E+01 -0.38462964682E+02 -0.19384713656E+03  0.19775616828E+03  0.00000000000E+00 0. -1.
</event>
<event>
 8    1  0.5900800E-006  0.2405571E+03  0.7561462E-02  0.1119422E+00
          1   -1    0    0  501    0  0.00000000000E+00  0.00000000000E+00  0.17371055052E+03  0.17371055052E+03  0.00000000000E+00 0. -1.
         -1   -1    0    0    0  501 -0.00000000000E+00 -0.00000000000E+00 -0.54715840290E+03  0.54715840290E+03  0.00000000000E+00 0.  1.
         23    2    1    2    0    0 -0.13078645443E+03 -0.17947876447E+03 -0.39737401007E+03  0.46430863892E+03  0.91425842860E+02 0.  0.
         23    2    1    2    0    0  0.13078645443E+03  0.17947876447E+03  0.23926157683E+02  0.25656031449E+03  0.12622602897E+03 0.  0.
          5    1    4    4  502    0  0.99054514679E+02  0.18956128439E+03  0.42651366932E+02  0.21813273234E+03  0.41800000000E+01 0. -1.
         -5    1    4    4    0  502  0.31731939755E+02 -0.10082519914E+02 -0.18725209249E+02  0.38427582149E+02  0.41800000000E+01 0. -1.
        -11    1    3    3    0    0  0.73616744114E+00 -0.46831542649E+02 -0.12971426606E+03  0.13791129812E+03  0.00000000000E+00 0. -1.
         11    1    3    3    0    0 -0.13152262188E+03 -0.13264722182E+03 -0.26765974400E+03  0.32639734080E+03  0.00000000000E+00 0.  1.
</event>
<event>
 8    1  0.5900800E-006  0.1237974E+03  0.7561462E-02  0.1236961E+00
         -2   -1    0    0    0  501 -0.00000000000E+00  0.00000000000E+00  0.18643110736E+02  0.18643110736E+02  0.00000000000E+00 0.  1.
          2   -1    0    0  501    0  0.00000000000E+00 -0.00000000000E+00 -0.83491407028E+03  0.83491407028E+03  0.00000000000E+00 0. -1.
         23    2    1    2    0    0 -0.45322864988E+02 -0.47911595192E+02 -0.39818131088E+03  0.41219952226E+03  0.83728171952E+02 0.  0.
         23    2    1    2    0    0  0.45322864988E+02  0.47911595192E+02 -0.41808964867E+03  0.44135765875E+03  0.12509174862E+03 0.  0.
          5    1    4    4  502    0  0.92029127875E+01 -0.42604542395E+02 -0.13646126512E+03  0.14331430464E+03  0.41800000000E+01 0. -1.
         -5    1    4    4    0  502  0.36119952200E+02  0.90516137587E+02 -0.28162838355E+03  0.29804335412E+03  0.41800000000E+01 0. -1.
        -11    1    3    3    0    0 -0.11799537088E+02 -0.66765326332E+02 -0.26912610684E+03  0.27753504150E+03  0.00000000000E+00 0. -1.
         11    1    3    3    0    0 -0.33523327899E+02  0.18853731139E+02 -0.12905520403E+03  0.13466448076E+03  0.00000000000E+00 0.  1.
</event>
<event>
 8    1  0.5900800E-006  0.1179611E+03  0.7561462E-02  0.1246499E+00
          1   -1    0    0  501    0  0.00000000000E+00  0.00000000000E+00  0.75861270217E+02  0.75861270217E+02  0.00000000000E+00 0. -1.
         -1   -1    0    0    0  501 -0.00000000000E+00 -0.00000000000E+00 -0.28464931869E+03  0.28464931869E+03  0.00000000000E+00 0.  1.
         23    2    1    2    0    0 -0.17403062662E+02  0.47282773180E+02 -0.19904871317E+03  0.22530406997E+03  0.92752393511E+02 0.  0.
         23    2    1    2    0    0  0.17403062662E+02 -0.47282773180E+02 -0.97393353032E+01  0.13520651893E+03  0.12508965137E+03 0.  0.
          5    1    4    4  502    0  0.55094966317E+02 -0.70375006658E+02  0.11856633021E+01  0.89481702449E+02  0.41800000000E+01 0. -1.
         -5    1    4    4    0  502 -0.37691903655E+02  0.23092233478E+02 -0.10924998605E+02  0.45724816486E+02  0.41800000000E+01 0. -1.
        -11    1    3    3    0    0 -0.36949174289E+02 -0.12613590501E+02 -0.10572123028E+03  0.11270014498E+03  0.00000000000E+00 0.  1.
         11    1    3    3    0    0  0.19546111627E+02  0.59896363680E+02 -0.93327482895E+02  0.11260392500E+03  0.00000000000E+00 0. -1.
</event>
<event>
 8    1  0.5900800E-006  0.1178411E+03  0.7561462E-02  0.1246702E+00
         -2   -1    0    0    0  501 -0.00000000000E+00  0.00000000000E+00  0.42242830804E+02  0.42242830804E+02  0.00000000000E+00 0.  1.
          2   -1    0    0  501    0  0.00000000000E+00 -0.00000000000E+00 -0.61249004516E+03  0.61249004516E+03  0.00000000000E+00 0. -1.
         23    2    1    2    0    0  0.62247954234E+02 -0.82393867599E+02 -0.10583178909E+03  0.16280628587E+03  0.68131944882E+02 0.  0.
         23    2    1    2    0    0 -0.62247954234E+02  0.82393867599E+02 -0.46441542526E+03  0.49192659009E+03  0.12508607273E+03 0.  0.
          5    1    4    4  502    0  0.82662404155E+00  0.30315826954E+02 -0.34935130465E+03  0.35069008987E+03  0.41800000000E+01 0. -1.
         -5    1    4    4    0  502 -0.63074578276E+02  0.52078040645E+02 -0.11506412061E+03  0.14123650022E+03  0.41800000000E+01 0. -1.
        -11    1    3    3    0    0  0.51584999088E+02 -0.13324129106E+02 -0.53437565505E+02  0.75459379500E+02  0.00000000000E+00 0.  1.
         11    1    3    3    0    0  0.10662955146E+02 -0.69069738493E+02 -0.52394223588E+02  0.87346906375E+02  0.00000000000E+00 0. -1.
</event>
<event>
 8    1  0.5900800E-006  0.1203170E+03  0.7561462E-02  0.1242575E+00
         -1   -1    0    0    0  501 -0.00000000000E+00  0.00000000000E+00  0.13608391331E+02  0.13608391331E+02  0.00000000000E+00 0.  1.
          1   -1    0    0  501    0  0.00000000000E+00 -0.00000000000E+00 -0.19089284074E+04  0.19089284074E+04  0.00000000000E+00 0. -1.
         23    2    1    2    0    0 -0.35056206594E+02 -0.10776730565E+03 -0.66536547711E+03  0.68105898304E+03  0.91035105642E+02 0.  0.
         23    2    1    2    0    0  0.35056206594E+02  0.10776730565E+03 -0.12299545389E+04  0.12414778157E+04  0.12504506852E+03 0.  0.
          5    1    4    4  502    0  0.12856637163E+02  0.46809506206E+02 -0.11852431381E+03  0.12814799395E+03  0.41800000000E+01 0.  1.
         -5    1    4    4    0  502  0.22199569431E+02  0.60957799445E+02 -0.11114302251E+04  0.11133298217E+04  0.41800000000E+01 0.  1.
        -11    1    3    3    0    0 -0.23502480899E+02 -0.11211942282E+03 -0.65498893172E+03  0.66493129891E+03  0.00000000000E+00 0. -1.
         11    1    3    3    0    0 -0.11553725695E+02  0.43521171742E+01 -0.10376545385E+02  0.16127684132E+02  0.00000000000E+00 0.  1.
</event>
<event>
 8    1  0.5900800E-006  0.8967874E+02  0.7561462E-02  0.1303632E+00
          2   -1    0    0  501    0  0.00000000000E+00  0.00000000000E+00  0.10228182387E+03  0.10228182387E+03  0.00000000000E+00 0. -1.
         -2   -1    0    0    0  501 -0.00000000000E+00 -0.00000000000E+00 -0.27351019696E+03  0.27351019696E+03  0.00000000000E+00 0.  1.
         23    2    1    2    0    0  0.20655472156E+01 -0.41103718733E+02 -0.21272476801E+03  0.23772597098E+03  0.97816298118E+02 0.  0.
         23    2    1    2    0    0 -0.20655472156E+01  0.41103718733E+02  0.41496394916E+02  0.13806604984E+03  0.12508597503E+03 0.  0.
          5    1    4    4  502    0  0.36416029285E+02  0.11251140072E+02 -0.31902507982E+02  0.49879432207E+02  0.41800000000E+01 0. -1.
         -5    1    4    4    0  502 -0.38481576501E+02  0.29852578661E+02  0.73398902898E+02  0.88186617632E+02  0.41800000000E+01 0. -1.
        -11    1    3    3    0    0  0.38895126034E+02 -0.39247607810E+02 -0.18045059881E+03  0.18872102204E+03  0.00000000000E+00 0.  1.
         11    1    3    3    0    0 -0.36829578819E+02 -0.18561109226E+01 -0.32274169193E+02  0.49004948942E+02  0.00000000000E+00 0. -1.
</event>
<event>
 8    1  0.5900800E-006  0.1120802E+03  0.7561462E-02  0.1256765E+00
          2   -1    0    0  501    0  0.00000000000E+00  0.00000000000E+00  0.67837070726E+03  0.67837070726E+03  0.00000000000E+00 0. -1.
         -2   -1    0    0    0  501 -0.00000000000E+00 -0.00000000000E+00 -0.22813812652E+02  0.22813812652E+02  0.00000000000E+00 0.  1.
         23    2    1    2    0    0 -0.12623174033E+01  0.43029779987E+02  0.16811920162E+03  0.19611441090E+03  0.91343531773E+02 0.  0.
         23    2    1    2    0    0  0.12623174033E+01 -0.43029779987E+02  0.48743769299E+03  0.50507010902E+03  0.12508858887E+03 0.  0.
          5    1    4    4  502    0  0.89490781345E+01  0.41642682054E+02  0.10734562763E+03  0.11556277575E+03  0.41800000000E+01 0. -1.
         -5    1    4    4    0  502 -0.76867607312E+01 -0.84672462041E+02  0.38009206536E+03  0.38950733327E+03  0.41800000000E+01 0. -1.
        -11    1    3    3    0    0  0.41362159509E+02  0.31762140588E+02  0.60859692844E+02  0.80147139856E+02  0.00000000000E+00 0.  1.
         11    1    3    3    0    0 -0.42624476912E+02  0.11267639399E+02  0.10725950878E+03  0.11596727104E+03  0.00000000000E+00 0. -1.
</event>
<event>
 8    1  0.5900800E-006  0.1390080E+03  0.7561462E-02  0.1214670E+00
          2   -1    0    0  501    0  0.00000000000E+00  0.00000000000E+00  0.27185574162E+04  0.27185574162E+04  0.00000000000E+00 0. -1.
         -2   -1    0    0    0  501 -0.00000000000E+00 -0.00000000000E+00 -0.17491312295E+02  0.17491312295E+02  0.00000000000E+00 0.  1.
         23    2    1    2    0    0 -0.64250398443E+02 -0.64104415733E+02  0.28781714595E+03  0.31785612304E+03  0.99781339110E+02 0.  0.
         23    2    1    2    0    0  0.64250398443E+02  0.64104415733E+02  0.24132489579E+04  0.24181926054E+04  0.12508978451E+03 0.  0.
          5    1    4    4  502    0  0.10043763009E+03  0.56054702938E+02  0.16321272863E+04  0.16361805519E+04  0.41800000000E+01 0.  1.
         -5    1    4    4    0  502 -0.36187231646E+02  0.80497127950E+01  0.78112167158E+03  0.78201205351E+03  0.41800000000E+01 0.  1.
        -11    1    3    3    0    0 -0.78195182508E+02 -0.21959046993E+02  0.12479283880E+03  0.14889573173E+03  0.00000000000E+00 0.  1.
         11    1    3    3    0    0  0.13944784065E+02 -0.42145368740E+02  0.16302430716E+03  0.16896039131E+03  0.00000000000E+00 0. -1.
</event>
<event>
 8    1  0.5900800E-006  0.8955165E+02  0.7561462E-02  0.1303941E+00
         -3   -1    0    0    0  501 -0.00000000000E+00  0.00000000000E+00  0.23047547466E+03  0.23047547466E+03  0.00000000000E+00 0.  1.
          3   -1    0    0  501    0  0.00000000000E+00 -0.00000000000E+00 -0.59620438116E+02  0.59620438116E+02  0.00000000000E+00 0. -1.
         23    2    1    2    0    0  0.56200446968E+01 -0.29269486392E+02  0.12443131292E+03  0.15337580909E+03  0.84573633246E+02 0.  0.
         23    2    1    2    0    0 -0.56200446968E+01  0.29269486392E+02  0.46423723616E+02  0.13672010369E+03  0.12509571096E+03 0.  0.
          5    1    4    4  502    0 -0.44883295492E+02  0.93654110826E+01  0.72131090686E+02  0.85572120358E+02  0.41800000000E+01 0.  1.
         -5    1    4    4    0  502  0.39263250796E+02  0.19904075309E+02 -0.25707367070E+02  0.51147983329E+02  0.41800000000E+01 0.  1.
        -11    1    3    3    0    0  0.20644338050E+02  0.25064629858E+02  0.55798026271E+02  0.64558842146E+02  0.00000000000E+00 0.  1.
         11    1    3    3    0    0 -0.15024293353E+02 -0.54334116250E+02  0.68633286654E+02  0.88816966939E+02  0.00000000000E+00 0. -1.
</event>
<event>
 8    1  0.5900800E-006  0.2226374E+03  0.7561462E-02  0.1131932E+00
         -2   -1    0    0    0  501 -0.00000000000E+00  0.00000000000E+00  0.84002833074E+02  0.84002833074E+02  0.00000000000E+00 0.  1.
          2   -1    0    0  501    0  0.00000000000E+00 -0.00000000000E+00 -0.66013759451E+03  0.66013759451E+03  0.00000000000E+00 0. -1.
         23    2    1    2    0    0 -0.19483942287E+03  0.67868088432E+02 -0.23463842084E+03  0.32599752588E+03  0.93009247997E+02 0.  0.
         23    2    1    2    0    0  0.19483942287E+03 -0.67868088432E+02 -0.34149634059E+03  0.41814290171E+03  0.12512097138E+03 0.  0.
          5    1    4    4  502    0  0.20959663698E+03 -0.63849782679E+02 -0.28529301731E+03  0.35974591465E+03  0.41800000000E+01 0. -1.
         -5    1    4    4    0  502 -0.14757214111E+02 -0.40183057530E+01 -0.56203323283E+02  0.58396987058E+02  0.41800000000E+01 0. -1.
        -11    1    3    3    0    0 -0.43812764047E+02 -0.20214712560E+01 -0.76181440672E+01  0.44516073035E+02  0.00000000000E+00 0.  1.
         11    1    3    3    0    0 -0.15102665882E+03  0.69889559688E+02 -0.22702027677E+03  0.28148145284E+03  0.00000000000E+00 0. -1.
</event>
<event>
 8    1  0.5900800E-006  0.1164415E+03  0.7561462E-02  0.1249086E+00
          1   -1    0    0  501    0  0.00000000000E+00  0.00000000000E+00  0.10063003535E+04  0.10063003535E+04  0.00000000000E+00 0. -1.
         -1   -1    0    0    0  501 -0.00000000000E+00 -0.00000000000E+00 -0.24810376927E+02  0.24810376927E+02  0.00000000000E+00 0.  1.
         23    2    1    2    0    0  0.59806094271E+02  0.43382562028E+02  0.16874290767E+03  0.20547954845E+03  0.91043178441E+02 0.  0.
         23    2    1    2    0    0 -0.59806094271E+02 -0.43382562028E+02  0.81274706890E+03  0.82563118198E+03  0.12510089948E+03 0.  0.
          5    1    4    4  502    0 -0.17409148462E+02 -0.67422382642E+02  0.21830619442E+03  0.22918098319E+03  0.41800000000E+01 0. -1.
         -5    1    4    4    0  502 -0.42396945809E+02  0.24039820613E+02  0.59444087447E+03  0.59645019879E+03  0.41800000000E+01 0. -1.
        -11    1    3    3    0    0 -0.86635247508E+01 -0.19440220407E+02  0.52569432162E+02  0.56714407591E+02  0.00000000000E+00 0.  1.
         11    1    3    3    0    0  0.68469619022E+02  0.62822782436E+02  0.11617347551E+03  0.14876514085E+03  0.00000000000E+00 0. -1.
</event>
<event>
 7    1  0.5900800E-006  0.2878156E+03  0.7561462E-02  0.1091495E+00
         -2   -1    0    0    0  501 -0.00000000000E+00  0.00000000000E+00  0.79575453651E+03  0.79575453651E+03  0.00000000000E+00 0.  1.
          2   -1    0    0  501    0  0.00000000000E+00 -0.00000000000E+00 -0.18852334607E+03  0.18852334607E+03  0.00000000000E+00 0. -1.
         23    2    1    2    0    0  0.25393719458E+03 -0.11782893013E+03  0.52420428321E+03  0.60130087033E+03  0.91677972064E+02 0.  0.
          5    1    1    2  502    0 -0.61813280282E+02  0.97854349562E+00 -0.82892309865E+02  0.10349128756E+03  0.41800000000E+01 0. -1.
         -5    1    1    2    0  502 -0.19212391429E+03  0.11685038664E+03  0.16591921710E+03  0.27948572468E+03  0.41800000000E+01 0.  1.
        -11    1    3    3    0    0  0.12976846617E+01 -0.16513752331E+02  0.96092420979E+01  0.19150079249E+02  0.00000000000E+00 0. -1.
         11    1    3    3    0    0  0.25263950991E+03 -0.10131517780E+03  0.51459504111E+03  0.58215079108E+03  0.00000000000E+00 0.  1.
</event>
<event>
 8    1  0.5900800E-006  0.1122266E+03  0.7561462E-02  0.1256501E+00
         -3   -1    0    0    0  501 -0.00000000000E+00  0.00000000000E+00  0.85264380706E+02  0.85264380706E+02  0.00000000000E+00 0.  1.
          3   -1    0    0  501    0  0.00000000000E+00 -0.00000000000E+00 -0.24098065615E+03  0.24098065615E+03  0.00000000000E+00 0. -1.
         23    2    1    2    0    0  0.68531522665E+02  0.94662964242E+01 -0.34008338406E+02  0.13849048462E+03  0.11505158357E+03 0.  0.
         23    2    1    2    0    0 -0.68531522665E+02 -0.94662964242E+01 -0.12170793704E+03  0.18775455224E+03  0.12511102901E+03 0.  0.
          5    1    4    4  502    0 -0.49529328416E+01  0.42391596807E+02 -0.90001858607E+02  0.99696469226E+02  0.41800000000E+01 0.  1.
         -5    1    4    4    0  502 -0.63578589823E+02 -0.51857893231E+02 -0.31706078436E+02  0.88058083014E+02  0.41800000000E+01 0.  1.
        -11    1    3    3    0    0  0.76210481901E+02  0.26537209780E+02  0.18460074885E+02  0.82783062394E+02  0.00000000000E+00 0.  1.
         11    1    3    3    0    0 -0.76789592364E+01 -0.17070913356E+02 -0.52468413291E+02  0.55707422226E+02  0.00000000000E+00 0. -1.
</event>
<event>
 8    1  0.5900800E-006  0.1486688E+03  0.7561462E-02  0.1202118E+00
          1   -1    0    0  501    0  0.00000000000E+00  0.00000000000E+00  0.73362748883E+03  0.73362748883E+03  0.00000000000E+00 0. -1.
         -1   -1    0    0    0  501 -0.00000000000E+00 -0.00000000000E+00 -0.37465342515E+02  0.37465342515E+02  0.00000000000E+00 0.  1.
         23    2    1    2    0    0 -0.12902691186E+03 -0.67734150353E+01  0.29552964435E+03  0.33194866488E+03  0.78474978770E+02 0.  0.
         23    2    1    2    0    0  0.12902691186E+03  0.67734150353E+01  0.40063250196E+03  0.43914416646E+03  0.12508946467E+03 0.  0.
          5    1    4    4  502    0  0.12660117628E+03  0.40026738388E+02  0.23329407229E+03  0.26846525695E+03  0.41800000000E+01 0.  1.
         -5    1    4    4    0  502  0.24257355775E+01 -0.33253323353E+02  0.16733842967E+03  0.17067890951E+03  0.41800000000E+01 0.  1.
        -11    1    3    3    0    0 -0.42799204161E+02 -0.12166620018E+02  0.32519601079E+02  0.55111913175E+02  0.00000000000E+00 0.  1.
         11    1    3    3    0    0 -0.86227707699E+02  0.53932049826E+01  0.26301004327E+03  0.27683675171E+03  0.00000000000E+00 0. -1.
</event>
<event>
 8    1  0.5900800E-006  0.1061597E+03  0.7561462E-02  0.1267851E+00
         -2   -1    0    0    0  501 -0.00000000000E+00  0.00000000000E+00  0.54500766964E+02  0.54500766964E+02  0.00000000000E+00 0.  1.
          2   -1    0    0  501    0  0.00000000000E+00 -0.00000000000E+00 -0.24234050811E+03  0.24234050811E+03  0.00000000000E+00 0. -1.
         23    2    1    2    0    0  0.30188022554E+01 -0.27249937807E+02 -0.54418683787E+02  0.11190690975E+03  0.93862085148E+02 0.  0.
         23    2    1    2    0    0 -0.30188022554E+01  0.27249937807E+02 -0.13342105736E+03  0.18493436532E+03  0.12509144116E+03 0.  0.
          5    1    4    4  502    0 -0.24067502137E+02 -0.38377221776E+02 -0.15085667602E+02  0.47928129292E+02  0.41800000000E+01 0.  1.
         -5    1    4    4    0  502  0.21048699882E+02  0.65627159583E+02 -0.11833538975E+03  0.13700623603E+03  0.41800000000E+01 0.  1.
        -11    1    3    3    0    0  0.39069279511E+02 -0.43298283579E+02 -0.31979624443E+02  0.66512001488E+02  0.00000000000E+00 0.  1.
         11    1    3    3    0    0 -0.36050477255E+02  0.16048345772E+02 -0.22439059344E+02  0.45394908267E+02  0.00000000000E+00 0. -1.
</event>
<event>
 8    1  0.5900800E-006  0.1011147E+03  0.7561462E-02  0.1277969E+00
         -1   -1    0    0    0  501 -0.00000000000E+00  0.00000000000E+00  0.17016123593E+02  0.17016123593E+02  0.00000000000E+00 0.  1.
          1   -1    0    0  501    0  0.00000000000E+00 -0.00000000000E+00 -0.66665062788E+03  0.66665062788E+03  0.00000000000E+00 0. -1.
         23    2    1    2    0    0 -0.17487890017E+02 -0.22161633288E+02 -0.22430379181E+03  0.24218803612E+03  0.86867079686E+02 0.  0.
         23    2    1    2    0    0  0.17487890017E+02  0.22161633288E+02 -0.42533071248E+03  0.44147871535E+03  0.11489245773E+03 0.  0.
          5    1    4    4  502    0  0.49486554139E+02 -0.24566468210E+02 -0.28035384229E+03  0.28577645055E+03  0.41800000000E+01 0. -1.
         -5    1    4    4    0  502 -0.31998664122E+02  0.46728101498E+02 -0.14497687019E+03  0.15570226480E+03  0.41800000000E+01 0.  1.
        -11    1    3    3    0    0  0.28513718272E+01  0.32027439449E+02 -0.10058342434E+03  0.10559788090E+03  0.00000000000E+00 0. -1.
         11    1    3    3    0    0 -0.20339261844E+02 -0.54189072736E+02 -0.12372036747E+03  0.13659015522E+03  0.00000000000E+00 0.  1.
</event>
<event>
 8    1  0.5900800E-006  0.1017487E+03  0.7561462E-02  0.1276661E+00
         -1   -1    0    0    0  501 -0.00000000000E+00  0.00000000000E+00  0.23578474871E+02  0.23578474871E+02  0.00000000000E+00 0.  1.
          1   -1    0    0  501    0  0.00000000000E+00 -0.00000000000E+00 -0.56623705802E+03  0.56623705802E+03  0.00000000000E+00 0. -1.
         23    2    1    2    0    0 -0.31756526330E+02  0.92234296561E+01 -0.19358171675E+03  0.21752862588E+03  0.93548241019E+02 0.  0.
         23    2    1    2    0    0  0.31756526330E+02 -0.92234296561E+01 -0.34907686639E+03  0.37228690701E+03  0.12509729757E+03 0.  0.
          5    1    4    4  502    0  0.37651105963E+02  0.53812418952E+02 -0.16917686192E+03  0.18152593540E+03  0.41800000000E+01 0. -1.
         -5    1    4    4    0  502 -0.58945796330E+01 -0.63035848608E+02 -0.17990000447E+03  0.19076097161E+03  0.41800000000E+01 0. -1.
        -11    1    3    3    0    0 -0.32899595918E+02  0.35232684929E+02 -0.18330817148E+03  0.18954052662E+03  0.00000000000E+00 0. -1.
         11    1    3    3    0    0  0.11430695880E+01 -0.26009255273E+02 -0.10273545272E+02  0.27988099264E+02  0.00000000000E+00 0.  1.
</event>
<event>
 8    1  0.9322187E-006  0.2250165E+03  0.7561462E-02  0.1130197E+00
          2   -1    0    0  501    0  0.00000000000E+00  0.00000000000E+00  0.46193743514E+03  0.46193743514E+03  0.00000000000E+00 0. -1.
         -2   -1    0    0    0  501 -0.00000000000E+00 -0.00000000000E+00 -0.15515688402E+03  0.15515688402E+03  0.00000000000E+00 0.  1.
         23    2    1    2    0    0 -0.20204046721E+02  0.22282891501E+03  0.35473377752E+02  0.24384361037E+03  0.90224259040E+02 0.  0.
         23    2    1    2    0    0  0.20204046721E+02 -0.22282891501E+03  0.27130717337E+03  0.37325070879E+03  0.12509028909E+03 0.  0.
          5    1    4    4  502    0  0.15037101061E+01 -0.58720446915E+01  0.88763271984E+02  0.89068136313E+02  0.41800000000E+01 0. -1.
         -5    1    4    4    0  502  0.18700336615E+02 -0.21695687032E+03  0.18254390139E+03  0.28418257248E+03  0.41800000000E+01 0. -1.
        -11    1    3    3    0    0 -0.35259936079E+01  0.15426846146E+03 -0.17938207646E+02  0.15534790030E+03  0.00000000000E+00 0.  1.
         11    1    3    3    0    0 -0.16678053113E+02  0.68560453548E+02  0.53411585398E+02  0.88495710072E+02  0.00000000000E+00 0. -1.
</event>
<event>
 8    1  0.5900800E-006  0.9652420E+02  0.7561462E-02  0.1287780E+00
          1   -1    0    0  501    0  0.00000000000E+00  0.00000000000E+00  0.13501918766E+03  0.13501918766E+03  0.00000000000E+00 0. -1.
         -1   -1    0    0    0  501 -0.00000000000E+00 -0.00000000000E+00 -0.10743385144E+03  0.10743385144E+03  0.00000000000E+00 0.  1.
         23    2    1    2    0    0  0.41936926835E+02 -0.11976284816E+02 -0.19902981176E+02  0.10172160803E+03  0.89716328785E+02 0.  0.
         23    2    1    2    0    0 -0.41936926835E+02  0.11976284816E+02  0.47488317401E+02  0.14073143107E+03  0.12509219868E+03 0.  0.
          5    1    4    4  502    0 -0.33664311463E+02  0.66465943561E+02  0.40822635099E+02  0.85058611887E+02  0.41800000000E+01 0. -1.
         -5    1    4    4    0  502 -0.82726153721E+01 -0.54489658745E+02  0.66656823019E+01  0.55672819183E+02  0.41800000000E+01 0. -1.
        -11    1    3    3    0    0  0.27498203661E+02 -0.29579279618E+02 -0.49815677205E+02  0.64130232206E+02  0.00000000000E+00 0.  1.
         11    1    3    3    0    0  0.14438723173E+02  0.17602994802E+02  0.29912696029E+02  0.37591375827E+02  0.00000000000E+00 0. -1.
</event>
<event>
 8    1  0.5900800E-006  0.7820385E+02  0.7561462E-02  0.1334227E+00
         -2   -1    0    0    0  501 -0.00000000000E+00  0.00000000000E+00  0.11592135543E+03  0.11592135543E+03  0.00000000000E+00 0.  1.
          2   -1    0    0  501    0  0.00000000000E+00 -0.00000000000E+00 -0.12334138366E+03  0.12334138366E+03  0.00000000000E+00 0. -1.
         23    2    1    2    0    0  0.25977662643E+02 -0.34395938662E+02  0.24350066888E+02  0.10318688676E+03  0.90535563672E+02 0.  0.
         23    2    1    2    0    0 -0.25977662643E+02  0.34395938662E+02 -0.31770095121E+02  0.13607585232E+03  0.12509747835E+03 0.  0.
          5    1    4    4  502    0 -0.36852554151E+02 -0.72396677051E+01 -0.69228742094E+02  0.78870873380E+02  0.41800000000E+01 0.  1.
         -5    1    4    4    0  502  0.10874891508E+02  0.41635606367E+02  0.37458646972E+02  0.57204978943E+02  0.41800000000E+01 0.  1.
        -11    1    3    3    0    0 -0.10468522143E+02 -0.37377665368E+02 -0.21632100568E+02  0.44436782052E+02  0.00000000000E+00 0. -1.
         11    1    3    3    0    0  0.36446184786E+02  0.29817267062E+01  0.45982167455E+02  0.58750104710E+02  0.00000000000E+00 0.  1.
</event>
<event>
 8    1  0.5900800E-006  0.1534985E+03  0.7561462E-02  0.1196239E+00
         -1   -1    0    0    0  501 -0.00000000000E+00  0.00000000000E+00  0.11407720648E+02  0.11407720648E+02  0.00000000000E+00 0.  1.
          1   -1    0    0  501    0  0.00000000000E+00 -0.00000000000E+00 -0.21599404247E+04  0.21599404247E+04  0.00000000000E+00 0. -1.
         23    2    1    2    0    0 -0.18677247313E+02 -0.10970346447E+03 -0.77400333114E+03  0.78665973760E+03  0.85841111762E+02 0.  0.
         23    2    1    2    0    0  0.18677247313E+02  0.10970346447E+03 -0.13745293729E+04  0.13846884077E+04  0.12508916761E+03 0.  0.
          5    1    4    4  502    0  0.26078357808E+02  0.13614521412E+03 -0.11955665844E+04  0.12035832045E+04  0.41800000000E+01 0.  1.
         -5    1    4    4    0  502 -0.74011104953E+01 -0.26441749652E+02 -0.17896278852E+03  0.18110520322E+03  0.41800000000E+01 0.  1.
        -11    1    3    3    0    0  0.26305947815E+02 -0.52684072434E+01 -0.14544741335E+03  0.14790101100E+03  0.00000000000E+00 0. -1.
         11    1    3    3    0    0 -0.44983195127E+02 -0.10443505723E+03 -0.62855591779E+03  0.63875872660E+03  0.00000000000E+00 0.  1.
</event>
<event>
 8    1  0.5900800E-006  0.1612687E+03  0.7561462E-02  0.1187272E+00
         -2   -1    0    0    0  501 -0.00000000000E+00  0.00000000000E+00  0.13608108045E+03  0.13608108045E+03  0.00000000000E+00 0.  1.
          2   -1    0    0  501    0  0.00000000000E+00 -0.00000000000E+00 -0.22490057912E+03  0.22490057912E+03  0.00000000000E+00 0. -1.
         23    2    1    2    0    0 -0.13711606773E+03  0.60270831932E+00 -0.49565487673E+02  0.17125488459E+03  0.89834952232E+02 0.  0.
         23    2    1    2    0    0  0.13711606773E+03 -0.60270831932E+00 -0.39254010999E+02  0.18972677498E+03  0.12511671542E+03 0.  0.
          5    1    4    4  502    0  0.15867688345E+03 -0.13399839846E+02 -0.27227831522E+02  0.16160673333E+03  0.41800000000E+01 0.  1.
         -5    1    4    4    0  502 -0.21560815717E+02  0.12797131526E+02 -0.12026179476E+02  0.28120041651E+02  0.41800000000E+01 0.  1.
        -11    1    3    3    0    0 -0.12491387113E+03  0.45523816468E+01 -0.72846489560E+02  0.14467484377E+03  0.00000000000E+00 0. -1.
         11    1    3    3    0    0 -0.12202196597E+02 -0.39496733275E+01  0.23281001887E+02  0.26580040821E+02  0.00000000000E+00 0.  1.
</event>
<event>
 8    1  0.5900800E-006  0.1562556E+03  0.7561462E-02  0.1192990E+00
          2   -1    0    0  501    0  0.00000000000E+00  0.00000000000E+00  0.12023056793E+04  0.12023056793E+04  0.00000000000E+00 0. -1.
         -2   -1    0    0    0  501 -0.00000000000E+00 -0.00000000000E+00 -0.25980767764E+02  0.25980767764E+02  0.00000000000E+00 0.  1.
         23    2    1    2    0    0 -0.11574780435E+03  0.34672947097E+02  0.31103368498E+03  0.34569075251E+03  0.90334797865E+02 0.  0.
         23    2    1    2    0    0  0.11574780435E+03 -0.34672947097E+02  0.86529122661E+03  0.88259569461E+03  0.12508591377E+03 0.  0.
          5    1    4    4  502    0  0.86330745553E+02  0.35528725482E+02  0.37812368739E+03  0.38950004278E+03  0.41800000000E+01 0.  1.
         -5    1    4    4    0  502  0.29417058797E+02 -0.70201672579E+02  0.48716753922E+03  0.49309565183E+03  0.41800000000E+01 0.  1.
        -11    1    3    3    0    0 -0.46124497555E+02 -0.23807448983E+02  0.63679920957E+02  0.82154709146E+02  0.00000000000E+00 0.  1.
         11    1    3    3    0    0 -0.69623306795E+02  0.58480396080E+02  0.24735376402E+03  0.26353604336E+03  0.00000000000E+00 0. -1.
</event>
<event>
 8    1  0.5900800E-006  0.1280949E+03  0.7561462E-02  0.1230310E+00
         -1   -1    0    0    0  501 -0.00000000000E+00  0.00000000000E+00  0.24741544095E+02  0.24741544095E+02  0.00000000000E+00 0.  1.
          1   -1    0    0  501    0  0.00000000000E+00 -0.00000000000E+00 -0.85863516406E+03  0.85863516406E+03  0.00000000000E+00 0. -1.
         23    2    1    2    0    0 -0.51124376486E+02 -0.70699987225E+02 -0.25144926062E+03  0.28128791595E+03  0.91016322329E+02 0.  0.
         23    2    1    2    0    0  0.51124376486E+02  0.70699987225E+02 -0.58244435935E+03  0.60208879220E+03  0.12512910092E+03 0.  0.
          5    1    4    4  502    0  0.38129858488E+02  0.10213891600E+03 -0.51505708282E+03  0.52648600668E+03  0.41800000000E+01 0.  1.
         -5    1    4    4    0  502  0.12994517998E+02 -0.31438928778E+02 -0.67387276528E+02  0.75602785522E+02  0.41800000000E+01 0.  1.
        -11    1    3    3    0    0  0.17726849381E+02 -0.71500140708E+01 -0.85422784398E+01  0.20936437403E+02  0.00000000000E+00 0.  1.
         11    1    3    3    0    0 -0.68851225867E+02 -0.63549973154E+02 -0.24290698218E+03  0.26035147855E+03  0.00000000000E+00 0. -1.
</event>
<event>
 8    1  0.5900800E-006  0.1096045E+03  0.7561462E-02  0.1261304E+00
          1   -1    0    0  501    0  0.00000000000E+00  0.00000000000E+00  0.40507552636E+03  0.40507552636E+03  0.00000000000E+00 0. -1.
         -1   -1    0    0    0  501 -0.00000000000E+00 -0.00000000000E+00 -0.41591905678E+02  0.41591905678E+02  0.00000000000E+00 0.  1.
         23    2    1    2    0    0  0.45507369256E+01  0.63586788993E+02  0.11047322817E+03  0.15730553961E+03  0.92069048601E+02 0.  0.
         23    2    1    2    0    0 -0.45507369256E+01 -0.63586788993E+02  0.25301039251E+03  0.28936189242E+03  0.12510818169E+03 0.  0.
          5    1    4    4  502    0 -0.40260499510E+02 -0.58216966272E+02  0.59783363662E+02  0.92745058916E+02  0.41800000000E+01 0.  1.
         -5    1    4    4    0  502  0.35709762584E+02 -0.53698227211E+01  0.19322702885E+03  0.19661683351E+03  0.41800000000E+01 0.  1.
        -11    1    3    3    0    0  0.44499224112E+02  0.55595385755E+02  0.72130995986E+02  0.10136029028E+03  0.00000000000E+00 0. -1.
         11    1    3    3    0    0 -0.39948487187E+02  0.79914032380E+01  0.38342232180E+02  0.55945249331E+02  0.00000000000E+00 0.  1.
</event>
<event>
 8    1  0.5900800E-006  0.1163740E+03  0.7561462E-02  0.1249202E+00
          2   -1    0    0  501    0  0.00000000000E+00  0.00000000000E+00  0.10492271409E+03  0.10492271409E+03  0.00000000000E+00 0. -1.
         -2   -1    0    0    0  501 -0.00000000000E+00 -0.00000000000E+00 -0.15214269565E+03  0.15214269565E+03  0.00000000000E+00 0.  1.
         23    2    1    2    0    0  0.64103031526E+02 -0.16720821192E+02 -0.44889922440E+02  0.12144859588E+03  0.91355743075E+02 0.  0.
         23    2    1    2    0    0 -0.64103031526E+02  0.16720821192E+02 -0.23300591173E+01  0.13561681386E+03  0.11831190352E+03 0.  0.
          5    1    4    4  502    0 -0.58710632167E+02 -0.40459222843E+02  0.19490856370E+02  0.74035484226E+02  0.41800000000E+01 0. -1.
         -5    1    4    4    0  502 -0.53923993592E+01  0.57180044035E+02 -0.21820915487E+02  0.61581329634E+02  0.41800000000E+01 0.  1.
        -11    1    3    3    0    0  0.26632930558E+02 -0.48023128890E+02  0.30864446473E+00  0.54914744467E+02  0.00000000000E+00 0.  1.
         11    1    3    3    0    0  0.37470100968E+02  0.31302307698E+02 -0.45198566905E+02  0.66533851414E+02  0.00000000000E+00 0. -1.
</event>
<event>
 8    1  0.5900800E-006  0.1577844E+03  0.7561462E-02  0.1191221E+00
         -2   -1    0    0    0  501 -0.00000000000E+00  0.00000000000E+00  0.48546803940E+02  0.48546803940E+02  0.00000000000E+00 0.  1.
          2   -1    0    0  501    0  0.00000000000E+00 -0.00000000000E+00 -0.69630764969E+03  0.69630764969E+03  0.00000000000E+00 0. -1.
         23    2    1    2    0    0  0.99758565838E+02  0.10339535668E+03 -0.23654330443E+03  0.29165374976E+03  0.92015235895E+02 0.  0.
         23    2    1    2    0    0 -0.99758565838E+02 -0.10339535668E+03 -0.41121754132E+03  0.45320070387E+03  0.12509452609E+03 0.  0.
          5    1    4    4  502    0 -0.62064791958E+02 -0.10185918847E+03 -0.16259533910E+03  0.20169791614E+03  0.41800000000E+01 0.  1.
         -5    1    4    4    0  502 -0.37693773881E+02 -0.15361682165E+01 -0.24862220221E+03  0.25150278773E+03  0.41800000000E+01 0.  1.
        -11    1    3    3    0    0  0.31754193879E+02  0.80450098279E+02 -0.18201152018E+03  0.20151610512E+03  0.00000000000E+00 0.  1.
         11    1    3    3    0    0  0.68004371959E+02  0.22945258405E+02 -0.54531784249E+02  0.90137644645E+02  0.00000000000E+00 0. -1.
</event>
<event>
 8    1  0.5900800E-006  0.1087015E+03  0.7561462E-02  0.1262994E+00
         -2   -1    0    0    0  501 -0.00000000000E+00  0.00000000000E+00  0.43101083447E+02  0.43101083447E+02  0.00000000000E+00 0.  1.
          2   -1    0    0  501    0  0.00000000000E+00 -0.00000000000E+00 -0.35572951679E+03  0.35572951679E+03  0.00000000000E+00 0. -1.
         23    2    1    2    0    0 -0.51728701769E+02  0.12708050977E+02 -0.74337499997E+02  0.12453657528E+03  0.84533670985E+02 0.  0.
         23    2    1    2    0    0  0.51728701769E+02 -0.12708050977E+02 -0.23829093335E+03  0.27429402496E+03  0.12496915646E+03 0.  0.
          5    1    4    4  502    0 -0.21407775219E+02 -0.36420410778E+02 -0.29331857372E+02  0.51600091260E+02  0.41800000000E+01 0. -1.
         -5    1    4    4    0  502  0.73136476988E+02  0.23712359802E+02 -0.20895907597E+03  0.22269393370E+03  0.41800000000E+01 0. -1.
        -11    1    3    3    0    0 -0.48078859264E+02 -0.28958540623E+02 -0.30225285752E+02  0.63747483730E+02  0.00000000000E+00 0.  1.
         11    1    3    3    0    0 -0.36498425058E+01  0.41666591600E+02 -0.44112214245E+02  0.60789091550E+02  0.00000000000E+00 0. -1.
</event>
<event>
 8    1  0.5900800E-006  0.7893077E+02  0.7561462E-02  0.1332113E+00
          2   -1    0    0  501    0  0.00000000000E+00  0.00000000000E+00  0.52897047225E+03  0.52897047225E+03  0.00000000000E+00 0. -1.
         -2   -1    0    0    0  501 -0.00000000000E+00 -0.00000000000E+00 -0.22499785893E+02  0.22499785893E+02  0.00000000000E+00 0.  1.
         23    2    1    2    0    0  0.81650709439E+01  0.18113202160E+02  0.17786524406E+03  0.19930083947E+03  0.87692776737E+02 0.  0.
         23    2    1    2    0    0 -0.81650709439E+01 -0.18113202160E+02  0.32860544229E+03  0.35216941867E+03  0.12508799410E+03 0.  0.
          5    1    4    4  502    0  0.70231047251E+01 -0.43074982838E+02  0.32447980351E+02  0.54544678707E+02  0.41800000000E+01 0.  1.
         -5    1    4    4    0  502 -0.15188175669E+02  0.24961780677E+02  0.29615746194E+03  0.29762473996E+03  0.41800000000E+01 0.  1.
        -11    1    3    3    0    0 -0.22171304657E+02 -0.23951844980E+02  0.37793658997E+02  0.49936142107E+02  0.00000000000E+00 0.  1.
         11    1    3    3    0    0  0.30336375601E+02  0.42065047140E+02  0.14007158506E+03  0.14936469736E+03  0.00000000000E+00 0. -1.
</event>
<event>
 8    1  0.5900800E-006  0.1167031E+03  0.7561462E-02  0.1248637E+00
          1   -1    0    0  501    0  0.00000000000E+00  0.00000000000E+00  0.10705876642E+04  0.10705876642E+04  0.00000000000E+00 0. -1.
         -1   -1    0    0    0  501 -0.00000000000E+00 -0.00000000000E+00 -0.17076228714E+02  0.17076228714E+02  0.00000000000E+00 0.  1.
         23    2    1    2    0    0  0.38125510901E+02  0.44792835067E+02  0.25568059673E+03  0.27794709555E+03  0.91771824263E+02 0.  0.
         23    2    1    2    0    0 -0.38125510901E+02 -0.44792835067E+02  0.79783083878E+03  0.80971679738E+03  0.12508913622E+03 0.  0.
          5    1    4    4  502    0 -0.50666277662E+02  0.30908130002E+02  0.41564855699E+03  0.41988519802E+03  0.41800000000E+01 0. -1.
         -5    1    4    4    0  502  0.12540766761E+02 -0.75700965068E+02  0.38218228179E+03  0.38983159936E+03  0.41800000000E+01 0. -1.
        -11    1    3    3    0    0  0.11573832762E+01  0.57846364603E+02  0.85007851536E+02  0.10282935503E+03  0.00000000000E+00 0.  1.
         11    1    3    3    0    0  0.36968127625E+02 -0.13053529536E+02  0.17067274519E+03  0.17511774052E+03  0.00000000000E+00 0. -1.
</event>
<event>
 8    1  0.5900800E-006  0.2176402E+03  0.7561462E-02  0.1135655E+00
         -2   -1    0    0    0  501 -0.00000000000E+00  0.00000000000E+00  0.68892426962E+03  0.68892426962E+03  0.00000000000E+00 0. -1.
          2   -1    0    0  501    0  0.00000000000E+00 -0.00000000000E+00 -0.12307106282E+03  0.12307106282E+03  0.00000000000E+00 0.  1.
         23    2    1    2    0    0  0.61753727357E+02  0.19114267537E+03  0.53036420561E+03  0.57271325831E+03  0.79782457100E+02 0.  0.
         23    2    1    2    0    0 -0.61753727357E+02 -0.19114267537E+03  0.35489001194E+02  0.23928207413E+03  0.12508955434E+03 0.  0.
          5    1    4    4  502    0  0.22443365905E+02 -0.23204443567E+02 -0.25900874277E+02  0.41599021175E+02  0.41800000000E+01 0. -1.
         -5    1    4    4    0  502 -0.84197093262E+02 -0.16793823181E+03  0.61389875471E+02  0.19768305296E+03  0.41800000000E+01 0. -1.
        -11    1    3    3    0    0  0.52555294641E+02  0.47370504110E+02  0.14610425958E+03  0.16233446437E+03  0.00000000000E+00 0.  1.
         11    1    3    3    0    0  0.91984327154E+01  0.14377217126E+03  0.38425994603E+03  0.41037879394E+03  0.00000000000E+00 0. -1.
</event>
<event>
 8    1  0.5900800E-006  0.1184623E+03  0.7561462E-02  0.1245656E+00
          2   -1    0    0  501    0  0.00000000000E+00  0.00000000000E+00  0.10543063291E+04  0.10543063291E+04  0.00000000000E+00 0. -1.
         -2   -1    0    0    0  501 -0.00000000000E+00 -0.00000000000E+00 -0.15099005249E+02  0.15099005249E+02  0.00000000000E+00 0.  1.
         23    2    1    2    0    0  0.66244301932E+02 -0.66850776896E+01  0.42195484813E+03  0.43652711421E+03  0.89872297056E+02 0.  0.
         23    2    1    2    0    0 -0.66244301932E+02  0.66850776896E+01  0.61725247572E+03  0.63287822014E+03  0.12288704139E+03 0.  0.
          5    1    4    4  502    0 -0.33319450420E+02 -0.50208841257E+02  0.43328001850E+03  0.43747018224E+03  0.41800000000E+01 0. -1.
         -5    1    4    4    0  502 -0.32924851512E+02  0.56893918947E+02  0.18397245722E+03  0.19540803790E+03  0.41800000000E+01 0.  1.
        -11    1    3    3    0    0 -0.16221223851E+02  0.18331175599E+02  0.69308169240E+02  0.73503621853E+02  0.00000000000E+00 0.  1.
         11    1    3    3    0    0  0.82465525783E+02 -0.25016253289E+02  0.35264667889E+03  0.36302349235E+03  0.00000000000E+00 0. -1.
</event>
<event>
 8    1  0.5900800E-006  0.8952921E+02  0.7561462E-02  0.1303996E+00
          2   -1    0    0  501    0  0.00000000000E+00  0.00000000000E+00  0.15784382584E+03  0.15784382584E+03  0.00000000000E+00 0. -1.
         -2   -1    0    0    0  501 -0.00000000000E+00 -0.00000000000E+00 -0.80762460528E+02  0.80762460528E+02  0.00000000000E+00 0.  1.
         23    2    1    2    0    0  0.13307885789E+02  0.40049642084E+01  0.17177841349E+01  0.91908955692E+02  0.90835927867E+02 0.  0.
         23    2    1    2    0    0 -0.13307885789E+02 -0.40049642084E+01  0.75363581172E+02  0.14669733067E+03  0.12508915979E+03 0.  0.
          5    1    4    4  502    0  0.41394411791E+02  0.85489637894E+01 -0.10759573488E+02  0.43815784040E+02  0.41800000000E+01 0.  1.
         -5    1    4    4    0  502 -0.54702297580E+02 -0.12553927998E+02  0.86123154660E+02  0.10288154663E+03  0.41800000000E+01 0.  1.
        -11    1    3    3    0    0  0.21217576469E+02 -0.34769155471E+02 -0.21469265716E+02  0.46043556485E+02  0.00000000000E+00 0.  1.
         11    1    3    3    0    0 -0.79096906799E+01  0.38774119680E+02  0.23187049851E+02  0.45865399207E+02  0.00000000000E+00 0. -1.
</event>
<event>
 8    1  0.5900800E-006  0.9795391E+02  0.7561462E-02  0.1284658E+00
         -2   -1    0    0    0  501 -0.00000000000E+00  0.00000000000E+00  0.13057885188E+03  0.13057885188E+03  0.00000000000E+00 0.  1.
          2   -1    0    0  501    0  0.00000000000E+00 -0.00000000000E+00 -0.10887958159E+03  0.10887958159E+03  0.00000000000E+00 0. -1.
         23    2    1    2    0    0  0.52258652017E+02  0.64248035416E+01  0.14220632161E+02  0.10353194299E+03  0.88002227410E+02 0.  0.
         23    2    1    2    0    0 -0.52258652017E+02 -0.64248035416E+01  0.74786381308E+01  0.13592649048E+03  0.12509131055E+03 0.  0.
          5    1    4    4  502    0 -0.83988959097E+02 -0.25245021778E+02 -0.19613927013E+02  0.89964631426E+02  0.41800000000E+01 0. -1.
         -5    1    4    4    0  502  0.31730307080E+02  0.18820218237E+02  0.27092565144E+02  0.45961859056E+02  0.41800000000E+01 0. -1.
        -11    1    3    3    0    0  0.55538981917E+02  0.18443308690E+02  0.42702430804E+02  0.72444680580E+02  0.00000000000E+00 0.  1.
         11    1    3    3    0    0 -0.32803298993E+01 -0.12018505149E+02 -0.28481798642E+02  0.31087262410E+02  0.00000000000E+00 0. -1.
</event>
<event>
 8    1  0.5900800E-006  0.8520568E+02  0.7561462E-02  0.1314896E+00
         -1   -1    0    0    0  501 -0.00000000000E+00  0.00000000000E+00  0.15601987789E+02  0.15601987789E+02  0.00000000000E+00 0.  1.
          1   -1    0    0  501    0  0.00000000000E+00 -0.00000000000E+00 -0.96104695017E+03  0.96104695017E+03  0.00000000000E+00 0. -1.
         23    2    1    2    0    0  0.23488206294E+02  0.22186524551E+02 -0.23441690545E+03  0.25397845871E+03  0.92248762705E+02 0.  0.
         23    2    1    2    0    0 -0.23488206294E+02 -0.22186524551E+02 -0.71102805692E+03  0.72267047924E+03  0.12509111132E+03 0.  0.
          5    1    4    4  502    0  0.63114229651E+01  0.27183218704E+02 -0.38880965895E+02  0.48041267135E+02  0.41800000000E+01 0. -1.
         -5    1    4    4    0  502 -0.29799629259E+02 -0.49369743255E+02 -0.67214709103E+03  0.67462921211E+03  0.41800000000E+01 0. -1.
        -11    1    3    3    0    0 -0.28375598499E+02  0.14755518490E+02 -0.33390695404E+02  0.46236765194E+02  0.00000000000E+00 0.  1.
         11    1    3    3    0    0  0.51863804792E+02  0.74310060610E+01 -0.20102621005E+03  0.20774169352E+03  0.00000000000E+00 0. -1.
</event>
<event>
 8    1  0.5900800E-006  0.1465847E+03  0.7561462E-02  0.1204734E+00
          4   -1    0    0  501    0  0.00000000000E+00  0.00000000000E+00  0.16617657401E+03  0.16617657401E+03  0.00000000000E+00 0. -1.
         -4   -1    0    0    0  501 -0.00000000000E+00 -0.00000000000E+00 -0.13507122404E+03  0.13507122404E+03  0.00000000000E+00 0.  1.
         23    2    1    2    0    0 -0.84888406580E+02 -0.59248066866E+02  0.15961984500E+02  0.13817235366E+03  0.90113480507E+02 0.  0.
         23    2    1    2    0    0  0.84888406580E+02  0.59248066866E+02  0.15143365469E+02  0.16307544438E+03  0.12509158262E+03 0.  0.
          5    1    4    4  502    0 -0.29551777841E+02 -0.61788330400E+01  0.24557725439E+01  0.30577586074E+02  0.41800000000E+01 0. -1.
         -5    1    4    4    0  502  0.11444018442E+03  0.65426899906E+02  0.12687592925E+02  0.13249785831E+03  0.41800000000E+01 0. -1.
        -11    1    3    3    0    0 -0.42987617245E+02 -0.74664156217E+02  0.30224644304E+02  0.91302796142E+02  0.00000000000E+00 0. -1.
         11    1    3    3    0    0 -0.41900789335E+02  0.15416089351E+02 -0.14262659804E+02  0.46869557523E+02  0.00000000000E+00 0.  1.
</event>
<event>
 8    1  0.5900800E-006  0.1144878E+03  0.7561462E-02  0.1252478E+00
          3   -1    0    0  501    0  0.00000000000E+00  0.00000000000E+00  0.15803113919E+03  0.15803113919E+03  0.00000000000E+00 0. -1.
         -3   -1    0    0    0  501 -0.00000000000E+00 -0.00000000000E+00 -0.11886431435E+03  0.11886431435E+03  0.00000000000E+00 0.  1.
         23    2    1    2    0    0  0.50086247360E+02 -0.12460534062E+02 -0.49336213175E+02  0.11520710650E+03  0.90414149191E+02 0.  0.
         23    2    1    2    0    0 -0.50086247360E+02  0.12460534062E+02  0.88503038016E+02  0.16168834704E+03  0.12508571760E+03 0.  0.
          5    1    4    4  502    0 -0.59164999966E+02  0.56038245588E+02  0.27606348024E+02  0.86141540739E+02  0.41800000000E+01 0. -1.
         -5    1    4    4    0  502  0.90787526057E+01 -0.43577711526E+02  0.60896689991E+02  0.75546806303E+02  0.41800000000E+01 0. -1.
        -11    1    3    3    0    0  0.73134207725E+02  0.56559228282E+01 -0.43610452915E+02  0.85337409183E+02  0.00000000000E+00 0.  1.
         11    1    3    3    0    0 -0.23047960365E+02 -0.18116456890E+02 -0.57257602605E+01  0.29869697317E+02  0.00000000000E+00 0. -1.
</event>
<event>
 8    1  0.5900800E-006  0.1052873E+03  0.7561462E-02  0.1269555E+00
         -2   -1    0    0    0  501 -0.00000000000E+00  0.00000000000E+00  0.42630526563E+02  0.42630526563E+02  0.00000000000E+00 0.  1.
          2   -1    0    0  501    0  0.00000000000E+00 -0.00000000000E+00 -0.51436044980E+03  0.51436044980E+03  0.00000000000E+00 0. -1.
         23    2    1    2    0    0  0.69294587499E+02  0.38850629301E+01 -0.80201469368E+02  0.14014679057E+03  0.91607934413E+02 0.  0.
         23    2    1    2    0    0 -0.69294587499E+02 -0.38850629301E+01 -0.39152845387E+03  0.41684418580E+03  0.12509081289E+03 0.  0.
          5    1    4    4  502    0  0.35460842167E+02 -0.52983661858E+01 -0.71801377113E+02  0.80364508129E+02  0.41800000000E+01 0.  1.
         -5    1    4    4    0  502 -0.10475542967E+03  0.14133032557E+01 -0.31972707676E+03  0.33647967767E+03  0.41800000000E+01 0.  1.
        -11    1    3    3    0    0  0.25464898712E+02 -0.12731230359E+01 -0.91173225825E+02  0.94671215351E+02  0.00000000000E+00 0. -1.
         11    1    3    3    0    0  0.43829688787E+02  0.51581859660E+01  0.10971756457E+02  0.45475575218E+02  0.00000000000E+00 0.  1.
</event>
<event>
 8    1  0.5900800E-006  0.1334112E+03  0.7561462E-02  0.1222480E+00
         -1   -1    0    0    0  501 -0.00000000000E+00  0.00000000000E+00  0.63670297694E+02  0.63670297694E+02  0.00000000000E+00 0.  1.
          1   -1    0    0  501    0  0.00000000000E+00 -0.00000000000E+00 -0.37887564902E+03  0.37887564902E+03  0.00000000000E+00 0. -1.
         23    2    1    2    0    0 -0.14588543897E+02 -0.10577978750E+03 -0.97549420093E+02  0.16973652794E+03  0.88839239626E+02 0.  0.
         23    2    1    2    0    0  0.14588543897E+02  0.10577978750E+03 -0.21765593124E+03  0.27280941878E+03  0.12509470619E+03 0.  0.
          5    1    4    4  502    0 -0.22796902546E+02  0.68808313822E+01 -0.13868611840E+03  0.14077768446E+03  0.41800000000E+01 0.  1.
         -5    1    4    4    0  502  0.37385446443E+02  0.98898956123E+02 -0.78969812837E+02  0.13203173432E+03  0.41800000000E+01 0.  1.
        -11    1    3    3    0    0  0.19278985803E+02 -0.10077015150E+03 -0.59710658210E+02  0.11870832082E+03  0.00000000000E+00 0.  1.
         11    1    3    3    0    0 -0.33867529699E+02 -0.50096360025E+01 -0.37838761883E+02  0.51028207118E+02  0.00000000000E+00 0. -1.
</event>
<event>
 8    1  0.5900800E-006  0.1314885E+03  0.7561462E-02  0.1225264E+00
         -1   -1    0    0    0  501 -0.00000000000E+00  0.00000000000E+00  0.17651613666E+03  0.17651613666E+03  0.00000000000E+00 0.  1.
          1   -1    0    0  501    0  0.00000000000E+00 -0.00000000000E+00 -0.10827986974E+03  0.10827986974E+03  0.00000000000E+00 0. -1.
         23    2    1    2    0    0  0.65489575305E+02 -0.40981155657E+02  0.68436560191E+02  0.13776864425E+03  0.91259503471E+02 0.  0.
         23    2    1    2    0    0 -0.65489575305E+02  0.40981155657E+02 -0.20029326689E+00  0.14702736216E+03  0.12509462624E+03 0.  0.
          5    1    4    4  502    0 -0.25554344522E+02 -0.43103862007E+02  0.15314887358E+02  0.52564109606E+02  0.41800000000E+01 0.  1.
         -5    1    4    4    0  502 -0.39935230783E+02  0.84085017664E+02 -0.15515180625E+02  0.94463252554E+02  0.41800000000E+01 0.  1.
        -11    1    3    3    0    0  0.23301016833E+02  0.29364533410E+02  0.19528183920E+02  0.42267755738E+02  0.00000000000E+00 0. -1.
         11    1    3    3    0    0  0.42188558472E+02 -0.70345689068E+02  0.48908376271E+02  0.95500888508E+02  0.00000000000E+00 0.  1.
</event>
<event>
 8    1  0.5900800E-006  0.9076396E+02  0.7561462E-02  0.1301012E+00
         -1   -1    0    0    0  501 -0.00000000000E+00  0.00000000000E+00  0.12030585551E+03  0.12030585551E+03  0.00000000000E+00 0.  1.
          1   -1    0    0  501    0  0.00000000000E+00 -0.00000000000E+00 -0.94835636356E+02  0.94835636356E+02  0.00000000000E+00 0. -1.
         23    2    1    2    0    0  0.30025469890E+02  0.20535142468E+02  0.38120932956E+02  0.84252102183E+02  0.65741845688E+02 0.  0.
         23    2    1    2    0    0 -0.30025469890E+02 -0.20535142468E+02 -0.12650713799E+02  0.13088938969E+03  0.12509504728E+03 0.  0.
          5    1    4    4  502    0  0.39892929280E+02 -0.40490277771E+02 -0.15466377718E+00  0.56994778019E+02  0.41800000000E+01 0.  1.
         -5    1    4    4    0  502 -0.69918399170E+02  0.19955135303E+02 -0.12496050022E+02  0.73894611668E+02  0.41800000000E+01 0.  1.
        -11    1    3    3    0    0  0.21839992874E+02 -0.70336533060E+01  0.48519760971E+02  0.53671452116E+02  0.00000000000E+00 0.  1.
         11    1    3    3    0    0  0.81854770161E+01  0.27568795774E+02 -0.10398828015E+02  0.30580650067E+02  0.00000000000E+00 0. -1.
</event>
<event>
 8    1  0.5900800E-006  0.1253059E+03  0.7561462E-02  0.1234592E+00
         -1   -1    0    0    0  501 -0.00000000000E+00  0.00000000000E+00  0.31697251100E+02  0.31697251100E+02  0.00000000000E+00 0.  1.
          1   -1    0    0  501    0  0.00000000000E+00 -0.00000000000E+00 -0.79044792601E+03  0.79044792601E+03  0.00000000000E+00 0. -1.
         23    2    1    2    0    0  0.76926760077E+02  0.75971857353E+02 -0.21909028527E+03  0.25772210960E+03  0.82040740793E+02 0.  0.
         23    2    1    2    0    0 -0.76926760077E+02 -0.75971857353E+02 -0.53966038964E+03  0.56442306751E+03  0.12510241192E+03 0.  0.
          5    1    4    4  502    0 -0.68242665947E+02 -0.30525897236E+01 -0.11812579095E+03  0.13651942956E+03  0.41800000000E+01 0. -1.
         -5    1    4    4    0  502 -0.86840941306E+01 -0.72919267629E+02 -0.42153459868E+03  0.42790363795E+03  0.41800000000E+01 0. -1.
        -11    1    3    3    0    0  0.10693375346E+02  0.16153719147E+02  0.18271713648E+01  0.19458403680E+02  0.00000000000E+00 0.  1.
         11    1    3    3    0    0  0.66233384731E+02  0.59818138206E+02 -0.22091745664E+03  0.23826370592E+03  0.00000000000E+00 0. -1.
</event>
<event>
 8    1  0.5900800E-006  0.1066064E+03  0.7561462E-02  0.1266987E+00
          1   -1    0    0  501    0  0.00000000000E+00  0.00000000000E+00  0.52030545301E+02  0.52030545301E+02  0.00000000000E+00 0. -1.
         -1   -1    0    0    0  501 -0.00000000000E+00 -0.00000000000E+00 -0.26767601379E+03  0.26767601379E+03  0.00000000000E+00 0.  1.
         23    2    1    2    0    0  0.42877936504E+01  0.28185315286E+01 -0.15746622550E+03  0.18160970368E+03  0.90333509854E+02 0.  0.
         23    2    1    2    0    0 -0.42877936504E+01 -0.28185315286E+01 -0.58179242991E+02  0.13809685542E+03  0.12513827499E+03 0.  0.
          5    1    4    4  502    0 -0.23239768390E+02 -0.58880803346E+02 -0.43685773678E+02  0.77025677922E+02  0.41800000000E+01 0.  1.
         -5    1    4    4    0  502  0.18951974740E+02  0.56062271817E+02 -0.14493469313E+02  0.61071177494E+02  0.41800000000E+01 0.  1.
        -11    1    3    3    0    0 -0.84017687445E+01 -0.42532492084E+02 -0.77888264008E+02  0.89141372388E+02  0.00000000000E+00 0.  1.
         11    1    3    3    0    0  0.12689562395E+02  0.45351023613E+02 -0.79577961490E+02  0.92468331289E+02  0.00000000000E+00 0. -1.
</event>
<event>
 8    1  0.5900800E-006  0.1546038E+03  0.7561462E-02  0.1194927E+00
         -1   -1    0    0    0  501 -0.00000000000E+00  0.00000000000E+00  0.89048361810E+02  0.89048361810E+02  0.00000000000E+00 0.  1.
          1   -1    0    0  501    0  0.00000000000E+00 -0.00000000000E+00 -0.58072456522E+03  0.58072456522E+03  0.00000000000E+00 0. -1.
         23    2    1    2    0    0  0.11784727194E+03  0.41677133643E+02 -0.19060520095E+01  0.15196099369E+03  0.86391825986E+02 0.  0.
         23    2    1    2    0    0 -0.11784727194E+03 -0.41677133643E+02 -0.48977015141E+03  0.51781193334E+03  0.11238075518E+03 0.  0.
          5    1    4    4  502    0 -0.47360434783E+02 -0.72130123074E+02 -0.31966868483E+03  0.33113638565E+03  0.41800000000E+01 0. -1.
         -5    1    4    4    0  502 -0.70486837155E+02  0.30452989431E+02 -0.17010146658E+03  0.18667554770E+03  0.41800000000E+01 0.  1.
        -11    1    3    3    0    0 -0.63689927630E+00 -0.14695068628E+02 -0.13855420978E+02  0.20207012969E+02  0.00000000000E+00 0. -1.
         11    1    3    3    0    0  0.11848417121E+03  0.56372202271E+02  0.11949368969E+02  0.13175398072E+03  0.00000000000E+00 0.  1.
</event>
<event>
 7    1  0.5900800E-006  0.1426429E+03  0.7561462E-02  0.1209816E+00
          1   -1    0    0  501    0  0.00000000000E+00  0.00000000000E+00  0.57186034237E+02  0.57186034237E+02  0.00000000000E+00 0. -1.
         -1   -1    0    0    0  501 -0.00000000000E+00 -0.00000000000E+00 -0.37629155942E+03  0.37629155942E+03  0.00000000000E+00 0.  1.
         23    2    1    2    0    0 -0.93442579277E+02 -0.20017774770E+02 -0.14375854977E+03  0.19492121140E+03  0.90529172604E+02 0.  0.
          5    1    1    2  502    0 -0.29381379491E+02 -0.41755418533E+01 -0.11009143737E+02  0.31927640946E+02  0.41800000000E+01 0. -1.
         -5    1    1    2    0  502  0.12282395877E+03  0.24193316623E+02 -0.16433783168E+03  0.20662874132E+03  0.41800000000E+01 0.  1.
        -11    1    3    3    0    0 -0.15680752901E+02 -0.45584018529E+02 -0.68243745826E+02  0.83552364426E+02  0.00000000000E+00 0.  1.
         11    1    3    3    0    0 -0.77761826376E+02  0.25566243760E+02 -0.75514803944E+02  0.11136884697E+03  0.00000000000E+00 0. -1.
</event>
<event>
 8    1  0.5900800E-006  0.1399019E+03  0.7561462E-02  0.1213461E+00
          1   -1    0    0  501    0  0.00000000000E+00  0.00000000000E+00  0.57426641158E+03  0.57426641158E+03  0.00000000000E+00 0. -1.
         -1   -1    0    0    0  501 -0.00000000000E+00 -0.00000000000E+00 -0.41236537097E+02  0.41236537097E+02  0.00000000000E+00 0.  1.
         23    2    1    2    0    0 -0.71945237665E+02 -0.80933847569E+02  0.19025897339E+03  0.23489115949E+03  0.85140912302E+02 0.  0.
         23    2    1    2    0    0  0.71945237665E+02  0.80933847569E+02  0.34277090109E+03  0.38061178918E+03  0.12508812304E+03 0.  0.
          5    1    4    4  502    0  0.29913666526E+02  0.94883902025E+02  0.13282544686E+03  0.16600558437E+03  0.41800000000E+01 0.  1.
         -5    1    4    4    0  502  0.42031571140E+02 -0.13950054456E+02  0.20994545423E+03  0.21460620481E+03  0.41800000000E+01 0.  1.
        -11    1    3    3    0    0 -0.44674204263E+02  0.55929678730E+01  0.82866375041E+02  0.94307486068E+02  0.00000000000E+00 0.  1.
         11    1    3    3    0    0 -0.27271033402E+02 -0.86526815442E+02  0.10739259835E+03  0.14058367342E+03  0.00000000000E+00 0. -1.
</event>
<event>
 8    1  0.5900800E-006  0.1635957E+03  0.7561462E-02  0.1184696E+00
          1   -1    0    0  501    0  0.00000000000E+00  0.00000000000E+00  0.43194696321E+02  0.43194696321E+02  0.00000000000E+00 0. -1.
         -1   -1    0    0    0  501 -0.00000000000E+00 -0.00000000000E+00 -0.68112846462E+03  0.68112846462E+03  0.00000000000E+00 0.  1.
         23    2    1    2    0    0  0.12040526982E+03  0.51622268580E+02 -0.34642350897E+03  0.38111980699E+03  0.89893114833E+02 0.  0.
         23    2    1    2    0    0 -0.12040526982E+03 -0.51622268580E+02 -0.29151025932E+03  0.34320335395E+03  0.12509205914E+03 0.  0.
          5    1    4    4  502    0  0.14785007511E+02  0.19171731082E+02 -0.69963559972E+02  0.74152031959E+02  0.41800000000E+01 0. -1.
         -5    1    4    4    0  502 -0.13519027733E+03 -0.70793999662E+02 -0.22154669935E+03  0.26905132199E+03  0.41800000000E+01 0. -1.
        -11    1    3    3    0    0 -0.78661849793E+01  0.14381968107E+02 -0.95153374317E+02  0.96555075043E+02  0.00000000000E+00 0.  1.
         11    1    3    3    0    0  0.12827145480E+03  0.37240300474E+02 -0.25127013466E+03  0.28456473194E+03  0.00000000000E+00 0. -1.
</event>
<event>
 8    1  0.5900800E-006  0.8706911E+02  0.7561462E-02  0.1310109E+00
          1   -1    0    0  501    0  0.00000000000E+00  0.00000000000E+00  0.52554339864E+02  0.52554339864E+02  0.00000000000E+00 0. -1.
         -1   -1    0    0    0  501 -0.00000000000E+00 -0.00000000000E+00 -0.30007734199E+03  0.30007734199E+03  0.00000000000E+00 0.  1.
         23    2    1    2    0    0 -0.12860025867E+00 -0.53666195984E+02 -0.80132539131E+02  0.13688565076E+03  0.97141033689E+02 0.  0.
         23    2    1    2    0    0  0.12860025867E+00  0.53666195984E+02 -0.16739046300E+03  0.21574603110E+03  0.12508679268E+03 0.  0.
          5    1    4    4  502    0  0.11097250661E+02 -0.32484256291E-01 -0.15982135514E+03  0.16026068758E+03  0.41800000000E+01 0. -1.
         -5    1    4    4    0  502 -0.10968650403E+02  0.53698680240E+02 -0.75691078615E+01  0.55485343515E+02  0.41800000000E+01 0. -1.
        -11    1    3    3    0    0 -0.68694384296E+01  0.26239407214E+02 -0.62178162946E+01  0.27827269265E+02  0.00000000000E+00 0. -1.
         11    1    3    3    0    0  0.67408381709E+01 -0.79905603198E+02 -0.73914722836E+02  0.10905838149E+03  0.00000000000E+00 0.  1.
</event>
<event>
 8    1  0.5900800E-006  0.1155269E+03  0.7561462E-02  0.1250664E+00
          1   -1    0    0  501    0  0.00000000000E+00  0.00000000000E+00  0.42370206745E+02  0.42370206745E+02  0.00000000000E+00 0. -1.
         -1   -1    0    0    0  501 -0.00000000000E+00 -0.00000000000E+00 -0.35469303996E+03  0.35469303996E+03  0.00000000000E+00 0.  1.
         23    2    1    2    0    0 -0.23243614647E+01 -0.75990200811E+01 -0.21083700713E+03  0.24053297648E+03  0.11550204083E+03 0.  0.
         23    2    1    2    0    0  0.23243614647E+01  0.75990200811E+01 -0.10148582608E+03  0.15653027023E+03  0.11890838843E+03 0.  0.
          5    1    4    4  502    0 -0.35337913104E+02  0.50437025380E+02 -0.47560028165E+02  0.77923618440E+02  0.41800000000E+01 0. -1.
         -5    1    4    4    0  502  0.37662274569E+02 -0.42838005299E+02 -0.53925797920E+02  0.78606651786E+02  0.41800000000E+01 0.  1.
        -11    1    3    3    0    0 -0.24336689791E+02  0.47186344095E+02 -0.13005316057E+03  0.14047295154E+03  0.00000000000E+00 0. -1.
         11    1    3    3    0    0  0.22012328326E+02 -0.54785364176E+02 -0.80783846557E+02  0.10006002494E+03  0.00000000000E+00 0.  1.
</event>
<event>
 8    1  0.5900800E-006  0.1286676E+03  0.7561462E-02  0.1229446E+00
         -1   -1    0    0    0  501 -0.00000000000E+00  0.00000000000E+00  0.36535304761E+03  0.36535304761E+03  0.00000000000E+00 0.  1.
          1   -1    0    0  501    0  0.00000000000E+00 -0.00000000000E+00 -0.98686917072E+02  0.98686917072E+02  0.00000000000E+00 0. -1.
         23    2    1    2    0    0  0.11496717951E+03 -0.23961727865E+02  0.25095474985E+03  0.29174330006E+03  0.91346865813E+02 0.  0.
         23    2    1    2    0    0 -0.11496717951E+03  0.23961727865E+02  0.15711380692E+02  0.17229666462E+03  0.12509067267E+03 0.  0.
          5    1    4    4  502    0  0.24651098321E+01 -0.68313305565E+01 -0.38408354425E+02  0.39311803994E+02  0.41800000000E+01 0. -1.
         -5    1    4    4    0  502 -0.11743228934E+03  0.30793058421E+02  0.54119735117E+02  0.13298486063E+03  0.41800000000E+01 0. -1.
        -11    1    3    3    0    0  0.51876884666E+02 -0.36142696573E+02  0.49525521084E+02  0.80313653366E+02  0.00000000000E+00 0. -1.
         11    1    3    3    0    0  0.63090294843E+02  0.12180968709E+02  0.20142922877E+03  0.21142964670E+03  0.00000000000E+00 0.  1.
</event>
<event>
 8    1  0.5900800E-006  0.1396681E+03  0.7561462E-02  0.1213776E+00
          1   -1    0    0  501    0  0.00000000000E+00  0.00000000000E+00  0.21226611303E+03  0.21226611303E+03  0.00000000000E+00 0. -1.
         -1   -1    0    0    0  501 -0.00000000000E+00 -0.00000000000E+00 -0.10447551390E+03  0.10447551390E+03  0.00000000000E+00 0.  1.
         23    2    1    2    0    0  0.85753562619E+02 -0.23866436217E+02 -0.12875933917E+01  0.12841503198E+03  0.92549890667E+02 0.  0.
         23    2    1    2    0    0 -0.85753562619E+02  0.23866436217E+02  0.10907819252E+03  0.18832659494E+03  0.12508226893E+03 0.  0.
          5    1    4    4  502    0  0.13399351367E+02  0.47029094883E+02  0.20082918218E+02  0.53028995717E+02  0.41800000000E+01 0. -1.
         -5    1    4    4    0  502 -0.99152913986E+02 -0.23162658667E+02  0.88995274303E+02  0.13529759923E+03  0.41800000000E+01 0. -1.
        -11    1    3    3    0    0 -0.16122480781E+02 -0.20944334549E+02 -0.18478725435E+01  0.26495549988E+02  0.00000000000E+00 0. -1.
         11    1    3    3    0    0  0.10187604340E+03 -0.29221016674E+01  0.56027915183E+00  0.10191948199E+03  0.00000000000E+00 0.  1.
</event>
<event>
 8    1  0.5900800E-006  0.2018919E+03  0.7561462E-02  0.1148153E+00
         -2   -1    0    0    0  501 -0.00000000000E+00  0.00000000000E+00  0.15954580423E+04  0.15954580423E+04  0.00000000000E+00 0.  1.
          2   -1    0    0  501    0  0.00000000000E+00 -0.00000000000E+00 -0.27261929544E+02  0.27261929544E+02  0.00000000000E+00 0. -1.
         23    2    1    2    0    0 -0.17629078681E+03  0.17362806564E+02  0.80711339303E+03  0.83134529556E+03  0.91230820806E+02 0.  0.
         23    2    1    2    0    0  0.17629078681E+03 -0.17362806564E+02  0.76108271972E+03  0.79137467628E+03  0.12508822263E+03 0.  0.
          5    1    4    4  502    0  0.81783144669E+02  0.51456305658E+02  0.41248405807E+03  0.42367063234E+03  0.41800000000E+01 0.  1.
         -5    1    4    4    0  502  0.94507642139E+02 -0.68819112223E+02  0.34859866165E+03  0.36770404394E+03  0.41800000000E+01 0.  1.
        -11    1    3    3    0    0 -0.10167117122E+03 -0.24421821027E+02  0.31626206533E+03  0.33309930407E+03  0.00000000000E+00 0. -1.
         11    1    3    3    0    0 -0.74619615592E+02  0.41784627591E+02  0.49085132770E+03  0.49824599149E+03  0.00000000000E+00 0.  1.
</event>
<event>
 8    1  0.5900800E-006  0.1039089E+03  0.7561462E-02  0.1272284E+00
          2   -1    0    0  501    0  0.00000000000E+00  0.00000000000E+00  0.13031877666E+04  0.13031877666E+04  0.00000000000E+00 0. -1.
         -2   -1    0    0    0  501 -0.00000000000E+00 -0.00000000000E+00 -0.13673323813E+02  0.13673323813E+02  0.00000000000E+00 0.  1.
         23    2    1    2    0    0  0.77388219794E+02  0.39607467190E+01  0.62011621801E+03  0.63148152223E+03  0.90665125608E+02 0.  0.
         23    2    1    2    0    0 -0.77388219794E+02 -0.39607467190E+01  0.66939822477E+03  0.68537956818E+03  0.12508615060E+03 0.  0.
          5    1    4    4  502    0 -0.30074947529E+02 -0.22276275131E+02  0.44011040742E+02  0.57923907066E+02  0.41800000000E+01 0. -1.
         -5    1    4    4    0  502 -0.47313272265E+02  0.18315528412E+02  0.62538718403E+03  0.62745566111E+03  0.41800000000E+01 0. -1.
        -11    1    3    3    0    0 -0.10898815499E+02  0.26054824577E+02  0.14255928708E+03  0.14532992945E+03  0.00000000000E+00 0.  1.
         11    1    3    3    0    0  0.88287035292E+02 -0.22094077858E+02  0.47755693094E+03  0.48615159278E+03  0.00000000000E+00 0. -1.
</event>
<event>
 8    1  0.5900800E-006  0.9998251E+02  0.7561462E-02  0.1280333E+00
          2   -1    0    0  501    0  0.00000000000E+00  0.00000000000E+00  0.22033300181E+03  0.22033300181E+03  0.00000000000E+00 0. -1.
         -2   -1    0    0    0  501 -0.00000000000E+00 -0.00000000000E+00 -0.10151351319E+03  0.10151351319E+03  0.00000000000E+00 0.  1.
         23    2    1    2    0    0  0.62948918070E+02 -0.40450177053E+02 -0.21301392850E+02  0.11965806914E+03  0.90914911112E+02 0.  0.
         23    2    1    2    0    0 -0.62948918070E+02  0.40450177053E+02  0.14012088147E+03  0.20218844587E+03  0.12509005999E+03 0.  0.
          5    1    4    4  502    0  0.90019784448E+01 -0.43085179115E+01 -0.18999053703E+02  0.21864020310E+02  0.41800000000E+01 0. -1.
         -5    1    4    4    0  502 -0.71950896515E+02  0.44758694964E+02  0.15911993517E+03  0.18032442556E+03  0.41800000000E+01 0. -1.
        -11    1    3    3    0    0 -0.12713718064E+02 -0.23573816615E+02  0.18464833281E+02  0.32531731046E+02  0.00000000000E+00 0. -1.
         11    1    3    3    0    0  0.75662636134E+02 -0.16876360438E+02 -0.39766226131E+02  0.87126338091E+02  0.00000000000E+00 0.  1.
</event>
<event>
 8    1  0.5900800E-006  0.6316789E+02  0.7561462E-02  0.1384999E+00
         -2   -1    0    0    0  501 -0.00000000000E+00  0.00000000000E+00  0.16118096077E+03  0.16118096077E+03  0.00000000000E+00 0.  1.
          2   -1    0    0  501    0  0.00000000000E+00 -0.00000000000E+00 -0.88820758730E+02  0.88820758730E+02  0.00000000000E+00 0. -1.
         23    2    1    2    0    0 -0.27403056257E+02  0.17055854091E+02  0.70885428743E+02  0.12080687094E+03  0.92345689705E+02 0.  0.
         23    2    1    2    0    0  0.27403056257E+02 -0.17055854091E+02  0.14747733000E+01  0.12919484856E+03  0.12508918534E+03 0.  0.
          5    1    4    4  502    0 -0.97985929004E+01  0.22774991134E+01  0.57820760170E+02  0.58838016041E+02  0.41800000000E+01 0. -1.
         -5    1    4    4    0  502  0.37201649158E+02 -0.19333353205E+02 -0.56345986870E+02  0.70356832522E+02  0.41800000000E+01 0. -1.
        -11    1    3    3    0    0  0.83942244619E+01  0.33051164132E+02 -0.58841477815E+01  0.34604416624E+02  0.00000000000E+00 0. -1.
         11    1    3    3    0    0 -0.35797280719E+02 -0.15995310041E+02  0.76769576524E+02  0.86202454315E+02  0.00000000000E+00 0.  1.
</event>
<event>
 8    1  0.5900800E-006  0.1195728E+03  0.7561462E-02  0.1243803E+00
          1   -1    0    0  501    0  0.00000000000E+00  0.00000000000E+00  0.15747442563E+03  0.15747442563E+03  0.00000000000E+00 0. -1.
         -1   -1    0    0    0  501 -0.00000000000E+00 -0.00000000000E+00 -0.98897586298E+02  0.98897586298E+02  0.00000000000E+00 0.  1.
         23    2    1    2    0    0  0.28996498900E+02  0.55664108913E+02  0.25202004632E+02  0.11249510799E+03  0.89892815702E+02 0.  0.
         23    2    1    2    0    0 -0.28996498900E+02 -0.55664108913E+02  0.33374834696E+02  0.14387690393E+03  0.12508954363E+03 0.  0.
          5    1    4    4  502    0 -0.48001771941E+02  0.20136090597E+02  0.39355059650E+02  0.65390560283E+02  0.41800000000E+01 0. -1.
         -5    1    4    4    0  502  0.19005273041E+02 -0.75800199510E+02 -0.59802249537E+01  0.78486343651E+02  0.41800000000E+01 0. -1.
        -11    1    3    3    0    0 -0.27527477843E+02 -0.24006558845E+01  0.13037822424E+02  0.30553395861E+02  0.00000000000E+00 0.  1.
         11    1    3    3    0    0  0.56523976744E+02  0.58064764798E+02  0.12164182208E+02  0.81941712129E+02  0.00000000000E+00 0. -1.
</event>
<event>
 8    1  0.5900800E-006  0.1768534E+03  0.7561462E-02  0.1170884E+00
         -2   -1    0    0    0  501 -0.00000000000E+00  0.00000000000E+00  0.10140558251E+03  0.10140558251E+03  0.00000000000E+00 0.  1.
          2   -1    0    0  501    0  0.00000000000E+00 -0.00000000000E+00 -0.39299680227E+03  0.39299680227E+03  0.00000000000E+00 0. -1.
         23    2    1    2    0    0  0.12888607289E+03  0.94158857194E+02 -0.83774472079E+02  0.20403600991E+03  0.95577303770E+02 0.  0.
         23    2    1    2    0    0 -0.12888607289E+03 -0.94158857194E+02 -0.20781674768E+03  0.29036637486E+03  0.12508925159E+03 0.  0.
          5    1    4    4  502    0 -0.80343394641E+02 -0.87760696535E+02 -0.20975454070E+03  0.24118756324E+03  0.41800000000E+01 0.  1.
         -5    1    4    4    0  502 -0.48542678245E+02 -0.63981606594E+01  0.19377930183E+01  0.49178811624E+02  0.41800000000E+01 0.  1.
        -11    1    3    3    0    0  0.56540789142E+02  0.97914637819E+02 -0.58550359926E+02  0.12732745887E+03  0.00000000000E+00 0.  1.
         11    1    3    3    0    0  0.72345283744E+02 -0.37557806247E+01 -0.25224112153E+02  0.76708551035E+02  0.00000000000E+00 0. -1.
</event>
<event>
 8    1  0.5900800E-006  0.1421809E+03  0.7561462E-02  0.1210424E+00
         -1   -1    0    0    0  501 -0.00000000000E+00  0.00000000000E+00  0.23541171980E+03  0.23541171980E+03  0.00000000000E+00 0.  1.
          1   -1    0    0  501    0  0.00000000000E+00 -0.00000000000E+00 -0.10804643881E+03  0.10804643881E+03  0.00000000000E+00 0. -1.
         23    2    1    2    0    0  0.47525655847E+02 -0.10513348167E+03  0.81604451274E+02  0.16725569924E+03  0.89461978118E+02 0.  0.
         23    2    1    2    0    0 -0.47525655847E+02  0.10513348167E+03  0.45760829720E+02  0.17620245938E+03  0.12506604744E+03 0.  0.
          5    1    4    4  502    0 -0.42131983586E+02 -0.17262466164E+02  0.11050303671E+01  0.45736093745E+02  0.41800000000E+01 0.  1.
         -5    1    4    4    0  502 -0.53936722607E+01  0.12239594783E+03  0.44655799353E+02  0.13046636563E+03  0.41800000000E+01 0.  1.
        -11    1    3    3    0    0  0.10779963390E+02 -0.38253303999E+02  0.81801987473E+02  0.90945522331E+02  0.00000000000E+00 0.  1.
         11    1    3    3    0    0  0.36745692457E+02 -0.66880177667E+02 -0.19753619957E+00  0.76310176906E+02  0.00000000000E+00 0. -1.
</event>
<event>
 8    1  0.5900800E-006  0.1276470E+03  0.7561462E-02  0.1230990E+00
         -1   -1    0    0    0  501 -0.00000000000E+00  0.00000000000E+00  0.27995006107E+02  0.27995006107E+02  0.00000000000E+00 0.  1.
          1   -1    0    0  501    0  0.00000000000E+00 -0.00000000000E+00 -0.11076364315E+04  0.11076364315E+04  0.00000000000E+00 0. -1.
         23    2    1    2    0    0 -0.10017720331E+03 -0.73512719567E+02 -0.31132011372E+03  0.34733946023E+03  0.91021400913E+02 0.  0.
         23    2    1    2    0    0  0.10017720331E+03  0.73512719567E+02 -0.76832131172E+03  0.78829197742E+03  0.12508801551E+03 0.  0.
          5    1    4    4  502    0  0.52057141113E+02  0.25833778321E+02 -0.64417702011E+03  0.64680664474E+03  0.41800000000E+01 0.  1.
         -5    1    4    4    0  502  0.48120062202E+02  0.47678941246E+02 -0.12414429161E+03  0.14148533268E+03  0.41800000000E+01 0.  1.
        -11    1    3    3    0    0 -0.32435286018E+02 -0.50127997913E+01 -0.15632134770E+02  0.36352985823E+02  0.00000000000E+00 0.  1.
         11    1    3    3    0    0 -0.67741917297E+02 -0.68499919776E+02 -0.29568797895E+03  0.31098647440E+03  0.00000000000E+00 0. -1.
</event>
<event>
 8    1  0.5900800E-006  0.3734896E+03  0.7561462E-02  0.1053367E+00
         -2   -1    0    0    0  501 -0.00000000000E+00  0.00000000000E+00  0.64173679307E+02  0.64173679307E+02  0.00000000000E+00 0. -1.
          2   -1    0    0  501    0  0.00000000000E+00 -0.00000000000E+00 -0.36535761701E+04  0.36535761701E+04  0.00000000000E+00 0.  1.
         23    2    1    2    0    0 -0.11629157781E+02 -0.36209802451E+03 -0.61978576411E+03  0.72350209575E+03  0.89836921715E+02 0.  0.
         23    2    1    2    0    0  0.11629157781E+02  0.36209802451E+03 -0.29696167267E+04  0.29942477536E+04  0.12508353288E+03 0.  0.
          5    1    4    4  502    0  0.20392322785E+02  0.13084668727E+01 -0.11163159061E+03  0.11356338906E+03  0.41800000000E+01 0.  1.
         -5    1    4    4    0  502 -0.87631650036E+01  0.36078955764E+03 -0.28579851361E+04  0.28806843646E+04  0.41800000000E+01 0.  1.
        -11    1    3    3    0    0  0.52959052108E+01 -0.31681151469E+03 -0.47608605264E+03  0.57188767426E+03  0.00000000000E+00 0. -1.
         11    1    3    3    0    0 -0.16925062992E+02 -0.45286509823E+02 -0.14369971147E+03  0.15161442149E+03  0.00000000000E+00 0.  1.
</event>
<event>
 8    1  0.5900800E-006  0.7356265E+02  0.7561462E-02  0.1348381E+00
          1   -1    0    0  501    0  0.00000000000E+00  0.00000000000E+00  0.18171006831E+03  0.18171006831E+03  0.00000000000E+00 0. -1.
         -1   -1    0    0    0  501 -0.00000000000E+00 -0.00000000000E+00 -0.83031370385E+02  0.83031370385E+02  0.00000000000E+00 0.  1.
         23    2    1    2    0    0  0.13562991678E+02  0.55727885925E+02  0.54518646296E+02  0.12021441694E+03  0.90496802339E+02 0.  0.
         23    2    1    2    0    0 -0.13562991678E+02 -0.55727885925E+02  0.44160051625E+02  0.14452702175E+03  0.12509355636E+03 0.  0.
          5    1    4    4  502    0  0.14466324525E+02 -0.42376535150E+02 -0.36549148370E+02  0.57951340995E+02  0.41800000000E+01 0. -1.
         -5    1    4    4    0  502 -0.28029316203E+02 -0.13351350775E+02  0.80709199995E+02  0.86575680755E+02  0.41800000000E+01 0. -1.
        -11    1    3    3    0    0 -0.83957805091E+01  0.46084515673E+02 -0.12958105726E+02  0.48602306727E+02  0.00000000000E+00 0.  1.
         11    1    3    3    0    0  0.21958772187E+02  0.96433702517E+01  0.67476752022E+02  0.71612110214E+02  0.00000000000E+00 0. -1.
</event>
<event>
 8    1  0.5900800E-006  0.9780941E+02  0.7561462E-02  0.1284971E+00
         -2   -1    0    0    0  501 -0.00000000000E+00  0.00000000000E+00  0.34399658767E+02  0.34399658767E+02  0.00000000000E+00 0.  1.
          2   -1    0    0  501    0  0.00000000000E+00 -0.00000000000E+00 -0.84303731580E+03  0.84303731580E+03  0.00000000000E+00 0. -1.
         23    2    1    2    0    0 -0.96645648834E+01 -0.37402711967E+02 -0.56223778591E+02  0.11371662417E+03  0.90983463643E+02 0.  0.
         23    2    1    2    0    0  0.96645648834E+01  0.37402711967E+02 -0.75241387844E+03  0.76372035040E+03  0.12509901065E+03 0.  0.
          5    1    4    4  502    0 -0.91581535628E+01  0.63572354044E+02 -0.69311051136E+03  0.69609264422E+03  0.41800000000E+01 0.  1.
         -5    1    4    4    0  502  0.18822718446E+02 -0.26169642077E+02 -0.59303367080E+02  0.67627706180E+02  0.41800000000E+01 0.  1.
        -11    1    3    3    0    0 -0.50210425450E+02 -0.26442219464E+02 -0.34784708988E+02  0.66560151543E+02  0.00000000000E+00 0.  1.
         11    1    3    3    0    0  0.40545860567E+02 -0.10960492503E+02 -0.21439069603E+02  0.47156472626E+02  0.00000000000E+00 0. -1.
</event>
<event>
 8    1  0.5900800E-006  0.9719670E+02  0.7561462E-02  0.1286304E+00
         -2   -1    0    0    0  501 -0.00000000000E+00  0.00000000000E+00  0.81663141869E+02  0.81663141869E+02  0.00000000000E+00 0.  1.
          2   -1    0    0  501    0  0.00000000000E+00 -0.00000000000E+00 -0.31574137743E+03  0.31574137743E+03  0.00000000000E+00 0. -1.
         23    2    1    2    0    0 -0.43993813285E+02 -0.36165097481E+02  0.19825623786E+02  0.10868661404E+03  0.90423198516E+02 0.  0.
         23    2    1    2    0    0  0.43993813285E+02  0.36165097481E+02 -0.25390385934E+03  0.28871790526E+03  0.12508992423E+03 0.  0.
          5    1    4    4  502    0  0.86502808371E+02  0.38256321802E+02 -0.17557289290E+03  0.19947329429E+03  0.41800000000E+01 0.  1.
         -5    1    4    4    0  502 -0.42508995087E+02 -0.20912243209E+01 -0.78330966446E+02  0.89244610968E+02  0.41800000000E+01 0.  1.
        -11    1    3    3    0    0 -0.23372367569E+02 -0.19372284928E+02 -0.35855554087E+02  0.46980567770E+02  0.00000000000E+00 0. -1.
         11    1    3    3    0    0 -0.20621445715E+02 -0.16792812553E+02  0.55681177873E+02  0.61706046269E+02  0.00000000000E+00 0.  1.
</event>
<event>
 8    1  0.5900800E-006  0.9434623E+02  0.7561462E-02  0.1292655E+00
          1   -1    0    0  501    0  0.00000000000E+00  0.00000000000E+00  0.54624130400E+03  0.54624130400E+03  0.00000000000E+00 0. -1.
         -1   -1    0    0    0  501 -0.00000000000E+00 -0.00000000000E+00 -0.31255443086E+02  0.31255443086E+02  0.00000000000E+00 0.  1.
         23    2    1    2    0    0 -0.88271216068E+01  0.62030823951E+02  0.13342336979E+03  0.17109579335E+03  0.86869060664E+02 0.  0.
         23    2    1    2    0    0  0.88271216068E+01 -0.62030823951E+02  0.38156249113E+03  0.40640095374E+03  0.12508420911E+03 0.  0.
          5    1    4    4  502    0  0.34335908105E+02 -0.16335329903E+02  0.33201805483E+03  0.33421439036E+03  0.41800000000E+01 0. -1.
         -5    1    4    4    0  502 -0.25508786498E+02 -0.45695494047E+02  0.49544436297E+02  0.72186563381E+02  0.41800000000E+01 0. -1.
        -11    1    3    3    0    0  0.26548403996E+02  0.20358079393E-01  0.72620045188E+02  0.77320690196E+02  0.00000000000E+00 0. -1.
         11    1    3    3    0    0 -0.35375525603E+02  0.62010465871E+02  0.60803324602E+02  0.93775103156E+02  0.00000000000E+00 0.  1.
</event>
<event>
 8    1  0.5900800E-006  0.1208237E+03  0.7561462E-02  0.1241744E+00
         -1   -1    0    0    0  501 -0.00000000000E+00  0.00000000000E+00  0.33972076960E+02  0.33972076960E+02  0.00000000000E+00 0.  1.
          1   -1    0    0  501    0  0.00000000000E+00 -0.00000000000E+00 -0.52061170866E+03  0.52061170866E+03  0.00000000000E+00 0. -1.
         23    2    1    2    0    0 -0.31859276724E+02 -0.70067510583E+02 -0.17880652035E+03  0.21350699726E+03  0.87686923790E+02 0.  0.
         23    2    1    2    0    0  0.31859276724E+02  0.70067510583E+02 -0.30783311135E+03  0.34107678837E+03  0.12509069337E+03 0.  0.
          5    1    4    4  502    0  0.47818894683E+02 -0.90344135543E+01 -0.20257033501E+03  0.20837581516E+03  0.41800000000E+01 0.  1.
         -5    1    4    4    0  502 -0.15959617959E+02  0.79101924137E+02 -0.10526277634E+03  0.13270097321E+03  0.41800000000E+01 0.  1.
        -11    1    3    3    0    0 -0.58063012818E+02 -0.61137943021E+02 -0.10489572271E+03  0.13458184936E+03  0.00000000000E+00 0.  1.
         11    1    3    3    0    0  0.26203736094E+02 -0.89295675615E+01 -0.73910797639E+02  0.78925147892E+02  0.00000000000E+00 0. -1.
</event>
<event>
 8    1  0.5900800E-006  0.1083266E+03  0.7561462E-02  0.1263701E+00
          1   -1    0    0  501    0  0.00000000000E+00  0.00000000000E+00  0.10274065734E+04  0.10274065734E+04  0.00000000000E+00 0. -1.
         -1   -1    0    0    0  501 -0.00000000000E+00 -0.00000000000E+00 -0.14739513638E+02  0.14739513638E+02  0.00000000000E+00 0.  1.
         23    2    1    2    0    0  0.49700473689E+02  0.25476335303E+02  0.29358904429E+03  0.31013541725E+03  0.82887088012E+02 0.  0.
         23    2    1    2    0    0 -0.49700473689E+02 -0.25476335303E+02  0.71907801547E+03  0.73201066979E+03  0.12508895877E+03 0.  0.
          5    1    4    4  502    0 -0.82917610994E+02 -0.34217180619E+02  0.63137509578E+03  0.63772888411E+03  0.41800000000E+01 0. -1.
         -5    1    4    4    0  502  0.33217137306E+02  0.87408453165E+01  0.87702919694E+02  0.94281785677E+02  0.41800000000E+01 0. -1.
        -11    1    3    3    0    0  0.38152527338E+02  0.51319804212E+02  0.25085023255E+03  0.25887289703E+03  0.00000000000E+00 0. -1.
         11    1    3    3    0    0  0.11547946351E+02 -0.25843468909E+02  0.42738811746E+02  0.51262520224E+02  0.00000000000E+00 0.  1.
</event>
<event>
 8    1  0.5900800E-006  0.1562563E+03  0.7561462E-02  0.1192989E+00
         -1   -1    0    0    0  501 -0.00000000000E+00  0.00000000000E+00  0.77210265078E+02  0.77210265078E+02  0.00000000000E+00 0.  1.
          1   -1    0    0  501    0  0.00000000000E+00 -0.00000000000E+00 -0.54646461697E+03  0.54646461697E+03  0.00000000000E+00 0. -1.
         23    2    1    2    0    0 -0.10558475186E+03  0.78299945140E+02 -0.52785461201E+02  0.16939289922E+03  0.92890409400E+02 0.  0.
         23    2    1    2    0    0  0.10558475186E+03 -0.78299945140E+02 -0.41646889069E+03  0.45428198282E+03  0.12508701679E+03 0.  0.
          5    1    4    4  502    0  0.11057060636E+03 -0.10557948272E+03 -0.33932631057E+03  0.37219981677E+03  0.41800000000E+01 0. -1.
         -5    1    4    4    0  502 -0.49858544941E+01  0.27279537579E+02 -0.77142580121E+02  0.82082166049E+02  0.41800000000E+01 0. -1.
        -11    1    3    3    0    0 -0.84138668333E+02  0.64637698393E+02  0.50433177745E+01  0.10622044350E+03  0.00000000000E+00 0.  1.
         11    1    3    3    0    0 -0.21446083531E+02  0.13662246747E+02 -0.57828778975E+02  0.63172455729E+02  0.00000000000E+00 0. -1.
</event>
<event>
 8    1  0.5900800E-006  0.1126580E+03  0.7561462E-02  0.1255725E+00
         -2   -1    0    0    0  501 -0.00000000000E+00  0.00000000000E+00  0.69732985296E+02  0.69732985296E+02  0.00000000000E+00 0.  1.
          2   -1    0    0  501    0  0.00000000000E+00 -0.00000000000E+00 -0.30546184571E+03  0.30546184571E+03  0.00000000000E+00 0. -1.
         23    2    1    2    0    0 -0.83557731712E+02 -0.37721672836E+02 -0.69383275986E+02  0.14776747295E+03  0.92824393049E+02 0.  0.
         23    2    1    2    0    0  0.83557731712E+02  0.37721672836E+02 -0.16634558443E+03  0.22742735806E+03  0.12509008995E+03 0.  0.
          5    1    4    4  502    0  0.28639568472E+02  0.57200443393E+02 -0.15524763586E+03  0.16796254478E+03  0.41800000000E+01 0.  1.
         -5    1    4    4    0  502  0.54918163241E+02 -0.19478770557E+02 -0.11097948565E+02  0.59464813281E+02  0.41800000000E+01 0.  1.
        -11    1    3    3    0    0 -0.15860520813E+02  0.11070370903E+02  0.18367446436E+02  0.26673438491E+02  0.00000000000E+00 0.  1.
         11    1    3    3    0    0 -0.67697210899E+02 -0.48792043739E+02 -0.87750722422E+02  0.12109403446E+03  0.00000000000E+00 0. -1.
</event>
<event>
 8    1  0.5900800E-006  0.9976298E+02  0.7561462E-02  0.1280795E+00
         -2   -1    0    0    0  501 -0.00000000000E+00  0.00000000000E+00  0.36395779153E+02  0.36395779153E+02  0.00000000000E+00 0.  1.
          2   -1    0    0  501    0  0.00000000000E+00 -0.00000000000E+00 -0.34793668669E+03  0.34793668669E+03  0.00000000000E+00 0. -1.
         23    2    1    2    0    0 -0.20741146925E+02 -0.19115814835E+02 -0.13793714236E+03  0.16850659456E+03  0.92586217196E+02 0.  0.
         23    2    1    2    0    0  0.20741146925E+02  0.19115814835E+02 -0.17360376518E+03  0.21582587129E+03  0.12508768876E+03 0.  0.
          5    1    4    4  502    0 -0.42928120954E+01 -0.39977724644E+02 -0.12426551409E+02  0.42291113527E+02  0.41800000000E+01 0. -1.
         -5    1    4    4    0  502  0.25033959021E+02  0.59093539479E+02 -0.16117721377E+03  0.17353475776E+03  0.41800000000E+01 0. -1.
        -11    1    3    3    0    0  0.35958070577E+02 -0.10329560522E+02 -0.71706410961E+02  0.80879490807E+02  0.00000000000E+00 0. -1.
         11    1    3    3    0    0 -0.56699217503E+02 -0.87862543138E+01 -0.66230731397E+02  0.87627103751E+02  0.00000000000E+00 0.  1.
</event>
<event>
 8    1  0.5900800E-006  0.1401898E+03  0.7561462E-02  0.1213074E+00
          2   -1    0    0  501    0  0.00000000000E+00  0.00000000000E+00  0.21484523708E+03  0.21484523708E+03  0.00000000000E+00 0.  1.
         -2   -1    0    0    0  501 -0.00000000000E+00 -0.00000000000E+00 -0.94593799353E+02  0.94593799353E+02  0.00000000000E+00 0. -1.
         23    2    1    2    0    0  0.80244002327E+02  0.42779485261E+02  0.35998712852E+02  0.13332840300E+03  0.90616617966E+02 0.  0.
         23    2    1    2    0    0 -0.80244002327E+02 -0.42779485261E+02  0.84252724870E+02  0.17611063343E+03  0.12508896550E+03 0.  0.
          5    1    4    4  502    0 -0.64732770011E+02  0.35982386529E+02  0.37489245442E+02  0.83114256162E+02  0.41800000000E+01 0. -1.
         -5    1    4    4    0  502 -0.15511232316E+02 -0.78761871790E+02  0.46763479428E+02  0.92996377263E+02  0.41800000000E+01 0. -1.
        -11    1    3    3    0    0  0.99172234195E+02  0.38689499229E+02  0.39698084461E+02  0.11361314755E+03  0.00000000000E+00 0.  1.
         11    1    3    3    0    0 -0.18928231868E+02  0.40899860319E+01 -0.36993716091E+01  0.19715255456E+02  0.00000000000E+00 0. -1.
</event>
<event>
 8    1  0.5900800E-006  0.1910174E+03  0.7561462E-02  0.1157547E+00
          1   -1    0    0  501    0  0.00000000000E+00  0.00000000000E+00  0.63929502560E+03  0.63929502560E+03  0.00000000000E+00 0. -1.
         -1   -1    0    0    0  501 -0.00000000000E+00 -0.00000000000E+00 -0.88965216234E+02  0.88965216234E+02  0.00000000000E+00 0.  1.
         23    2    1    2    0    0 -0.99314463638E+02 -0.13917820229E+03  0.74891821092E+02  0.20775687216E+03  0.91215121456E+02 0.  0.
         23    2    1    2    0    0  0.99314463638E+02  0.13917820229E+03  0.47543798828E+03  0.52050336968E+03  0.12509413441E+03 0.  0.
          5    1    4    4  502    0  0.23917175801E+02  0.13124903299E+03  0.33953222532E+03  0.36482590970E+03  0.41800000000E+01 0.  1.
         -5    1    4    4    0  502  0.75397287837E+02  0.79291693086E+01  0.13590576296E+03  0.15567745998E+03  0.41800000000E+01 0.  1.
        -11    1    3    3    0    0 -0.58623827334E+02 -0.10129034309E+03  0.92784372424E+02  0.14935001339E+03  0.00000000000E+00 0. -1.
         11    1    3    3    0    0 -0.40690636304E+02 -0.37887859208E+02 -0.17892551333E+02  0.58406858770E+02  0.00000000000E+00 0.  1.
</event>
<event>
 8    1  0.5900800E-006  0.1040076E+03  0.7561462E-02  0.1272087E+00
          1   -1    0    0  501    0  0.00000000000E+00  0.00000000000E+00  0.35664678384E+03  0.35664678384E+03  0.00000000000E+00 0. -1.
         -1   -1    0    0    0  501 -0.00000000000E+00 -0.00000000000E+00 -0.37460307203E+02  0.37460307203E+02  0.00000000000E+00 0.  1.
         23    2    1    2    0    0  0.33469654657E+02  0.13988900963E+02  0.10426253017E+03  0.14280048968E+03  0.90583649313E+02 0.  0.
         23    2    1    2    0    0 -0.33469654657E+02 -0.13988900963E+02  0.21492394646E+03  0.25130660136E+03  0.12508716157E+03 0.  0.
          5    1    4    4  502    0 -0.49686538840E+02 -0.57863200458E+02  0.16975415428E+03  0.18614738087E+03  0.41800000000E+01 0.  1.
         -5    1    4    4    0  502  0.16216884182E+02  0.43874299495E+02  0.45169792182E+02  0.65159220488E+02  0.41800000000E+01 0.  1.
        -11    1    3    3    0    0  0.67539858849E+00 -0.29886059100E+02  0.62801922567E+01  0.30546251923E+02  0.00000000000E+00 0.  1.
         11    1    3    3    0    0  0.32794256069E+02  0.43874960063E+02  0.97982337916E+02  0.11225423776E+03  0.00000000000E+00 0. -1.
</event>
<event>
 8    1  0.5900800E-006  0.1267208E+03  0.7561462E-02  0.1232404E+00
         -1   -1    0    0    0  501 -0.00000000000E+00  0.00000000000E+00  0.11426840142E+03  0.11426840142E+03  0.00000000000E+00 0.  1.
          1   -1    0    0  501    0  0.00000000000E+00 -0.00000000000E+00 -0.17813687779E+03  0.17813687779E+03  0.00000000000E+00 0. -1.
         23    2    1    2    0    0 -0.35787617401E+02  0.84609793385E+02 -0.17870124427E+02  0.13053144050E+03  0.90992004687E+02 0.  0.
         23    2    1    2    0    0  0.35787617401E+02 -0.84609793385E+02 -0.45998351938E+02  0.16187383871E+03  0.12509084931E+03 0.  0.
          5    1    4    4  502    0  0.77238775238E+02 -0.73374027585E+02 -0.51449181725E+02  0.11838102477E+03  0.41800000000E+01 0.  1.
         -5    1    4    4    0  502 -0.41451157837E+02 -0.11235765800E+02  0.54508297873E+01  0.43492813941E+02  0.41800000000E+01 0.  1.
        -11    1    3    3    0    0 -0.24896818820E+02  0.88634471443E+02 -0.43925103907E+02  0.10200654817E+03  0.00000000000E+00 0. -1.
         11    1    3    3    0    0 -0.10890798581E+02 -0.40246780579E+01  0.26054979480E+02  0.28524892338E+02  0.00000000000E+00 0.  1.
</event>
<event>
 8    1  0.5900800E-006  0.1126684E+03  0.7561462E-02  0.1255707E+00
          1   -1    0    0  501    0  0.00000000000E+00  0.00000000000E+00  0.32739536432E+03  0.32739536432E+03  0.00000000000E+00 0. -1.
         -1   -1    0    0    0  501 -0.00000000000E+00 -0.00000000000E+00 -0.47755901200E+02  0.47755901200E+02  0.00000000000E+00 0.  1.
         23    2    1    2    0    0 -0.26150579437E+02  0.61940342693E+02  0.12769595005E+03  0.16717216151E+03  0.84379008450E+02 0.  0.
         23    2    1    2    0    0  0.26150579437E+02 -0.61940342693E+02  0.15194351307E+03  0.20797910401E+03  0.12509203685E+03 0.  0.
          5    1    4    4  502    0 -0.38242473859E+02 -0.39773390239E+01  0.73546961211E+01  0.39368388176E+02  0.41800000000E+01 0.  1.
         -5    1    4    4    0  502  0.64393053295E+02 -0.57963003669E+02  0.14458881695E+03  0.16861071583E+03  0.41800000000E+01 0.  1.
        -11    1    3    3    0    0  0.13453355839E+02 -0.10698611251E+02  0.52963930033E+02  0.55683309443E+02  0.00000000000E+00 0. -1.
         11    1    3    3    0    0 -0.39603935276E+02  0.72638953944E+02  0.74732020020E+02  0.11148885207E+03  0.00000000000E+00 0.  1.
</event>
<event>
 8    1  0.5900800E-006  0.1197300E+03  0.7561462E-02  0.1243543E+00
         -2   -1    0    0    0  501 -0.00000000000E+00  0.00000000000E+00  0.19699463417E+02  0.19699463417E+02  0.00000000000E+00 0.  1.
          2   -1    0    0  501    0  0.00000000000E+00 -0.00000000000E+00 -0.13966600243E+04  0.13966600243E+04  0.00000000000E+00 0. -1.
         23    2    1    2    0    0 -0.53308778335E+02  0.30197857738E+02 -0.18153140734E+03  0.21284286226E+03  0.92707581696E+02 0.  0.
         23    2    1    2    0    0  0.53308778335E+02 -0.30197857738E+02 -0.11954291536E+04  0.12035166255E+04  0.12509064775E+03 0.  0.
          5    1    4    4  502    0  0.92551287447E+02 -0.35962543622E+02 -0.84268512495E+03  0.84852503649E+03  0.41800000000E+01 0. -1.
         -5    1    4    4    0  502 -0.39242509113E+02  0.57646858834E+01 -0.35274402863E+03  0.35499158899E+03  0.41800000000E+01 0. -1.
        -11    1    3    3    0    0 -0.46691768977E+02 -0.19106352958E+02 -0.45263942073E+02  0.67779041492E+02  0.00000000000E+00 0.  1.
         11    1    3    3    0    0 -0.66170093582E+01  0.49304210696E+02 -0.13626746527E+03  0.14506382077E+03  0.00000000000E+00 0. -1.
</event>
<event>
 7    1  0.5900800E-006  0.1345442E+03  0.7561462E-02  0.1220865E+00
         -2   -1    0    0    0  501 -0.00000000000E+00  0.00000000000E+00  0.22256366285E+03  0.22256366285E+03  0.00000000000E+00 0.  1.
          2   -1    0    0  501    0  0.00000000000E+00 -0.00000000000E+00 -0.10688336435E+03  0.10688336435E+03  0.00000000000E+00 0. -1.
         23    2    1    2    0    0  0.24628423743E+02  0.61930105319E+02  0.10761558570E+03  0.15554674637E+03  0.90397891681E+02 0.  0.
          5    1    1    2  502    0 -0.83275786505E+02 -0.21102102588E+02 -0.32119068957E+02  0.91811014275E+02  0.41800000000E+01 0. -1.
         -5    1    1    2    0  502  0.58647362762E+02 -0.40828002732E+02  0.40183781754E+02  0.82089266545E+02  0.41800000000E+01 0.  1.
        -11    1    3    3    0    0 -0.30469338798E+02  0.44069454616E+02  0.42406511370E+02  0.68328688290E+02  0.00000000000E+00 0. -1.
         11    1    3    3    0    0  0.55097762541E+02  0.17860650704E+02  0.65209074332E+02  0.87218058083E+02  0.00000000000E+00 0.  1.
</event>
<event>
 8    1  0.5900800E-006  0.1502407E+03  0.7561462E-02  0.1200178E+00
          4   -1    0    0  501    0  0.00000000000E+00  0.00000000000E+00  0.52304302484E+03  0.52304302484E+03  0.00000000000E+00 0. -1.
         -4   -1    0    0    0  501 -0.00000000000E+00 -0.00000000000E+00 -0.55768721942E+02  0.55768721942E+02  0.00000000000E+00 0.  1.
         23    2    1    2    0    0 -0.52539204894E+02  0.12016132773E+03  0.20119183752E+03  0.25686871881E+03  0.91127770123E+02 0.  0.
         23    2    1    2    0    0  0.52539204894E+02 -0.12016132773E+03  0.26608246538E+03  0.32194302797E+03  0.12509325380E+03 0.  0.
          5    1    4    4  502    0 -0.13638021838E+02 -0.27961845802E+02  0.17091189084E+03  0.17377055933E+03  0.41800000000E+01 0.  1.
         -5    1    4    4    0  502  0.66177226731E+02 -0.92199481925E+02  0.95170574546E+02  0.14817246865E+03  0.41800000000E+01 0.  1.
        -11    1    3    3    0    0  0.13246995463E+02  0.73954366121E+02  0.68211983516E+02  0.10147711985E+03  0.00000000000E+00 0.  1.
         11    1    3    3    0    0 -0.65786200356E+02  0.46206961606E+02  0.13297985401E+03  0.15539159897E+03  0.00000000000E+00 0. -1.
</event>
<event>
 8    1  0.5900800E-006  0.1223571E+03  0.7561462E-02  0.1239259E+00
         -2   -1    0    0    0  501 -0.00000000000E+00  0.00000000000E+00  0.12984379138E+03  0.12984379138E+03  0.00000000000E+00 0. -1.
          2   -1    0    0  501    0  0.00000000000E+00 -0.00000000000E+00 -0.15591473672E+03  0.15591473672E+03  0.00000000000E+00 0.  1.
         23    2    1    2    0    0 -0.45275800323E+02  0.70073957885E+02  0.24294541950E+02  0.12718785389E+03  0.92877703131E+02 0.  0.
         23    2    1    2    0    0  0.45275800323E+02 -0.70073957885E+02 -0.50365487290E+02  0.15857067421E+03  0.12509084196E+03 0.  0.
          5    1    4    4  502    0  0.26765307962E+02  0.21871926863E+02 -0.54414004795E+02  0.64599684309E+02  0.41800000000E+01 0. -1.
         -5    1    4    4    0  502  0.18510492361E+02 -0.91945884748E+02  0.40485175044E+01  0.93970989904E+02  0.41800000000E+01 0. -1.
        -11    1    3    3    0    0  0.11661132108E+02  0.56217813034E+02 -0.11453562769E+02  0.58545782124E+02  0.00000000000E+00 0. -1.
         11    1    3    3    0    0 -0.56936932431E+02  0.13856144851E+02  0.35748104719E+02  0.68642071761E+02  0.00000000000E+00 0.  1.
</event>
<event>
 8    1  0.5900800E-006  0.1102144E+03  0.7561462E-02  0.1260173E+00
          2   -1    0    0  501    0  0.00000000000E+00  0.00000000000E+00  0.14837678228E+04  0.14837678228E+04  0.00000000000E+00 0. -1.
         -2   -1    0    0    0  501 -0.00000000000E+00 -0.00000000000E+00 -0.12045158887E+02  0.12045158887E+02  0.00000000000E+00 0.  1.
         23    2    1    2    0    0  0.47594971829E+02  0.16635787843E+02  0.35263914906E+03  0.36863190459E+03  0.94831855658E+02 0.  0.
         23    2    1    2    0    0 -0.47594971829E+02 -0.16635787843E+02  0.11190835149E+04  0.11271810771E+04  0.12508891470E+03 0.  0.
          5    1    4    4  502    0 -0.62614095642E+02  0.27557777760E+02  0.34859756773E+03  0.35527129453E+03  0.41800000000E+01 0. -1.
         -5    1    4    4    0  502  0.15019123813E+02 -0.44193565603E+02  0.77048594713E+03  0.77190978259E+03  0.41800000000E+01 0. -1.
        -11    1    3    3    0    0  0.38420498700E+02  0.54157248477E+02  0.18368531325E+03  0.19531880756E+03  0.00000000000E+00 0.  1.
         11    1    3    3    0    0  0.91744731290E+01 -0.37521460634E+02  0.16895383581E+03  0.17331309703E+03  0.00000000000E+00 0. -1.
</event>
<event>
 8    1  0.5900800E-006  0.1015135E+03  0.7561462E-02  0.1277145E+00
         -1   -1    0    0    0  501 -0.00000000000E+00  0.00000000000E+00  0.55251043341E+03  0.55251043341E+03  0.00000000000E+00 0.  1.
          1   -1    0    0  501    0  0.00000000000E+00 -0.00000000000E+00 -0.31560186918E+02  0.31560186918E+02  0.00000000000E+00 0. -1.
         23    2    1    2    0    0 -0.55929256429E+02  0.39986930964E+02  0.29902177430E+03  0.32020105686E+03  0.91584163136E+02 0.  0.
         23    2    1    2    0    0  0.55929256429E+02 -0.39986930964E+02  0.22192847219E+03  0.26386956347E+03  0.12509142010E+03 0.  0.
          5    1    4    4  502    0 -0.13179293486E+02  0.23647004775E+02  0.55614981672E+01  0.27951337597E+02  0.41800000000E+01 0.  1.
         -5    1    4    4    0  502  0.69108549915E+02 -0.63633935739E+02  0.21636697403E+03  0.23591822587E+03  0.41800000000E+01 0.  1.
        -11    1    3    3    0    0 -0.46333272184E+02  0.65278978433E+01  0.27237419353E+03  0.27636404771E+03  0.00000000000E+00 0. -1.
         11    1    3    3    0    0 -0.95959842445E+01  0.33459033121E+02  0.26647580766E+02  0.43837009155E+02  0.00000000000E+00 0.  1.
</event>
<event>
 8    1  0.5900800E-006  0.7923110E+02  0.7561462E-02  0.1331248E+00
         -2   -1    0    0    0  501 -0.00000000000E+00  0.00000000000E+00  0.11217911102E+03  0.11217911102E+03  0.00000000000E+00 0.  1.
          2   -1    0    0  501    0  0.00000000000E+00 -0.00000000000E+00 -0.20960336472E+03  0.20960336472E+03  0.00000000000E+00 0. -1.
         23    2    1    2    0    0 -0.21283606906E+01  0.11698634886E+02  0.68134532875E+02  0.11394116835E+03  0.90547707304E+02 0.  0.
         23    2    1    2    0    0  0.21283606906E+01 -0.11698634886E+02 -0.16555878657E+03  0.20784130739E+03  0.12508760638E+03 0.  0.
          5    1    4    4  502    0  0.20232183173E+02 -0.33096658511E+02  0.86198081575E+00  0.39024933715E+02  0.41800000000E+01 0.  1.
         -5    1    4    4    0  502 -0.18103822483E+02  0.21398023625E+02 -0.16642076738E+03  0.16881637367E+03  0.41800000000E+01 0.  1.
        -11    1    3    3    0    0  0.35226369364E+02 -0.21384585414E+02  0.26923934955E+02  0.49224951654E+02  0.00000000000E+00 0.  1.
         11    1    3    3    0    0 -0.37354730054E+02  0.33083220300E+02  0.41210597920E+02  0.64716216699E+02  0.00000000000E+00 0. -1.
</event>
<event>
 8    1  0.5900800E-006  0.1576922E+03  0.7561462E-02  0.1191327E+00
         -1   -1    0    0    0  501 -0.00000000000E+00  0.00000000000E+00  0.34252092230E+02  0.34252092230E+02  0.00000000000E+00 0.  1.
          1   -1    0    0  501    0  0.00000000000E+00 -0.00000000000E+00 -0.87496803923E+03  0.87496803923E+03  0.00000000000E+00 0. -1.
         23    2    1    2    0    0  0.23595140696E+02  0.12942331848E+03 -0.33497103370E+03  0.37188089501E+03  0.93715957154E+02 0.  0.
         23    2    1    2    0    0 -0.23595140696E+02 -0.12942331848E+03 -0.50574491330E+03  0.53733923645E+03  0.12509361161E+03 0.  0.
          5    1    4    4  502    0 -0.51248735807E+02 -0.41512188721E+01 -0.11467929134E+03  0.12574767514E+03  0.41800000000E+01 0. -1.
         -5    1    4    4    0  502  0.27653595111E+02 -0.12527209961E+03 -0.39106562196E+03  0.41159156131E+03  0.41800000000E+01 0. -1.
        -11    1    3    3    0    0  0.11111273427E+02  0.11799514301E+03 -0.33458077443E+03  0.35495155837E+03  0.00000000000E+00 0. -1.
         11    1    3    3    0    0  0.12483867268E+02  0.11428175477E+02 -0.39025926411E+00  0.16929336638E+02  0.00000000000E+00 0.  1.
</event>
<event>
 8    1  0.5900800E-006  0.1388189E+03  0.7561462E-02  0.1214927E+00
         -4   -1    0    0    0  501 -0.00000000000E+00  0.00000000000E+00  0.30829795015E+03  0.30829795015E+03  0.00000000000E+00 0. -1.
          4   -1    0    0  501    0  0.00000000000E+00 -0.00000000000E+00 -0.10382844892E+03  0.10382844892E+03  0.00000000000E+00 0.  1.
         23    2    1    2    0    0  0.11784184114E+03 -0.29984193266E+02  0.18127315118E+03  0.23613266834E+03  0.90071806618E+02 0.  0.
         23    2    1    2    0    0 -0.11784184114E+03  0.29984193266E+02  0.23196350044E+02  0.17599373074E+03  0.12509984506E+03 0.  0.
          5    1    4    4  502    0 -0.76943876869E+02  0.43300929623E+02 -0.41932539512E+02  0.97832208213E+02  0.41800000000E+01 0.  1.
         -5    1    4    4    0  502 -0.40897964270E+02 -0.13316736357E+02  0.65128889556E+02  0.78161522525E+02  0.41800000000E+01 0.  1.
        -11    1    3    3    0    0  0.10794395795E+02  0.23874138225E+02  0.12206817507E+02  0.28905014274E+02  0.00000000000E+00 0. -1.
         11    1    3    3    0    0  0.10704744534E+03 -0.53858331491E+02  0.16906633368E+03  0.20722765406E+03  0.00000000000E+00 0.  1.
</event>
<event>
 7    1  0.5900800E-006  0.1227698E+03  0.7561462E-02  0.1238597E+00
          1   -1    0    0  501    0  0.00000000000E+00  0.00000000000E+00  0.14829271230E+03  0.14829271230E+03  0.00000000000E+00 0. -1.
         -1   -1    0    0    0  501 -0.00000000000E+00 -0.00000000000E+00 -0.17014236683E+03  0.17014236683E+03  0.00000000000E+00 0.  1.
         23    2    1    2    0    0 -0.98409209584E+01 -0.20063973194E+02 -0.10068766849E+03  0.14128585390E+03  0.96562307248E+02 0.  0.
          5    1    1    2  502    0 -0.58497693276E+02  0.53836554473E+02  0.23990464573E+02  0.83146674657E+02  0.41800000000E+01 0. -1.
         -5    1    1    2    0  502  0.68338614235E+02 -0.33772581279E+02  0.54847549383E+02  0.94002550577E+02  0.41800000000E+01 0.  1.
        -11    1    3    3    0    0 -0.33665354780E+02  0.22720970085E+02 -0.76622276451E+02  0.86721230634E+02  0.00000000000E+00 0. -1.
         11    1    3    3    0    0  0.23824433821E+02 -0.42784943279E+02 -0.24065392037E+02  0.54564623267E+02  0.00000000000E+00 0.  1.
</event>
<event>
 8    1  0.5900800E-006  0.8368460E+02  0.7561462E-02  0.1318909E+00
         -1   -1    0    0    0  501 -0.00000000000E+00  0.00000000000E+00  0.12691765255E+03  0.12691765255E+03  0.00000000000E+00 0.  1.
          1   -1    0    0  501    0  0.00000000000E+00 -0.00000000000E+00 -0.11500234664E+03  0.11500234664E+03  0.00000000000E+00 0. -1.
         23    2    1    2    0    0  0.30374863745E+02 -0.39217581427E+02  0.28039508661E+02  0.10639136242E+03  0.89845739525E+02 0.  0.
         23    2    1    2    0    0 -0.30374863745E+02  0.39217581427E+02 -0.16124202750E+02  0.13552863677E+03  0.12508944972E+03 0.  0.
          5    1    4    4  502    0 -0.22824697610E+01 -0.90237363133E+01  0.48769386837E+02  0.49825324663E+02  0.41800000000E+01 0.  1.
         -5    1    4    4    0  502 -0.28092393984E+02  0.48241317740E+02 -0.64893589587E+02  0.85703312109E+02  0.41800000000E+01 0.  1.
        -11    1    3    3    0    0  0.57804967247E+02 -0.44872758464E+02  0.28091338593E+02  0.78384322378E+02  0.00000000000E+00 0. -1.
         11    1    3    3    0    0 -0.27430103503E+02  0.56551770379E+01 -0.51829931443E-01  0.28007040041E+02  0.00000000000E+00 0.  1.
</event>
<event>
 8    1  0.5900800E-006  0.1002359E+03  0.7561462E-02  0.1279801E+00
         -2   -1    0    0    0  501 -0.00000000000E+00  0.00000000000E+00  0.35795059358E+02  0.35795059358E+02  0.00000000000E+00 0.  1.
          2   -1    0    0  501    0  0.00000000000E+00 -0.00000000000E+00 -0.36261038126E+03  0.36261038126E+03  0.00000000000E+00 0. -1.
         23    2    1    2    0    0  0.69850550901E-01  0.34564160676E+02 -0.14492687879E+03  0.17496478083E+03  0.91728884509E+02 0.  0.
         23    2    1    2    0    0 -0.69850550901E-01 -0.34564160676E+02 -0.18188844312E+03  0.22344065979E+03  0.12509051373E+03 0.  0.
          5    1    4    4  502    0  0.27044728675E+02 -0.71924770175E+02 -0.14517648154E+03  0.16431151240E+03  0.41800000000E+01 0. -1.
         -5    1    4    4    0  502 -0.27114579225E+02  0.37360609499E+02 -0.36711961573E+02  0.59129147391E+02  0.41800000000E+01 0. -1.
        -11    1    3    3    0    0 -0.22297154073E+02  0.46676699511E+02 -0.35790408890E+02  0.62903344311E+02  0.00000000000E+00 0.  1.
         11    1    3    3    0    0  0.22367004624E+02 -0.12112538835E+02 -0.10913646990E+03  0.11206143652E+03  0.00000000000E+00 0. -1.
</event>
<event>
 8    1  0.5900800E-006  0.1948980E+03  0.7561462E-02  0.1154116E+00
          2   -1    0    0  501    0  0.00000000000E+00  0.00000000000E+00  0.13944354919E+03  0.13944354919E+03  0.00000000000E+00 0.  1.
         -2   -1    0    0    0  501 -0.00000000000E+00 -0.00000000000E+00 -0.46319912559E+03  0.46319912559E+03  0.00000000000E+00 0. -1.
         23    2    1    2    0    0  0.64754220768E+01  0.18213016785E+03 -0.32283577578E+03  0.38159527630E+03  0.90436096969E+02 0.  0.
         23    2    1    2    0    0 -0.64754220768E+01 -0.18213016785E+03 -0.91980062198E+00  0.22104739848E+03  0.12509107566E+03 0.  0.
          5    1    4    4  502    0  0.28974094982E+02 -0.12476171506E+03  0.48832939503E+02  0.13713902473E+03  0.41800000000E+01 0. -1.
         -5    1    4    4    0  502 -0.35449517059E+02 -0.57368452791E+02 -0.49752740125E+02  0.83908373750E+02  0.41800000000E+01 0. -1.
        -11    1    3    3    0    0  0.23863411690E+02  0.20335470170E+02 -0.10569314791E+03  0.11024534131E+03  0.00000000000E+00 0.  1.
         11    1    3    3    0    0 -0.17387989614E+02  0.16179469768E+03 -0.21714262787E+03  0.27134993499E+03  0.00000000000E+00 0. -1.
</event>
<event>
 8    1  0.5900800E-006  0.9573246E+02  0.7561462E-02  0.1289535E+00
         -1   -1    0    0    0  501 -0.00000000000E+00  0.00000000000E+00  0.14013732652E+02  0.14013732652E+02  0.00000000000E+00 0.  1.
          1   -1    0    0  501    0  0.00000000000E+00 -0.00000000000E+00 -0.12514953240E+04  0.12514953240E+04  0.00000000000E+00 0. -1.
         23    2    1    2    0    0  0.15979564171E+01 -0.32552457924E+01 -0.19356823770E+03  0.21412136169E+03  0.91466632129E+02 0.  0.
         23    2    1    2    0    0 -0.15979564171E+01  0.32552457924E+01 -0.10439133537E+04  0.10513876950E+04  0.12509134710E+03 0.  0.
          5    1    4    4  502    0  0.18888269939E+02 -0.49492126103E+02 -0.76027385756E+03  0.76212862968E+03  0.41800000000E+01 0. -1.
         -5    1    4    4    0  502 -0.20486226356E+02  0.52747371896E+02 -0.28363949613E+03  0.28925906533E+03  0.41800000000E+01 0. -1.
        -11    1    3    3    0    0  0.27927597597E+02 -0.32088720290E+02 -0.51564000902E+02  0.66846711710E+02  0.00000000000E+00 0.  1.
         11    1    3    3    0    0 -0.26329641180E+02  0.28833474497E+02 -0.14200423680E+03  0.14727464998E+03  0.00000000000E+00 0. -1.
</event>
<event>
 7    1  0.5900800E-006  0.1107912E+03  0.7561462E-02  0.1259112E+00
          1   -1    0    0  501    0  0.00000000000E+00  0.00000000000E+00  0.60698760912E+03  0.60698760912E+03  0.00000000000E+00 0. -1.
         -1   -1    0    0    0  501 -0.00000000000E+00 -0.00000000000E+00 -0.23606938444E+02  0.23606938444E+02  0.00000000000E+00 0.  1.
         23    2    1    2    0    0  0.10496628802E+02  0.28267382542E+02  0.22737918789E+03  0.24858226785E+03  0.95826012494E+02 0.  0.
          5    1    1    2  502    0 -0.49870617031E+02 -0.58067352956E+02  0.13244966670E+03  0.15303359936E+03  0.41800000000E+01 0. -1.
         -5    1    1    2    0  502  0.39373988229E+02  0.29799970413E+02  0.22355181609E+03  0.22897868037E+03  0.41800000000E+01 0.  1.
        -11    1    3    3    0    0 -0.21085182545E+02  0.51837113573E+02  0.17000028880E+03  0.17897421451E+03  0.00000000000E+00 0.  1.
         11    1    3    3    0    0  0.31581811347E+02 -0.23569731031E+02  0.57378899083E+02  0.69608053333E+02  0.00000000000E+00 0. -1.
</event>
<event>
 8    1  0.5900800E-006  0.1378885E+03  0.7561462E-02  0.1216199E+00
         -2   -1    0    0    0  501 -0.00000000000E+00  0.00000000000E+00  0.17020217875E+02  0.17020217875E+02  0.00000000000E+00 0. -1.
          2   -1    0    0  501    0  0.00000000000E+00 -0.00000000000E+00 -0.11996059584E+04  0.11996059584E+04  0.00000000000E+00 0.  1.
         23    2    1    2    0    0 -0.81666168444E+02 -0.31490933598E+02 -0.40827709405E+03  0.42740981508E+03  0.91257451934E+02 0.  0.
         23    2    1    2    0    0  0.81666168444E+02  0.31490933598E+02 -0.77430864644E+03  0.78921636116E+03  0.12509013872E+03 0.  0.
          5    1    4    4  502    0  0.13849143471E+02 -0.45188908496E+02 -0.32002499417E+03  0.32352326890E+03  0.41800000000E+01 0. -1.
         -5    1    4    4    0  502  0.67817024973E+02  0.76679842093E+02 -0.45428365227E+03  0.46569309226E+03  0.41800000000E+01 0. -1.
        -11    1    3    3    0    0 -0.94257010898E+02 -0.47468137647E+02 -0.35603907216E+03  0.37135081674E+03  0.00000000000E+00 0. -1.
         11    1    3    3    0    0  0.12590842455E+02  0.15977204049E+02 -0.52238021895E+02  0.56058998336E+02  0.00000000000E+00 0.  1.
</event>
<event>
 8    1  0.5900800E-006  0.9049496E+02  0.7561462E-02  0.1301657E+00
          1   -1    0    0  501    0  0.00000000000E+00  0.00000000000E+00  0.12113292857E+03  0.12113292857E+03  0.00000000000E+00 0. -1.
         -1   -1    0    0    0  501 -0.00000000000E+00 -0.00000000000E+00 -0.97923843592E+02  0.97923843592E+02  0.00000000000E+00 0.  1.
         23    2    1    2    0    0 -0.13998848641E+01  0.14565244265E+02 -0.10290897311E+02  0.95532584844E+02  0.93842773731E+02 0.  0.
         23    2    1    2    0    0  0.13998848641E+01 -0.14565244265E+02  0.33499982289E+02  0.12352418732E+03  0.11799097432E+03 0.  0.
          5    1    4    4  502    0  0.56164928969E+02  0.11778527472E+02  0.21587067422E+02  0.61454917096E+02  0.41800000000E+01 0. -1.
         -5    1    4    4    0  502 -0.54765044105E+02 -0.26343771737E+02  0.11912914868E+02  0.62069270221E+02  0.41800000000E+01 0.  1.
        -11    1    3    3    0    0 -0.11361445941E+02  0.36616669528E+02  0.29900106379E+02  0.48619741903E+02  0.00000000000E+00 0. -1.
         11    1    3    3    0    0  0.99615610767E+01 -0.22051425263E+02 -0.40191003691E+02  0.46912842942E+02  0.00000000000E+00 0.  1.
</event>
<event>
 8    1  0.5900800E-006  0.7941030E+02  0.7561462E-02  0.1330733E+00
          1   -1    0    0  501    0  0.00000000000E+00  0.00000000000E+00  0.16044541378E+03  0.16044541378E+03  0.00000000000E+00 0.  1.
         -1   -1    0    0    0  501 -0.00000000000E+00 -0.00000000000E+00 -0.10034847291E+03  0.10034847291E+03  0.00000000000E+00 0. -1.
         23    2    1    2    0    0 -0.64690686832E+01  0.18276591965E+02 -0.37052151268E+02  0.10122863545E+03  0.92187266252E+02 0.  0.
         23    2    1    2    0    0  0.64690686832E+01 -0.18276591965E+02  0.97149092143E+02  0.15956525124E+03  0.12508893091E+03 0.  0.
          5    1    4    4  502    0 -0.18369786049E+02 -0.32356006304E+02  0.11810825589E+03  0.12390073726E+03  0.41800000000E+01 0.  1.
         -5    1    4    4    0  502  0.24838854732E+02  0.14079414339E+02 -0.20959163747E+02  0.35664513981E+02  0.41800000000E+01 0.  1.
        -11    1    3    3    0    0 -0.89559791933E-01 -0.36939748635E+02 -0.55959527277E+01  0.37361313375E+02  0.00000000000E+00 0.  1.
         11    1    3    3    0    0 -0.63795088913E+01  0.55216340601E+02 -0.31456198541E+02  0.63867322080E+02  0.00000000000E+00 0. -1.
</event>
<event>
 8    1  0.5900800E-006  0.1565319E+03  0.7561462E-02  0.1192669E+00
         -1   -1    0    0    0  501 -0.00000000000E+00  0.00000000000E+00  0.18999210892E+03  0.18999210892E+03  0.00000000000E+00 0.  1.
          1   -1    0    0  501    0  0.00000000000E+00 -0.00000000000E+00 -0.18037314138E+03  0.18037314138E+03  0.00000000000E+00 0. -1.
         23    2    1    2    0    0  0.10001599217E+03  0.10519282084E+03 -0.82647388678E+01  0.17791726651E+03  0.10255495877E+03 0.  0.
         23    2    1    2    0    0 -0.10001599217E+03 -0.10519282084E+03  0.17883706407E+02  0.19244798380E+03  0.12509065220E+03 0.  0.
          5    1    4    4  502    0 -0.43115758988E+02 -0.49808231911E+02  0.70906310542E+02  0.96876240192E+02  0.41800000000E+01 0. -1.
         -5    1    4    4    0  502 -0.56900233183E+02 -0.55384588925E+02 -0.53022604135E+02  0.95571743606E+02  0.41800000000E+01 0. -1.
        -11    1    3    3    0    0 -0.56275831881E+01  0.46198096749E+02 -0.29452921932E+02  0.55076387373E+02  0.00000000000E+00 0.  1.
         11    1    3    3    0    0  0.10564357536E+03  0.58994724086E+02  0.21188183064E+02  0.12284087913E+03  0.00000000000E+00 0. -1.
</event>
<event>
 8    1  0.5900800E-006  0.1325577E+03  0.7561462E-02  0.1223709E+00
          3   -1    0    0  501    0  0.00000000000E+00  0.00000000000E+00  0.11927473102E+03  0.11927473102E+03  0.00000000000E+00 0. -1.
         -3   -1    0    0    0  501 -0.00000000000E+00 -0.00000000000E+00 -0.30632430679E+03  0.30632430679E+03  0.00000000000E+00 0.  1.
         23    2    1    2    0    0  0.26577938634E+02 -0.10120309461E+03 -0.22905702272E+03  0.26792895453E+03  0.91489626928E+02 0.  0.
         23    2    1    2    0    0 -0.26577938634E+02  0.10120309461E+03  0.42007446950E+02  0.15767008329E+03  0.11021241483E+03 0.  0.
          5    1    4    4  502    0  0.35481127011E+02  0.71927522160E+02  0.37892951494E+02  0.88802178977E+02  0.41800000000E+01 0. -1.
         -5    1    4    4    0  502 -0.62059065645E+02  0.29275572455E+02  0.41144954553E+01  0.68867904311E+02  0.41800000000E+01 0.  1.
        -11    1    3    3    0    0  0.99502853552E+00 -0.86591915512E+02 -0.22103735355E+03  0.23739558037E+03  0.00000000000E+00 0.  1.
         11    1    3    3    0    0  0.25582910099E+02 -0.14611179103E+02 -0.80196691674E+01  0.30533374158E+02  0.00000000000E+00 0. -1.
</event>
<event>
 8    1  0.5900800E-006  0.1088780E+03  0.7561462E-02  0.1262662E+00
         -1   -1    0    0    0  501 -0.00000000000E+00  0.00000000000E+00  0.31193860208E+02  0.31193860208E+02  0.00000000000E+00 0.  1.
          1   -1    0    0  501    0  0.00000000000E+00 -0.00000000000E+00 -0.63891845920E+03  0.63891845920E+03  0.00000000000E+00 0. -1.
         23    2    1    2    0    0  0.27544816550E+02 -0.49668309183E+02 -0.10815234513E+03  0.15199450583E+03  0.90441927175E+02 0.  0.
         23    2    1    2    0    0 -0.27544816550E+02  0.49668309183E+02 -0.49957225386E+03  0.51811781357E+03  0.12509186247E+03 0.  0.
          5    1    4    4  502    0 -0.57048005505E+02  0.19633311259E+01 -0.39727847183E+03  0.40138010188E+03  0.41800000000E+01 0.  1.
         -5    1    4    4    0  502  0.29503188955E+02  0.47704978057E+02 -0.10229378203E+03  0.11673771170E+03  0.41800000000E+01 0.  1.
        -11    1    3    3    0    0  0.29138463036E+02  0.19517269302E+02 -0.21646376860E+02  0.41213340804E+02  0.00000000000E+00 0.  1.
         11    1    3    3    0    0 -0.15936464859E+01 -0.69185578484E+02 -0.86505968267E+02  0.11078116503E+03  0.00000000000E+00 0. -1.
</event>
<event>
 8    1  0.5900800E-006  0.9671490E+02  0.7561462E-02  0.1287360E+00
          1   -1    0    0  501    0  0.00000000000E+00  0.00000000000E+00  0.24650505458E+02  0.24650505458E+02  0.00000000000E+00 0. -1.
         -1   -1    0    0    0  501 -0.00000000000E+00 -0.00000000000E+00 -0.51696163032E+03  0.51696163032E+03  0.00000000000E+00 0.  1.
         23    2    1    2    0    0  0.64763818555E+01  0.87854317164E+01 -0.27594656206E+03  0.29145782366E+03  0.93177414256E+02 0.  0.
         23    2    1    2    0    0 -0.64763818555E+01 -0.87854317164E+01 -0.21636456281E+03  0.25015431212E+03  0.12507768987E+03 0.  0.
          5    1    4    4  502    0 -0.44013597738E+02 -0.33003465171E+02 -0.39931883168E+02  0.68106190560E+02  0.41800000000E+01 0. -1.
         -5    1    4    4    0  502  0.37537215883E+02  0.24218033454E+02 -0.17643267964E+03  0.18204812156E+03  0.41800000000E+01 0. -1.
        -11    1    3    3    0    0  0.47080991758E+02 -0.10809661357E+02 -0.12887333596E+03  0.13762923122E+03  0.00000000000E+00 0.  1.
         11    1    3    3    0    0 -0.40604609903E+02  0.19595093074E+02 -0.14707322610E+03  0.15382859244E+03  0.00000000000E+00 0. -1.
</event>
<event>
 8    1  0.5900800E-006  0.1361891E+03  0.7561462E-02  0.1218551E+00
         -1   -1    0    0    0  501 -0.00000000000E+00  0.00000000000E+00  0.42085946206E+03  0.42085946206E+03  0.00000000000E+00 0.  1.
          1   -1    0    0  501    0  0.00000000000E+00 -0.00000000000E+00 -0.54873008907E+02  0.54873008907E+02  0.00000000000E+00 0. -1.
         23    2    1    2    0    0 -0.59914429678E+02  0.31019655978E+02  0.26902757809E+03  0.30368561907E+03  0.12368168627E+03 0.  0.
         23    2    1    2    0    0  0.59914429678E+02 -0.31019655978E+02  0.96958875058E+02  0.17204685189E+03  0.12508852007E+03 0.  0.
          5    1    4    4  502    0  0.18643718455E+02 -0.74790892065E+02  0.32438080247E+02  0.83731518700E+02  0.41800000000E+01 0.  1.
         -5    1    4    4    0  502  0.41270711222E+02  0.43771236087E+02  0.64520794811E+02  0.88315333190E+02  0.41800000000E+01 0.  1.
        -11    1    3    3    0    0 -0.95554456152E+02  0.20616007911E+02  0.15033502844E+03  0.17932176290E+03  0.00000000000E+00 0. -1.
         11    1    3    3    0    0  0.35640026474E+02  0.10403648066E+02  0.11869254966E+03  0.12436385618E+03  0.00000000000E+00 0.  1.
</event>
<event>
 8    1  0.5900800E-006  0.1362557E+03  0.7561462E-02  0.1218458E+00
          2   -1    0    0  501    0  0.00000000000E+00  0.00000000000E+00  0.53796608884E+03  0.53796608884E+03  0.00000000000E+00 0. -1.
         -2   -1    0    0    0  501 -0.00000000000E+00 -0.00000000000E+00 -0.43987021957E+02  0.43987021957E+02  0.00000000000E+00 0.  1.
         23    2    1    2    0    0 -0.96055611116E+02 -0.20995970510E+02  0.13759153048E+03  0.19166136655E+03  0.90195005202E+02 0.  0.
         23    2    1    2    0    0  0.96055611116E+02  0.20995970510E+02  0.35638753641E+03  0.39029174425E+03  0.12509219927E+03 0.  0.
          5    1    4    4  502    0  0.28494945222E+02  0.55963037693E+02  0.25957104300E+03  0.26709253500E+03  0.41800000000E+01 0. -1.
         -5    1    4    4    0  502  0.67560665895E+02 -0.34967067183E+02  0.96816493413E+02  0.12319920925E+03  0.41800000000E+01 0. -1.
        -11    1    3    3    0    0 -0.25631094835E+02 -0.50810308027E+02  0.56332435137E+02  0.80074862927E+02  0.00000000000E+00 0.  1.
         11    1    3    3    0    0 -0.70424516281E+02  0.29814337517E+02  0.81259095342E+02  0.11158650362E+03  0.00000000000E+00 0. -1.
</event>
<event>
 8    1  0.5900800E-006  0.6466871E+02  0.7561462E-02  0.1379222E+00
          2   -1    0    0  501    0  0.00000000000E+00  0.00000000000E+00  0.74902059016E+03  0.74902059016E+03  0.00000000000E+00 0. -1.
         -2   -1    0    0    0  501 -0.00000000000E+00 -0.00000000000E+00 -0.16583839480E+02  0.16583839480E+02  0.00000000000E+00 0.  1.
         23    2    1    2    0    0  0.89431803293E+01 -0.17427527653E+02  0.29512769042E+03  0.31033470793E+03  0.93933902834E+02 0.  0.
         23    2    1    2    0    0 -0.89431803293E+01  0.17427527653E+02  0.43730906027E+03  0.45526972171E+03  0.12509039181E+03 0.  0.
          5    1    4    4  502    0 -0.26633148088E+02  0.61514853349E+00  0.12470206913E+02  0.29709955322E+02  0.41800000000E+01 0. -1.
         -5    1    4    4    0  502  0.17689967759E+02  0.16812379119E+02  0.42483885335E+03  0.42555976639E+03  0.41800000000E+01 0. -1.
        -11    1    3    3    0    0  0.26121162747E+02  0.22289412139E+02  0.45602819131E+02  0.57085463556E+02  0.00000000000E+00 0.  1.
         11    1    3    3    0    0 -0.17177982417E+02 -0.39716939792E+02  0.24952487128E+03  0.25324924437E+03  0.00000000000E+00 0. -1.
</event>
<event>
 7    1  0.5900800E-006  0.1404143E+03  0.7561462E-02  0.1212773E+00
         -2   -1    0    0    0  501 -0.00000000000E+00  0.00000000000E+00  0.13329104983E+02  0.13329104983E+02  0.00000000000E+00 0.  1.
          2   -1    0    0  501    0  0.00000000000E+00 -0.00000000000E+00 -0.15340274397E+04  0.15340274397E+04  0.00000000000E+00 0. -1.
         23    2    1    2    0    0  0.42032776753E+02  0.36474000401E+02 -0.49001150941E+03  0.50323077312E+03  0.10016398875E+03 0.  0.
          5    1    1    2  502    0 -0.10003319283E+03 -0.41877747797E+02 -0.65712484272E+03  0.66602621326E+03  0.41800000000E+01 0. -1.
         -5    1    1    2    0  502  0.58000416074E+02  0.54037473960E+01 -0.37356198261E+03  0.37809955832E+03  0.41800000000E+01 0.  1.
        -11    1    3    3    0    0 -0.30637578311E+02  0.26579920352E+02 -0.20165027699E+03  0.20568905557E+03  0.00000000000E+00 0. -1.
         11    1    3    3    0    0  0.72670355063E+02  0.98940800488E+01 -0.28836123242E+03  0.29754171756E+03  0.00000000000E+00 0.  1.
</event>
<event>
 8    1  0.5900800E-006  0.1220036E+03  0.7561462E-02  0.1239828E+00
         -1   -1    0    0    0  501 -0.00000000000E+00  0.00000000000E+00  0.24356317854E+02  0.24356317854E+02  0.00000000000E+00 0.  1.
          1   -1    0    0  501    0  0.00000000000E+00 -0.00000000000E+00 -0.69876122875E+03  0.69876122875E+03  0.00000000000E+00 0. -1.
         23    2    1    2    0    0  0.41897690043E+02  0.48928837960E+02 -0.29207978495E+03  0.31572138949E+03  0.10109375546E+03 0.  0.
         23    2    1    2    0    0 -0.41897690043E+02 -0.48928837960E+02 -0.38232512595E+03  0.40739615711E+03  0.12509867818E+03 0.  0.
          5    1    4    4  502    0  0.63420347429E+01 -0.73492102560E+02 -0.13219139085E+03  0.15143760021E+03  0.41800000000E+01 0.  1.
         -5    1    4    4    0  502 -0.48239724786E+02  0.24563264599E+02 -0.25013373510E+03  0.25595855690E+03  0.41800000000E+01 0.  1.
        -11    1    3    3    0    0  0.19334070210E+02 -0.28913714647E+02 -0.12908163787E+03  0.13368574494E+03  0.00000000000E+00 0.  1.
         11    1    3    3    0    0  0.22563619833E+02  0.77842552607E+02 -0.16299814707E+03  0.18203564455E+03  0.00000000000E+00 0. -1.
</event>
<event>
 8    1  0.5900800E-006  0.1516175E+03  0.7561462E-02  0.1198499E+00
          1   -1    0    0  501    0  0.00000000000E+00  0.00000000000E+00  0.62775258233E+03  0.62775258233E+03  0.00000000000E+00 0. -1.
         -1   -1    0    0    0  501 -0.00000000000E+00 -0.00000000000E+00 -0.43726066441E+02  0.43726066441E+02  0.00000000000E+00 0.  1.
         23    2    1    2    0    0 -0.45694313006E+02 -0.97603053551E+02  0.15262004781E+03  0.20955314852E+03  0.94896347455E+02 0.  0.
         23    2    1    2    0    0  0.45694313006E+02  0.97603053551E+02  0.43140646808E+03  0.46192550024E+03  0.12509716532E+03 0.  0.
          5    1    4    4  502    0  0.57661077905E+02  0.12330466928E+03  0.36604620409E+03  0.39055875013E+03  0.41800000000E+01 0.  1.
         -5    1    4    4    0  502 -0.11966764900E+02 -0.25701615733E+02  0.65360263988E+02  0.71366750115E+02  0.41800000000E+01 0.  1.
        -11    1    3    3    0    0  0.25540208422E+02 -0.16303349386E+02  0.59958703233E+02  0.67179963834E+02  0.00000000000E+00 0. -1.
         11    1    3    3    0    0 -0.71234521428E+02 -0.81299704166E+02  0.92661344573E+02  0.14237318469E+03  0.00000000000E+00 0.  1.
</event>
<event>
 8    1  0.5900800E-006  0.1179336E+03  0.7561462E-02  0.1246545E+00
          2   -1    0    0  501    0  0.00000000000E+00  0.00000000000E+00  0.23529771935E+03  0.23529771935E+03  0.00000000000E+00 0. -1.
         -2   -1    0    0    0  501 -0.00000000000E+00 -0.00000000000E+00 -0.60156473615E+02  0.60156473615E+02  0.00000000000E+00 0.  1.
         23    2    1    2    0    0  0.13521739156E+02 -0.47825256048E+02  0.85094275725E+02  0.13351005114E+03  0.90076664285E+02 0.  0.
         23    2    1    2    0    0 -0.13521739156E+02  0.47825256048E+02  0.90046970011E+02  0.16194414183E+03  0.12508939091E+03 0.  0.
          5    1    4    4  502    0  0.41075429378E+02 -0.21197361241E+02  0.28346780621E+02  0.54383190360E+02  0.41800000000E+01 0. -1.
         -5    1    4    4    0  502 -0.54597168534E+02  0.69022617289E+02  0.61700189390E+02  0.10756095147E+03  0.41800000000E+01 0. -1.
        -11    1    3    3    0    0  0.48841658367E+02 -0.44153667110E+02  0.65853325245E+02  0.93122040125E+02  0.00000000000E+00 0. -1.
         11    1    3    3    0    0 -0.35319919211E+02 -0.36715889379E+01  0.19240950480E+02  0.40388011015E+02  0.00000000000E+00 0.  1.
</event>
<event>
 8    1  0.5900800E-006  0.1116949E+03  0.7561462E-02  0.1257463E+00
         -2   -1    0    0    0  501 -0.00000000000E+00  0.00000000000E+00  0.41775852388E+02  0.41775852388E+02  0.00000000000E+00 0.  1.
          2   -1    0    0  501    0  0.00000000000E+00 -0.00000000000E+00 -0.34937013239E+03  0.34937013239E+03  0.00000000000E+00 0. -1.
         23    2    1    2    0    0  0.38276681541E+02 -0.41916890331E+02 -0.13296285146E+03  0.16896054866E+03  0.87443793894E+02 0.  0.
         23    2    1    2    0    0 -0.38276681541E+02  0.41916890331E+02 -0.17463142855E+03  0.22218543612E+03  0.12509237444E+03 0.  0.
          5    1    4    4  502    0 -0.68872658558E+02 -0.14538673815E+02 -0.70064091846E+02  0.99404554722E+02  0.41800000000E+01 0. -1.
         -5    1    4    4    0  502  0.30595977017E+02  0.56455564146E+02 -0.10456733670E+03  0.12278088140E+03  0.41800000000E+01 0. -1.
        -11    1    3    3    0    0  0.45371024654E+02 -0.56408686838E+02 -0.59379760558E+02  0.93629193059E+02  0.00000000000E+00 0.  1.
         11    1    3    3    0    0 -0.70943431126E+01  0.14491796507E+02 -0.73583090897E+02  0.75331355598E+02  0.00000000000E+00 0. -1.
</event>
<event>
 8    1  0.5900800E-006  0.1221150E+03  0.7561462E-02  0.1239648E+00
          2   -1    0    0  501    0  0.00000000000E+00  0.00000000000E+00  0.27934220849E+03  0.27934220849E+03  0.00000000000E+00 0. -1.
         -2   -1    0    0    0  501 -0.00000000000E+00 -0.00000000000E+00 -0.63505793829E+02  0.63505793829E+02  0.00000000000E+00 0.  1.
         23    2    1    2    0    0 -0.80143057871E+02  0.38445407835E+02  0.56657352606E+02  0.12174410189E+03  0.60914789926E+02 0.  0.
         23    2    1    2    0    0  0.80143057871E+02 -0.38445407835E+02  0.15917906205E+03  0.22110390043E+03  0.12509197369E+03 0.  0.
          5    1    4    4  502    0  0.46140700449E+02 -0.75602522937E+02  0.14259016397E+03  0.16791108651E+03  0.41800000000E+01 0.  1.
         -5    1    4    4    0  502  0.34002357422E+02  0.37157115103E+02  0.16588898084E+02  0.53192813919E+02  0.41800000000E+01 0.  1.
        -11    1    3    3    0    0 -0.77121745970E+02  0.11579960490E+02  0.53393270782E+02  0.94512964990E+02  0.00000000000E+00 0. -1.
         11    1    3    3    0    0 -0.30213119008E+01  0.26865447344E+02  0.32640818245E+01  0.27231136898E+02  0.00000000000E+00 0.  1.
</event>
<event>
 8    1  0.5900800E-006  0.9502590E+02  0.7561462E-02  0.1291118E+00
         -1   -1    0    0    0  501 -0.00000000000E+00  0.00000000000E+00  0.37296845703E+02  0.37296845703E+02  0.00000000000E+00 0.  1.
          1   -1    0    0  501    0  0.00000000000E+00 -0.00000000000E+00 -0.24849544150E+04  0.24849544150E+04  0.00000000000E+00 0. -1.
         23    2    1    2    0    0  0.20279092980E+02 -0.48153112623E+02 -0.40675515248E+02  0.11182087894E+03  0.90107977220E+02 0.  0.
         23    2    1    2    0    0 -0.20279092980E+02  0.48153112623E+02 -0.24069820541E+04  0.24104303818E+04  0.11782212420E+03 0.  0.
          5    1    4    4  502    0  0.21248422237E+02  0.49700600133E+02 -0.20906750582E+04  0.20913778512E+04  0.41800000000E+01 0. -1.
         -5    1    4    4    0  502 -0.41527515218E+02 -0.15474875102E+01 -0.31630699583E+03  0.31905253055E+03  0.41800000000E+01 0.  1.
        -11    1    3    3    0    0 -0.10665123503E+02  0.18066261880E+02  0.96359352496E+01  0.23086487948E+02  0.00000000000E+00 0. -1.
         11    1    3    3    0    0  0.30944216484E+02 -0.66219374503E+02 -0.50311450498E+02  0.88734390991E+02  0.00000000000E+00 0.  1.
</event>
<event>
 8    1  0.5900800E-006  0.1163938E+03  0.7561462E-02  0.1249168E+00
          2   -1    0    0  501    0  0.00000000000E+00  0.00000000000E+00  0.11649268615E+04  0.11649268615E+04  0.00000000000E+00 0. -1.
         -2   -1    0    0    0  501 -0.00000000000E+00 -0.00000000000E+00 -0.15694013340E+02  0.15694013340E+02  0.00000000000E+00 0.  1.
         23    2    1    2    0    0  0.77751577240E+01 -0.33259777068E+02  0.23301026328E+03  0.25526800393E+03  0.98495203876E+02 0.  0.
         23    2    1    2    0    0 -0.77751577240E+01  0.33259777068E+02  0.91622258487E+03  0.92535287090E+03  0.12508974704E+03 0.  0.
          5    1    4    4  502    0  0.11789310334E+02 -0.45629548892E+02  0.28413763840E+03  0.28804984556E+03  0.41800000000E+01 0. -1.
         -5    1    4    4    0  502 -0.19564468058E+02  0.78889325960E+02  0.63208494647E+03  0.63730302534E+03  0.41800000000E+01 0. -1.
        -11    1    3    3    0    0 -0.35572483200E+02 -0.46699604485E+02  0.13841133965E+03  0.15034611257E+03  0.00000000000E+00 0.  1.
         11    1    3    3    0    0  0.43347640924E+02  0.13439827418E+02  0.94598923631E+02  0.10492189136E+03  0.00000000000E+00 0. -1.
</event>
<event>
 8    1  0.5900800E-006  0.9474596E+02  0.7561462E-02  0.1291749E+00
          2   -1    0    0  501    0  0.00000000000E+00  0.00000000000E+00  0.64682564778E+03  0.64682564778E+03  0.00000000000E+00 0. -1.
         -2   -1    0    0    0  501 -0.00000000000E+00 -0.00000000000E+00 -0.19218945837E+02  0.19218945837E+02  0.00000000000E+00 0.  1.
         23    2    1    2    0    0 -0.37942938341E+01 -0.16471503367E+02  0.18231810228E+03  0.20321173352E+03  0.88144263182E+02 0.  0.
         23    2    1    2    0    0  0.37942938341E+01  0.16471503367E+02  0.44528859967E+03  0.46283286011E+03  0.12508641936E+03 0.  0.
          5    1    4    4  502    0 -0.58841842595E+02  0.16250962543E+02  0.26348308182E+03  0.27049447874E+03  0.41800000000E+01 0.  1.
         -5    1    4    4    0  502  0.62636136429E+02  0.22054082434E+00  0.18180551785E+03  0.19233838136E+03  0.41800000000E+01 0.  1.
        -11    1    3    3    0    0  0.21815053948E+02  0.13849198631E+02  0.12291307733E+02  0.28614211981E+02  0.00000000000E+00 0.  1.
         11    1    3    3    0    0 -0.25609347782E+02 -0.30320701999E+02  0.17002679454E+03  0.17459752153E+03  0.00000000000E+00 0. -1.
</event>
<event>
 7    1  0.5900800E-006  0.3569790E+03  0.7561462E-02  0.1059786E+00
         -2   -1    0    0    0  501 -0.00000000000E+00  0.00000000000E+00  0.46588582533E+03  0.46588582533E+03  0.00000000000E+00 0.  1.
          2   -1    0    0  501    0  0.00000000000E+00 -0.00000000000E+00 -0.75038714111E+03  0.75038714111E+03  0.00000000000E+00 0. -1.
         23    2    1    2    0    0 -0.86723470213E+02  0.12256987792E+03 -0.20876716112E+02  0.17836958605E+03  0.93997535575E+02 0.  0.
          5    1    1    2  502    0  0.30509538938E+03 -0.52027488232E+02 -0.57384790179E+03  0.65200379059E+03  0.41800000000E+01 0. -1.
         -5    1    1    2    0  502 -0.21837191917E+03 -0.70542389687E+02  0.31022330212E+03  0.38589958980E+03  0.41800000000E+01 0.  1.
        -11    1    3    3    0    0 -0.98014127508E+01  0.91379671615E+02  0.31478515143E+01  0.91957713356E+02  0.00000000000E+00 0. -1.
         11    1    3    3    0    0 -0.76922057462E+02  0.31190206304E+02 -0.24024567626E+02  0.86411872698E+02  0.00000000000E+00 0.  1.
</event>
<event>
 8    1  0.5900800E-006  0.1167185E+03  0.7561462E-02  0.1248611E+00
         -2   -1    0    0    0  501 -0.00000000000E+00  0.00000000000E+00  0.20604827878E+02  0.20604827878E+02  0.00000000000E+00 0.  1.
          2   -1    0    0  501    0  0.00000000000E+00 -0.00000000000E+00 -0.67897197355E+03  0.67897197355E+03  0.00000000000E+00 0. -1.
         23    2    1    2    0    0 -0.38567943767E+00  0.48296626099E+02 -0.29099719455E+03  0.30850073464E+03  0.90336167715E+02 0.  0.
         23    2    1    2    0    0  0.38567943767E+00 -0.48296626099E+02 -0.36736995113E+03  0.39107606679E+03  0.12508835351E+03 0.  0.
          5    1    4    4  502    0  0.22836859306E+01 -0.90330344714E+02 -0.27483358756E+03  0.28933675821E+03  0.41800000000E+01 0.  1.
         -5    1    4    4    0  502 -0.18980064930E+01  0.42033718615E+02 -0.92536363565E+02  0.10173930858E+03  0.41800000000E+01 0.  1.
        -11    1    3    3    0    0  0.43659196937E+02  0.17921556019E+02 -0.10843874524E+03  0.11826355785E+03  0.00000000000E+00 0.  1.
         11    1    3    3    0    0 -0.44044876375E+02  0.30375070080E+02 -0.18255844931E+03  0.19023717679E+03  0.00000000000E+00 0. -1.
</event>
<event>
 8    1  0.5900800E-006  0.1318360E+03  0.7561462E-02  0.1224757E+00
          2   -1    0    0  501    0  0.00000000000E+00  0.00000000000E+00  0.21960671929E+04  0.21960671929E+04  0.00000000000E+00 0.  1.
         -2   -1    0    0    0  501 -0.00000000000E+00 -0.00000000000E+00 -0.12302816416E+02  0.12302816416E+02  0.00000000000E+00 0. -1.
         23    2    1    2    0    0  0.68629779060E+02 -0.63970317147E+02  0.48602382440E+03  0.50344389548E+03  0.91838717137E+02 0.  0.
         23    2    1    2    0    0 -0.68629779060E+02  0.63970317147E+02  0.16977405521E+04  0.17049261138E+04  0.12509126023E+03 0.  0.
          5    1    4    4  502    0 -0.82161866414E+01 -0.36506656075E+02  0.51810783747E+03  0.51947420081E+03  0.41800000000E+01 0.  1.
         -5    1    4    4    0  502 -0.60413592419E+02  0.10047697322E+03  0.11796327146E+04  0.11854519130E+04  0.41800000000E+01 0.  1.
        -11    1    3    3    0    0  0.49138396860E+02 -0.72373423156E+02  0.46641286111E+03  0.47454552093E+03  0.00000000000E+00 0.  1.
         11    1    3    3    0    0  0.19491382200E+02  0.84031060089E+01  0.19610963287E+02  0.28898374551E+02  0.00000000000E+00 0. -1.
</event>
<event>
 8    1  0.5900800E-006  0.1022692E+03  0.7561462E-02  0.1275595E+00
         -1   -1    0    0    0  501 -0.00000000000E+00  0.00000000000E+00  0.24246809399E+02  0.24246809399E+02  0.00000000000E+00 0.  1.
          1   -1    0    0  501    0  0.00000000000E+00 -0.00000000000E+00 -0.58815504690E+03  0.58815504690E+03  0.00000000000E+00 0. -1.
         23    2    1    2    0    0  0.12906951666E+02  0.32387533547E+01 -0.12358383715E+03  0.15446015458E+03  0.91694577938E+02 0.  0.
         23    2    1    2    0    0 -0.12906951666E+02 -0.32387533547E+01 -0.44032440036E+03  0.45794170172E+03  0.12509174915E+03 0.  0.
          5    1    4    4  502    0 -0.22749157099E+02  0.55177068447E+02 -0.14780185642E+03  0.15945185540E+03  0.41800000000E+01 0. -1.
         -5    1    4    4    0  502  0.98422054328E+01 -0.58415821802E+02 -0.29252254394E+03  0.29848984632E+03  0.41800000000E+01 0. -1.
        -11    1    3    3    0    0 -0.13402983403E+02  0.38821378938E+02 -0.29744536554E+02  0.50709731626E+02  0.00000000000E+00 0.  1.
         11    1    3    3    0    0  0.26309935069E+02 -0.35582625583E+02 -0.93839300595E+02  0.10375042295E+03  0.00000000000E+00 0. -1.
</event>
<event>
 8    1  0.5900800E-006  0.9466808E+02  0.7561462E-02  0.1291925E+00
         -2   -1    0    0    0  501 -0.00000000000E+00  0.00000000000E+00  0.71261931826E+02  0.71261931826E+02  0.00000000000E+00 0.  1.
          2   -1    0    0  501    0  0.00000000000E+00 -0.00000000000E+00 -0.11858076236E+04  0.11858076236E+04  0.00000000000E+00 0. -1.
         23    2    1    2    0    0  0.35199667467E+02  0.38952042197E+02  0.27062204073E+02  0.10742972319E+03  0.89735747358E+02 0.  0.
         23    2    1    2    0    0 -0.35199667467E+02 -0.38952042197E+02 -0.11416078959E+04  0.11496398323E+04  0.12508748069E+03 0.  0.
          5    1    4    4  502    0 -0.31411217314E+02  0.13000082406E+02 -0.96134849469E+03  0.96195845407E+03  0.41800000000E+01 0. -1.
         -5    1    4    4    0  502 -0.37884501528E+01 -0.51952124603E+02 -0.18025940119E+03  0.18768137820E+03  0.41800000000E+01 0. -1.
        -11    1    3    3    0    0  0.63668335573E+02  0.14498347413E+02  0.24742775036E+02  0.69828818899E+02  0.00000000000E+00 0.  1.
         11    1    3    3    0    0 -0.28468668106E+02  0.24453694784E+02  0.23194290371E+01  0.37600904290E+02  0.00000000000E+00 0. -1.
</event>
<event>
 8    1  0.5900800E-006  0.1317916E+03  0.7561462E-02  0.1224821E+00
         -2   -1    0    0    0  501 -0.00000000000E+00  0.00000000000E+00  0.16433976070E+03  0.16433976070E+03  0.00000000000E+00 0.  1.
          2   -1    0    0  501    0  0.00000000000E+00 -0.00000000000E+00 -0.13613985930E+03  0.13613985930E+03  0.00000000000E+00 0. -1.
         23    2    1    2    0    0  0.22061091512E+02 -0.79372781827E+02  0.75570258044E+02  0.14338757016E+03  0.89790874377E+02 0.  0.
         23    2    1    2    0    0 -0.22061091512E+02  0.79372781827E+02 -0.47370356645E+02  0.15709204985E+03  0.12508889313E+03 0.  0.
          5    1    4    4  502    0 -0.69646826866E+01 -0.30099154033E+02  0.96962642667E+01  0.32648978838E+02  0.41800000000E+01 0. -1.
         -5    1    4    4    0  502 -0.15096408825E+02  0.10947193586E+03 -0.57066620912E+02  0.12444307101E+03  0.41800000000E+01 0. -1.
        -11    1    3    3    0    0 -0.11151235653E+02 -0.87025996182E+02  0.52835772686E+02  0.10241822564E+03  0.00000000000E+00 0.  1.
         11    1    3    3    0    0  0.33212327165E+02  0.76532143550E+01  0.22734485358E+02  0.40969344517E+02  0.00000000000E+00 0. -1.
</event>
<event>
 8    1  0.5900800E-006  0.4840283E+02  0.7561462E-02  0.1454152E+00
          2   -1    0    0  501    0  0.00000000000E+00  0.00000000000E+00  0.30482481990E+03  0.30482481990E+03  0.00000000000E+00 0. -1.
         -2   -1    0    0    0  501 -0.00000000000E+00 -0.00000000000E+00 -0.42242743729E+02  0.42242743729E+02  0.00000000000E+00 0.  1.
         23    2    1    2    0    0  0.12794079495E+02  0.77846156547E+01  0.68232535032E+02  0.11545867838E+03  0.91927900363E+02 0.  0.
         23    2    1    2    0    0 -0.12794079495E+02 -0.77846156547E+01  0.19434954114E+03  0.23160888525E+03  0.12508654154E+03 0.  0.
          5    1    4    4  502    0 -0.32217870829E+02  0.18839518667E+01 -0.33170791254E+01  0.32711097342E+02  0.41800000000E+01 0.  1.
         -5    1    4    4    0  502  0.19423791334E+02 -0.96685675214E+01  0.19766662026E+03  0.19889778791E+03  0.41800000000E+01 0.  1.
        -11    1    3    3    0    0  0.26079557555E+02  0.11303029972E+02 -0.14280194755E+02  0.31809208903E+02  0.00000000000E+00 0.  1.
         11    1    3    3    0    0 -0.13285478060E+02 -0.35184143173E+01  0.82512729787E+02  0.83649469476E+02  0.00000000000E+00 0. -1.
</event>
<event>
 8    1  0.5900800E-006  0.9105399E+02  0.7561462E-02  0.1300319E+00
          2   -1    0    0  501    0  0.00000000000E+00  0.00000000000E+00  0.20860731174E+03  0.20860731174E+03  0.00000000000E+00 0. -1.
         -2   -1    0    0    0  501 -0.00000000000E+00 -0.00000000000E+00 -0.10363605069E+03  0.10363605069E+03  0.00000000000E+00 0.  1.
         23    2    1    2    0    0 -0.37122962186E+02  0.52321232009E+02 -0.31798228591E+02  0.11612005594E+03  0.91417254444E+02 0.  0.
         23    2    1    2    0    0  0.37122962186E+02 -0.52321232009E+02  0.13676948964E+03  0.19612330650E+03  0.12507130932E+03 0.  0.
          5    1    4    4  502    0  0.29623442685E+02 -0.17415970049E+02  0.15286714909E+03  0.15673768545E+03  0.41800000000E+01 0.  1.
         -5    1    4    4    0  502  0.74995195010E+01 -0.34905261961E+02 -0.16097659452E+02  0.39385621045E+02  0.41800000000E+01 0.  1.
        -11    1    3    3    0    0  0.10107680857E+02 -0.21586104597E+02 -0.91678215228E+01  0.25537699103E+02  0.00000000000E+00 0. -1.
         11    1    3    3    0    0 -0.47230643044E+02  0.73907336606E+02 -0.22630407068E+02  0.90582356839E+02  0.00000000000E+00 0.  1.
</event>
<event>
 8    1  0.6010332E-006  0.9268865E+02  0.7561462E-02  0.1296468E+00
          2   -1    0    0  501    0  0.00000000000E+00  0.00000000000E+00  0.29408118744E+03  0.29408118744E+03  0.00000000000E+00 0. -1.
         -2   -1    0    0    0  501 -0.00000000000E+00 -0.00000000000E+00 -0.63207719544E+02  0.63207719544E+02  0.00000000000E+00 0.  1.
         23    2    1    2    0    0 -0.46585149353E+02 -0.15982359936E+02  0.15438978159E+02  0.10334992575E+03  0.89539003435E+02 0.  0.
         23    2    1    2    0    0  0.46585149353E+02  0.15982359936E+02  0.21543448973E+03  0.25393898123E+03  0.12508946740E+03 0.  0.
          5    1    4    4  502    0  0.15264597708E+02  0.61205695148E+02  0.53345564376E+02  0.82718599482E+02  0.41800000000E+01 0. -1.
         -5    1    4    4    0  502  0.31320551645E+02 -0.45223335212E+02  0.16208892536E+03  0.17122038175E+03  0.41800000000E+01 0. -1.
        -11    1    3    3    0    0 -0.93662400648E+01 -0.26669819219E+02  0.46019822017E+02  0.54007682126E+02  0.00000000000E+00 0. -1.
         11    1    3    3    0    0 -0.37218909288E+02  0.10687459283E+02 -0.30580843859E+02  0.49342243622E+02  0.00000000000E+00 0.  1.
</event>
<event>
 8    1  0.1135558E-005  0.1154909E+03  0.7561462E-02  0.1250727E+00
         -2   -1    0    0    0  501 -0.00000000000E+00  0.00000000000E+00  0.19000464942E+02  0.19000464942E+02  0.00000000000E+00 0.  1.
          2   -1    0    0  501    0  0.00000000000E+00 -0.00000000000E+00 -0.91786562878E+03  0.91786562878E+03  0.00000000000E+00 0. -1.
         23    2    1    2    0    0 -0.64143199592E+02  0.39795659797E+02 -0.37385472961E+03  0.39190596464E+03  0.90138125538E+02 0.  0.
         23    2    1    2    0    0  0.64143199592E+02 -0.39795659797E+02 -0.52501043423E+03  0.54496012908E+03  0.12509013410E+03 0.  0.
          5    1    4    4  502    0 -0.37268403541E+02 -0.18647267282E+02 -0.13065046508E+03  0.13719938377E+03  0.41800000000E+01 0.  1.
         -5    1    4    4    0  502  0.10141160313E+03 -0.21148392516E+02 -0.39435996914E+03  0.40776074531E+03  0.41800000000E+01 0.  1.
        -11    1    3    3    0    0 -0.22118193210E+02 -0.63461879022E+01 -0.14558292814E+02  0.27229257453E+02  0.00000000000E+00 0.  1.
         11    1    3    3    0    0 -0.42025006382E+02  0.46141847699E+02 -0.35929643679E+03  0.36467670719E+03  0.00000000000E+00 0. -1.
</event>
<event>
 8    1  0.5900800E-006  0.1289583E+03  0.7561462E-02  0.1229010E+00
         -2   -1    0    0    0  501 -0.00000000000E+00  0.00000000000E+00  0.31719498599E+02  0.31719498599E+02  0.00000000000E+00 0.  1.
          2   -1    0    0  501    0  0.00000000000E+00 -0.00000000000E+00 -0.90248823458E+03  0.90248823458E+03  0.00000000000E+00 0. -1.
         23    2    1    2    0    0 -0.68818383015E+02  0.58983135529E+02 -0.16123211469E+03  0.20786031072E+03  0.94842679460E+02 0.  0.
         23    2    1    2    0    0  0.68818383015E+02 -0.58983135529E+02 -0.70953662129E+03  0.72634742246E+03  0.12618787994E+03 0.  0.
          5    1    4    4  502    0  0.88216273709E+02 -0.33435753588E+02 -0.66288650209E+03  0.66957900774E+03  0.41800000000E+01 0. -1.
         -5    1    4    4    0  502 -0.19397890694E+02 -0.25547381941E+02 -0.46650119207E+02  0.56768414716E+02  0.41800000000E+01 0.  1.
        -11    1    3    3    0    0 -0.80104973767E+02  0.76193546564E+02 -0.13800877530E+03  0.17682953775E+03  0.00000000000E+00 0.  1.
         11    1    3    3    0    0  0.11286590753E+02 -0.17210411034E+02 -0.23223339392E+02  0.31030772973E+02  0.00000000000E+00 0. -1.
</event>
<event>
 8    1  0.5900800E-006  0.1331386E+03  0.7561462E-02  0.1222872E+00
         -2   -1    0    0    0  501 -0.00000000000E+00  0.00000000000E+00  0.46030011968E+03  0.46030011968E+03  0.00000000000E+00 0.  1.
          2   -1    0    0  501    0  0.00000000000E+00 -0.00000000000E+00 -0.48795232658E+02  0.48795232658E+02  0.00000000000E+00 0. -1.
         23    2    1    2    0    0  0.42722298655E+02  0.89737338803E+02  0.24056659708E+03  0.27511774404E+03  0.89103875769E+02 0.  0.
         23    2    1    2    0    0 -0.42722298655E+02 -0.89737338803E+02  0.17093828994E+03  0.23397760830E+03  0.12509051698E+03 0.  0.
          5    1    4    4  502    0 -0.66825725992E+02 -0.84761164887E+02  0.17784289559E+03  0.20807618951E+03  0.41800000000E+01 0. -1.
         -5    1    4    4    0  502  0.24103427336E+02 -0.49761739162E+01 -0.69046056504E+01  0.25901418791E+02  0.41800000000E+01 0. -1.
        -11    1    3    3    0    0 -0.27152517023E+02  0.15155289350E+02  0.62439107988E+02  0.69753739558E+02  0.00000000000E+00 0.  1.
         11    1    3    3    0    0  0.69874815678E+02  0.74582049454E+02  0.17812748909E+03  0.20536400448E+03  0.00000000000E+00 0. -1.
</event>
<event>
 8    1  0.5900800E-006  0.2280416E+03  0.7561462E-02  0.1128026E+00
         -1   -1    0    0    0  501 -0.00000000000E+00  0.00000000000E+00  0.26139788486E+03  0.26139788486E+03  0.00000000000E+00 0.  1.
          1   -1    0    0  501    0  0.00000000000E+00 -0.00000000000E+00 -0.12100390759E+04  0.12100390759E+04  0.00000000000E+00 0. -1.
         23    2    1    2    0    0 -0.19731012568E+03  0.92633328175E+02  0.19265232371E+03  0.30280079068E+03  0.84030838501E+02 0.  0.
         23    2    1    2    0    0  0.19731012568E+03 -0.92633328175E+02 -0.11412935148E+04  0.11686361701E+04  0.12508953599E+03 0.  0.
          5    1    4    4  502    0  0.65884511375E+01 -0.19228476754E+02 -0.19848779334E+02  0.28715648134E+02  0.41800000000E+01 0.  1.
         -5    1    4    4    0  502  0.19072167454E+03 -0.73404851421E+02 -0.11214447355E+04  0.11399205220E+04  0.41800000000E+01 0.  1.
        -11    1    3    3    0    0 -0.17621658676E+02  0.39970348514E+02  0.55849141881E+02  0.70903302205E+02  0.00000000000E+00 0.  1.
         11    1    3    3    0    0 -0.17968846700E+03  0.52662979661E+02  0.13680318183E+03  0.23189748847E+03  0.00000000000E+00 0. -1.
</event>
<event>
 8    1  0.5900800E-006  0.1449170E+03  0.7561462E-02  0.1206862E+00
         -2   -1    0    0    0  501 -0.00000000000E+00  0.00000000000E+00  0.28940054392E+02  0.28940054392E+02  0.00000000000E+00 0.  1.
          2   -1    0    0  501    0  0.00000000000E+00 -0.00000000000E+00 -0.10638872625E+04  0.10638872625E+04  0.00000000000E+00 0. -1.
         23    2    1    2    0    0 -0.12658322917E+02 -0.11348676918E+03 -0.23488530450E+03  0.27503375034E+03  0.86214718217E+02 0.  0.
         23    2    1    2    0    0  0.12658322917E+02  0.11348676918E+03 -0.80006190356E+03  0.81779356650E+03  0.12509111866E+03 0.  0.
          5    1    4    4  502    0 -0.74148130845E+01  0.13638434667E+03 -0.59850743312E+03  0.61390902369E+03  0.41800000000E+01 0.  1.
         -5    1    4    4    0  502  0.20073136002E+02 -0.22897577486E+02 -0.20155447044E+03  0.20388454281E+03  0.41800000000E+01 0.  1.
        -11    1    3    3    0    0  0.11365667353E+02 -0.82300653227E+02 -0.80411119731E+02  0.11562233388E+03  0.00000000000E+00 0.  1.
         11    1    3    3    0    0 -0.24023990270E+02 -0.31186115957E+02 -0.15447418477E+03  0.15941141646E+03  0.00000000000E+00 0. -1.
</event>
<event>
 8    1  0.5900800E-006  0.1373747E+03  0.7561462E-02  0.1216906E+00
          1   -1    0    0  501    0  0.00000000000E+00  0.00000000000E+00  0.29442750685E+03  0.29442750685E+03  0.00000000000E+00 0. -1.
         -1   -1    0    0    0  501 -0.00000000000E+00 -0.00000000000E+00 -0.77155480768E+02  0.77155480768E+02  0.00000000000E+00 0.  1.
         23    2    1    2    0    0 -0.77671688645E+02 -0.53718738172E+02  0.56713795854E+02  0.14720596291E+03  0.97645004114E+02 0.  0.
         23    2    1    2    0    0  0.77671688645E+02  0.53718738172E+02  0.16055823022E+03  0.22437702470E+03  0.12509000709E+03 0.  0.
          5    1    4    4  502    0  0.13273044709E+02 -0.39247022560E+02  0.59691857928E+02  0.72781129413E+02  0.41800000000E+01 0.  1.
         -5    1    4    4    0  502  0.64398643936E+02  0.92965760732E+02  0.10086637230E+03  0.15159589529E+03  0.41800000000E+01 0.  1.
        -11    1    3    3    0    0 -0.14128326017E+02 -0.54591035689E+02 -0.74719168756E+01  0.56882513265E+02  0.00000000000E+00 0.  1.
         11    1    3    3    0    0 -0.63543362628E+02  0.87229751661E+00  0.64185712730E+02  0.90323449645E+02  0.00000000000E+00 0. -1.
</event>
<event>
 8    1  0.5900800E-006  0.1198708E+03  0.7561462E-02  0.1243310E+00
         -1   -1    0    0    0  501 -0.00000000000E+00  0.00000000000E+00  0.52750793867E+02  0.52750793867E+02  0.00000000000E+00 0.  1.
          1   -1    0    0  501    0  0.00000000000E+00 -0.00000000000E+00 -0.48954080109E+03  0.48954080109E+03  0.00000000000E+00 0. -1.
         23    2    1    2    0    0 -0.18669395755E+01  0.10667241811E+03 -0.12184935995E+03  0.18708535845E+03  0.93654549146E+02 0.  0.
         23    2    1    2    0    0  0.18669395755E+01 -0.10667241811E+03 -0.31494064728E+03  0.35520623652E+03  0.12490543984E+03 0.  0.
          5    1    4    4  502    0 -0.26446607739E+01 -0.25573946566E+01  0.11355249172E+02  0.12647077994E+02  0.41800000000E+01 0. -1.
         -5    1    4    4    0  502  0.45116003493E+01 -0.10411502346E+03 -0.32629589645E+03  0.34255915852E+03  0.41800000000E+01 0. -1.
        -11    1    3    3    0    0  0.34712238933E+02  0.69709169155E+02 -0.10821948932E+03  0.13332578770E+03  0.00000000000E+00 0. -1.
         11    1    3    3    0    0 -0.36579178509E+02  0.36963248957E+02 -0.13629870628E+02  0.53759570750E+02  0.00000000000E+00 0.  1.
</event>
<event>
 8    1  0.5900800E-006  0.8805372E+02  0.7561462E-02  0.1307635E+00
          4   -1    0    0  501    0  0.00000000000E+00  0.00000000000E+00  0.23287234715E+02  0.23287234715E+02  0.00000000000E+00 0. -1.
         -4   -1    0    0    0  501 -0.00000000000E+00 -0.00000000000E+00 -0.73395448311E+03  0.73395448311E+03  0.00000000000E+00 0.  1.
         23    2    1    2    0    0 -0.25923782010E+02  0.55419036368E+02 -0.42556672954E+03  0.44141575007E+03  0.99987554526E+02 0.  0.
         23    2    1    2    0    0  0.25923782010E+02 -0.55419036368E+02 -0.28510051886E+03  0.31582596775E+03  0.12132775440E+03 0.  0.
          5    1    4    4  502    0  0.17383160832E+02 -0.38189453320E+01  0.66055228657E+01  0.19438723114E+02  0.41800000000E+01 0. -1.
         -5    1    4    4    0  502  0.85406211773E+01 -0.51600091036E+02 -0.29170604172E+03  0.29638724464E+03  0.41800000000E+01 0.  1.
        -11    1    3    3    0    0 -0.71726844342E+01 -0.23329053948E+02 -0.35777533591E+02  0.43309630222E+02  0.00000000000E+00 0.  1.
         11    1    3    3    0    0 -0.18751097575E+02  0.78748090316E+02 -0.38978919594E+03  0.39810611985E+03  0.00000000000E+00 0. -1.
</event>
<event>
 8    1  0.5900800E-006  0.1353288E+03  0.7561462E-02  0.1219756E+00
          2   -1    0    0  501    0  0.00000000000E+00  0.00000000000E+00  0.58776953249E+03  0.58776953249E+03  0.00000000000E+00 0. -1.
         -2   -1    0    0    0  501 -0.00000000000E+00 -0.00000000000E+00 -0.48744049728E+02  0.48744049728E+02  0.00000000000E+00 0.  1.
         23    2    1    2    0    0  0.25974369645E+02 -0.10518010453E+03  0.11939635570E+03  0.18543306179E+03  0.91610088872E+02 0.  0.
         23    2    1    2    0    0 -0.25974369645E+02  0.10518010453E+03  0.41962912706E+03  0.45108052042E+03  0.12509000504E+03 0.  0.
          5    1    4    4  502    0 -0.71419096090E+02  0.86431752124E+02  0.33291312849E+03  0.35131148371E+03  0.41800000000E+01 0.  1.
         -5    1    4    4    0  502  0.45444726445E+02  0.18748352411E+02  0.86715998568E+02  0.99769036717E+02  0.41800000000E+01 0.  1.
        -11    1    3    3    0    0  0.15914353067E+02 -0.86028572057E+02  0.28523126927E+02  0.92020381511E+02  0.00000000000E+00 0.  1.
         11    1    3    3    0    0  0.10060016578E+02 -0.19151532478E+02  0.90873228774E+02  0.93412680283E+02  0.00000000000E+00 0. -1.
</event>
<event>
 8    1  0.5900800E-006  0.1436552E+03  0.7561462E-02  0.1208494E+00
          1   -1    0    0  501    0  0.00000000000E+00  0.00000000000E+00  0.21787735682E+03  0.21787735682E+03  0.00000000000E+00 0. -1.
         -1   -1    0    0    0  501 -0.00000000000E+00 -0.00000000000E+00 -0.12180651814E+03  0.12180651814E+03  0.00000000000E+00 0.  1.
         23    2    1    2    0    0  0.11168988387E+03  0.20762407930E+02 -0.74440656786E+00  0.14492301834E+03  0.89980105360E+02 0.  0.
         23    2    1    2    0    0 -0.11168988387E+03 -0.20762407930E+02  0.96815245247E+02  0.19476085662E+03  0.12511151753E+03 0.  0.
          5    1    4    4  502    0  0.15753613909E+02 -0.36706504781E+02  0.18000588485E+02  0.44011787401E+02  0.41800000000E+01 0. -1.
         -5    1    4    4    0  502 -0.12744349778E+03  0.15944096851E+02  0.78814656762E+02  0.15074906922E+03  0.41800000000E+01 0. -1.
        -11    1    3    3    0    0  0.31634894365E+02 -0.95443840697E+01 -0.39040660709E+02  0.51147189536E+02  0.00000000000E+00 0.  1.
         11    1    3    3    0    0  0.80054989504E+02  0.30306791999E+02  0.38296254142E+02  0.93775828799E+02  0.00000000000E+00 0. -1.
</event>
<event>
 8    1  0.5900800E-006  0.1245696E+03  0.7561462E-02  0.1235743E+00
          2   -1    0    0  501    0  0.00000000000E+00  0.00000000000E+00  0.10928246381E+04  0.10928246381E+04  0.00000000000E+00 0.  1.
         -2   -1    0    0    0  501 -0.00000000000E+00 -0.00000000000E+00 -0.16109641305E+02  0.16109641305E+02  0.00000000000E+00 0. -1.
         23    2    1    2    0    0  0.66769550320E+02  0.22822251551E+02  0.39255683211E+03  0.40986382828E+03  0.94384655948E+02 0.  0.
         23    2    1    2    0    0 -0.66769550320E+02 -0.22822251551E+02  0.68415816470E+03  0.69907045114E+03  0.12509225923E+03 0.  0.
          5    1    4    4  502    0 -0.95836450562E+02 -0.21099688281E+01  0.34762237462E+03  0.36062149819E+03  0.41800000000E+01 0. -1.
         -5    1    4    4    0  502  0.29066900242E+02 -0.20712282723E+02  0.33653579008E+03  0.33844895295E+03  0.41800000000E+01 0. -1.
        -11    1    3    3    0    0  0.82654841496E+02 -0.75279775790E+01  0.29573270896E+03  0.30715847443E+03  0.00000000000E+00 0. -1.
         11    1    3    3    0    0 -0.15885291175E+02  0.30350229130E+02  0.96824123157E+02  0.10270535385E+03  0.00000000000E+00 0.  1.
</event>
<event>
 8    1  0.5900800E-006  0.1069846E+03  0.7561462E-02  0.1266258E+00
          1   -1    0    0  501    0  0.00000000000E+00  0.00000000000E+00  0.28273475608E+03  0.28273475608E+03  0.00000000000E+00 0. -1.
         -1   -1    0    0    0  501 -0.00000000000E+00 -0.00000000000E+00 -0.61454898484E+02  0.61454898484E+02  0.00000000000E+00 0.  1.
         23    2    1    2    0    0 -0.33988359981E+02  0.10307059731E+00  0.14285288842E+02  0.99956318780E+02  0.92908433143E+02 0.  0.
         23    2    1    2    0    0  0.33988359981E+02 -0.10307059731E+00  0.20699456875E+03  0.24423333578E+03  0.12509177262E+03 0.  0.
          5    1    4    4  502    0  0.63177043207E+02 -0.33055572940E+02  0.17681766011E+03  0.19069862877E+03  0.41800000000E+01 0. -1.
         -5    1    4    4    0  502 -0.29188683226E+02  0.32952502342E+02  0.30176908646E+02  0.53534707009E+02  0.41800000000E+01 0. -1.
        -11    1    3    3    0    0 -0.53489841545E+02  0.30974163863E+02  0.36236138815E+01  0.61916819630E+02  0.00000000000E+00 0.  1.
         11    1    3    3    0    0  0.19501481564E+02 -0.30871093266E+02  0.10661674961E+02  0.38039499150E+02  0.00000000000E+00 0. -1.
</event>
<event>
 8    1  0.5900800E-006  0.9845884E+02  0.7561462E-02  0.1283571E+00
         -1   -1    0    0    0  501 -0.00000000000E+00  0.00000000000E+00  0.37712835861E+02  0.37712835861E+02  0.00000000000E+00 0.  1.
          1   -1    0    0  501    0  0.00000000000E+00 -0.00000000000E+00 -0.40846980625E+03  0.40846980625E+03  0.00000000000E+00 0. -1.
         23    2    1    2    0    0  0.48561988129E+01 -0.34838353293E+02 -0.82212758257E+02  0.12972986815E+03  0.93987273301E+02 0.  0.
         23    2    1    2    0    0 -0.48561988129E+01  0.34838353293E+02 -0.28854421213E+03  0.31645277396E+03  0.12508917726E+03 0.  0.
          5    1    4    4  502    0  0.41870892536E+02  0.62955304156E+00 -0.30543292990E+02  0.51999356972E+02  0.41800000000E+01 0. -1.
         -5    1    4    4    0  502 -0.46727091349E+02  0.34208800252E+02 -0.25800091914E+03  0.26445341699E+03  0.41800000000E+01 0. -1.
        -11    1    3    3    0    0  0.32768163159E+02 -0.53825000517E+02 -0.36234878559E+02  0.72690093009E+02  0.00000000000E+00 0.  1.
         11    1    3    3    0    0 -0.27911964346E+02  0.18986647224E+02 -0.45977879698E+02  0.57039775139E+02  0.00000000000E+00 0. -1.
</event>
<event>
 8    1  0.5900800E-006  0.1234325E+03  0.7561462E-02  0.1237540E+00
          1   -1    0    0  501    0  0.00000000000E+00  0.00000000000E+00  0.12764603869E+03  0.12764603869E+03  0.00000000000E+00 0. -1.
         -1   -1    0    0    0  501 -0.00000000000E+00 -0.00000000000E+00 -0.14889059893E+03  0.14889059893E+03  0.00000000000E+00 0.  1.
         23    2    1    2    0    0 -0.62789928128E+02 -0.23319867835E+02 -0.61316077880E+02  0.12909267489E+03  0.91754378607E+02 0.  0.
         23    2    1    2    0    0  0.62789928128E+02  0.23319867835E+02  0.40071517641E+02  0.14744396272E+03  0.12509038455E+03 0.  0.
          5    1    4    4  502    0  0.85083400295E+02  0.50328650095E+02  0.71558920618E+01  0.99200994034E+02  0.41800000000E+01 0.  1.
         -5    1    4    4    0  502 -0.22293472167E+02 -0.27008782260E+02  0.32915625579E+02  0.48242968686E+02  0.41800000000E+01 0.  1.
        -11    1    3    3    0    0 -0.15695681305E+02 -0.54140557743E+02 -0.39004500993E+02  0.68548563093E+02  0.00000000000E+00 0.  1.
         11    1    3    3    0    0 -0.47094246823E+02  0.30820689908E+02 -0.22311576887E+02  0.60544111798E+02  0.00000000000E+00 0. -1.
</event>
<event>
 8    1  0.5900800E-006  0.1986682E+03  0.7561462E-02  0.1150868E+00
         -3   -1    0    0    0  501 -0.00000000000E+00  0.00000000000E+00  0.47525776455E+03  0.47525776455E+03  0.00000000000E+00 0.  1.
          3   -1    0    0  501    0  0.00000000000E+00 -0.00000000000E+00 -0.91649267307E+02  0.91649267307E+02  0.00000000000E+00 0. -1.
         23    2    1    2    0    0 -0.10591908237E+03 -0.13899337964E+03  0.22795078730E+03  0.30154821175E+03  0.91824566333E+02 0.  0.
         23    2    1    2    0    0  0.10591908237E+03  0.13899337964E+03  0.15565770994E+03  0.26535882011E+03  0.12509184286E+03 0.  0.
          5    1    4    4  502    0  0.10701679547E+03  0.37902713885E+02  0.86726834210E+02  0.14292734659E+03  0.41800000000E+01 0.  1.
         -5    1    4    4    0  502 -0.10977130956E+01  0.10109066576E+03  0.68930875735E+02  0.12243147352E+03  0.41800000000E+01 0.  1.
        -11    1    3    3    0    0 -0.52522251964E+02 -0.10973895088E+03  0.20102879340E+03  0.23497616915E+03  0.00000000000E+00 0.  1.
         11    1    3    3    0    0 -0.53396830411E+02 -0.29254428762E+02  0.26921993895E+02  0.66572042596E+02  0.00000000000E+00 0. -1.
</event>
<event>
 8    1  0.5900800E-006  0.1226745E+03  0.7561462E-02  0.1238749E+00
         -2   -1    0    0    0  501 -0.00000000000E+00  0.00000000000E+00  0.24680611224E+02  0.24680611224E+02  0.00000000000E+00 0.  1.
          2   -1    0    0  501    0  0.00000000000E+00 -0.00000000000E+00 -0.11828171024E+04  0.11828171024E+04  0.00000000000E+00 0. -1.
         23    2    1    2    0    0  0.77435025570E+02 -0.69048648777E+02 -0.25585902592E+03  0.29070201753E+03  0.90994080960E+02 0.  0.
         23    2    1    2    0    0 -0.77435025570E+02  0.69048648777E+02 -0.90227746529E+03  0.91679569612E+03  0.12508327218E+03 0.  0.
          5    1    4    4  502    0 -0.61432606881E+02  0.38405965176E+02 -0.18575511424E+03  0.19942772679E+03  0.41800000000E+01 0. -1.
         -5    1    4    4    0  502 -0.16002418689E+02  0.30642683600E+02 -0.71652235105E+03  0.71736796933E+03  0.41800000000E+01 0. -1.
        -11    1    3    3    0    0  0.44328857620E+02 -0.88911717309E+02 -0.18744142150E+03  0.21214294141E+03  0.00000000000E+00 0. -1.
         11    1    3    3    0    0  0.33106167949E+02  0.19863068533E+02 -0.68417604414E+02  0.78559076125E+02  0.00000000000E+00 0.  1.
</event>
<event>
 8    1  0.5900800E-006  0.9054225E+02  0.7561462E-02  0.1301544E+00
          2   -1    0    0  501    0  0.00000000000E+00  0.00000000000E+00  0.58321730939E+03  0.58321730939E+03  0.00000000000E+00 0. -1.
         -2   -1    0    0    0  501 -0.00000000000E+00 -0.00000000000E+00 -0.36722018278E+02  0.36722018278E+02  0.00000000000E+00 0.  1.
         23    2    1    2    0    0  0.10484790785E+02 -0.71019830268E+02  0.10456773102E+03  0.15508331426E+03  0.89233832507E+02 0.  0.
         23    2    1    2    0    0 -0.10484790785E+02  0.71019830268E+02  0.44192756009E+03  0.46485601340E+03  0.12504958096E+03 0.  0.
          5    1    4    4  502    0 -0.33688069048E+02  0.63851368151E+02  0.43244890773E+03  0.43845343357E+03  0.41800000000E+01 0.  1.
         -5    1    4    4    0  502  0.23203278263E+02  0.71684621173E+01  0.94786523606E+01  0.26402579833E+02  0.41800000000E+01 0.  1.
        -11    1    3    3    0    0  0.27382546112E+02 -0.35869951193E+02  0.17988860202E+01  0.45162962935E+02  0.00000000000E+00 0.  1.
         11    1    3    3    0    0 -0.16897755327E+02 -0.35149879075E+02  0.10276884500E+03  0.10992035133E+03  0.00000000000E+00 0. -1.
</event>
<event>
 8    1  0.5900800E-006  0.1202690E+03  0.7561462E-02  0.1242654E+00
         -1   -1    0    0    0  501 -0.00000000000E+00  0.00000000000E+00  0.56573465198E+02  0.56573465198E+02  0.00000000000E+00 0.  1.
          1   -1    0    0  501    0  0.00000000000E+00 -0.00000000000E+00 -0.35725485849E+03  0.35725485849E+03  0.00000000000E+00 0. -1.
         23    2    1    2    0    0 -0.76527581763E+01 -0.75895567206E+02 -0.99791100236E+02  0.16519103312E+03  0.10728984997E+03 0.  0.
         23    2    1    2    0    0  0.76527581763E+01  0.75895567206E+02 -0.20089029305E+03  0.24863729057E+03  0.12507953705E+03 0.  0.
          5    1    4    4  502    0  0.25875477825E+02 -0.14827170785E+02 -0.12591923917E+03  0.12947012219E+03  0.41800000000E+01 0.  1.
         -5    1    4    4    0  502 -0.18222719648E+02  0.90722737991E+02 -0.74971053883E+02  0.11916716838E+03  0.41800000000E+01 0.  1.
        -11    1    3    3    0    0 -0.25336687549E+02  0.12073133349E+02  0.35970788771E+01  0.28295711005E+02  0.00000000000E+00 0.  1.
         11    1    3    3    0    0  0.17683929373E+02 -0.87968700556E+02 -0.10338817911E+03  0.13689532211E+03  0.00000000000E+00 0. -1.
</event>
<event>
 8    1  0.5900800E-006  0.1686599E+03  0.7561462E-02  0.1179253E+00
          2   -1    0    0  501    0  0.00000000000E+00  0.00000000000E+00  0.69134842103E+03  0.69134842103E+03  0.00000000000E+00 0. -1.
         -2   -1    0    0    0  501 -0.00000000000E+00 -0.00000000000E+00 -0.44340145654E+02  0.44340145654E+02  0.00000000000E+00 0.  1.
         23    2    1    2    0    0  0.13316201443E+03  0.39844020746E+01  0.23777971991E+03  0.28751662658E+03  0.91534790180E+02 0.  0.
         23    2    1    2    0    0 -0.13316201443E+03 -0.39844020746E+01  0.40922855547E+03  0.44817194010E+03  0.12506830030E+03 0.  0.
          5    1    4    4  502    0 -0.92217501056E+02 -0.57142354365E+02  0.18958819254E+03  0.21847304483E+03  0.41800000000E+01 0.  1.
         -5    1    4    4    0  502 -0.40944513373E+02  0.53157952291E+02  0.21964036292E+03  0.22969889528E+03  0.41800000000E+01 0.  1.
        -11    1    3    3    0    0  0.35805941084E+02 -0.40866521432E+02  0.74955822425E+02  0.92577066848E+02  0.00000000000E+00 0.  1.
         11    1    3    3    0    0  0.97356073344E+02  0.44850923507E+02  0.16282389748E+03  0.19493955973E+03  0.00000000000E+00 0. -1.
</event>
<event>
 8    1  0.5900800E-006  0.1169196E+03  0.7561462E-02  0.1248267E+00
          2   -1    0    0  501    0  0.00000000000E+00  0.00000000000E+00  0.12016967791E+04  0.12016967791E+04  0.00000000000E+00 0. -1.
         -2   -1    0    0    0  501 -0.00000000000E+00 -0.00000000000E+00 -0.23559802582E+02  0.23559802582E+02  0.00000000000E+00 0.  1.
         23    2    1    2    0    0  0.51310405037E+02 -0.74946344785E+02  0.21960548296E+03  0.25433965986E+03  0.90622194668E+02 0.  0.
         23    2    1    2    0    0 -0.51310405037E+02  0.74946344785E+02  0.95853149355E+03  0.97091692182E+03  0.12508929887E+03 0.  0.
          5    1    4    4  502    0 -0.43020085935E+02  0.12716590226E+02  0.95493221989E+02  0.10558819681E+03  0.41800000000E+01 0.  1.
         -5    1    4    4    0  502 -0.82903191019E+01  0.62229754558E+02  0.86303827156E+03  0.86532872500E+03  0.41800000000E+01 0.  1.
        -11    1    3    3    0    0  0.26017138704E+02  0.16618666040E+02  0.34596564241E+02  0.46368025886E+02  0.00000000000E+00 0.  1.
         11    1    3    3    0    0  0.25293266332E+02 -0.91565010825E+02  0.18500891872E+03  0.20797163397E+03  0.00000000000E+00 0. -1.
</event>
<event>
 8    1  0.5900800E-006  0.7814666E+02  0.7561462E-02  0.1334395E+00
          4   -1    0    0  501    0  0.00000000000E+00  0.00000000000E+00  0.10577299632E+03  0.10577299632E+03  0.00000000000E+00 0. -1.
         -4   -1    0    0    0  501 -0.00000000000E+00 -0.00000000000E+00 -0.14336975520E+03  0.14336975520E+03  0.00000000000E+00 0.  1.
         23    2    1    2    0    0 -0.43019089057E+02 -0.36660167248E+02 -0.22200316454E+02  0.11101651808E+03  0.92936555505E+02 0.  0.
         23    2    1    2    0    0  0.43019089057E+02  0.36660167248E+02 -0.15396442431E+02  0.13812623344E+03  0.12508875265E+03 0.  0.
          5    1    4    4  502    0  0.11371390313E+02 -0.17355464813E+02 -0.58362088874E+02  0.62081611563E+02  0.41800000000E+01 0.  1.
         -5    1    4    4    0  502  0.31647698744E+02  0.54015632061E+02  0.42965646443E+02  0.76044621881E+02  0.41800000000E+01 0.  1.
        -11    1    3    3    0    0 -0.18258957913E+02 -0.43093207049E+02 -0.53178679005E+02  0.70840567040E+02  0.00000000000E+00 0.  1.
         11    1    3    3    0    0 -0.24760131144E+02  0.64330398008E+01  0.30978362551E+02  0.40175951036E+02  0.00000000000E+00 0. -1.
</event>
<event>
 8    1  0.5900800E-006  0.9500688E+02  0.7561462E-02  0.1291161E+00
          1   -1    0    0  501    0  0.00000000000E+00  0.00000000000E+00  0.17978791251E+04  0.17978791251E+04  0.00000000000E+00 0. -1.
         -1   -1    0    0    0  501 -0.00000000000E+00 -0.00000000000E+00 -0.17403703172E+02  0.17403703172E+02  0.00000000000E+00 0.  1.
         23    2    1    2    0    0 -0.27085665452E+02 -0.13106703631E+02  0.14048328108E+03  0.17025205639E+03  0.91349830253E+02 0.  0.
         23    2    1    2    0    0  0.27085665452E+02  0.13106703631E+02  0.16399921408E+04  0.16450307718E+04  0.12508636801E+03 0.  0.
          5    1    4    4  502    0  0.14139027492E+01  0.55090672844E+02  0.13283736056E+04  0.13295228053E+04  0.41800000000E+01 0. -1.
         -5    1    4    4    0  502  0.25671762703E+02 -0.41983969213E+02  0.31161853524E+03  0.31550796658E+03  0.41800000000E+01 0. -1.
        -11    1    3    3    0    0 -0.21857668716E+02  0.32657332935E+02  0.26728701782E+02  0.47525599156E+02  0.00000000000E+00 0.  1.
         11    1    3    3    0    0 -0.52279967367E+01 -0.45764036567E+02  0.11375457930E+03  0.12272645723E+03  0.00000000000E+00 0. -1.
</event>
<event>
 8    1  0.5900800E-006  0.1677495E+03  0.7561462E-02  0.1180215E+00
          3   -1    0    0  501    0  0.00000000000E+00  0.00000000000E+00  0.13083578577E+04  0.13083578577E+04  0.00000000000E+00 0. -1.
         -3   -1    0    0    0  501 -0.00000000000E+00 -0.00000000000E+00 -0.25539207863E+02  0.25539207863E+02  0.00000000000E+00 0.  1.
         23    2    1    2    0    0  0.23107173286E+02 -0.14484430545E+03  0.60957453941E+03  0.63359793388E+03  0.91386040709E+02 0.  0.
         23    2    1    2    0    0 -0.23107173286E+02  0.14484430545E+03  0.67324411044E+03  0.70029913170E+03  0.12508967718E+03 0.  0.
          5    1    4    4  502    0  0.53463113419E+01 -0.20104844066E+02  0.39845734511E+02  0.45143579373E+02  0.41800000000E+01 0. -1.
         -5    1    4    4    0  502 -0.28453484628E+02  0.16494914952E+03  0.63339837592E+03  0.65515555232E+03  0.41800000000E+01 0. -1.
        -11    1    3    3    0    0  0.48995765914E+01 -0.16473977815E+02  0.94227172347E+01  0.19600647844E+02  0.00000000000E+00 0.  1.
         11    1    3    3    0    0  0.18207596694E+02 -0.12837032764E+03  0.60015182218E+03  0.61399728604E+03  0.00000000000E+00 0. -1.
</event>
<event>
 8    1  0.5900800E-006  0.1603548E+03  0.7561462E-02  0.1188297E+00
          2   -1    0    0  501    0  0.00000000000E+00  0.00000000000E+00  0.19427410116E+03  0.19427410116E+03  0.00000000000E+00 0. -1.
         -2   -1    0    0    0  501 -0.00000000000E+00 -0.00000000000E+00 -0.19208685926E+03  0.19208685926E+03  0.00000000000E+00 0.  1.
         23    2    1    2    0    0 -0.97566337469E+02 -0.11011960502E+03 -0.61410378185E+02  0.18304367174E+03  0.89934607337E+02 0.  0.
         23    2    1    2    0    0  0.97566337469E+02  0.11011960502E+03  0.63597620080E+02  0.20331728869E+03  0.12509094684E+03 0.  0.
          5    1    4    4  502    0  0.28030425876E+02 -0.32340330485E+01  0.64217891795E+02  0.70267871542E+02  0.41800000000E+01 0. -1.
         -5    1    4    4    0  502  0.69535911593E+02  0.11335363807E+03 -0.62027171501E+00  0.13304941714E+03  0.41800000000E+01 0. -1.
        -11    1    3    3    0    0 -0.15936140778E+02 -0.62785293711E+02 -0.60563708985E+02  0.88678726509E+02  0.00000000000E+00 0.  1.
         11    1    3    3    0    0 -0.81630196691E+02 -0.47334311311E+02 -0.84666920011E+00  0.94364945228E+02  0.00000000000E+00 0. -1.
</event>
<event>
 8    1  0.5900800E-006  0.1007750E+03  0.7561462E-02  0.1278675E+00
          1   -1    0    0  501    0  0.00000000000E+00  0.00000000000E+00  0.12984719878E+03  0.12984719878E+03  0.00000000000E+00 0. -1.
         -1   -1    0    0    0  501 -0.00000000000E+00 -0.00000000000E+00 -0.11202268715E+03  0.11202268715E+03  0.00000000000E+00 0.  1.
         23    2    1    2    0    0  0.50494545448E+02 -0.95683435967E+00  0.81784075863E+01  0.10662992718E+03  0.93554478075E+02 0.  0.
         23    2    1    2    0    0 -0.50494545448E+02  0.95683435967E+00  0.96461040416E+01  0.13523995875E+03  0.12508470917E+03 0.  0.
          5    1    4    4  502    0 -0.57091491112E+02  0.53440929937E+02 -0.93752614873E+01  0.78871663340E+02  0.41800000000E+01 0.  1.
         -5    1    4    4    0  502  0.65969456645E+01 -0.52484095578E+02  0.19021365529E+02  0.56368295409E+02  0.41800000000E+01 0.  1.
        -11    1    3    3    0    0  0.42214521726E+02  0.20680603480E+02 -0.34336134625E+02  0.58212742127E+02  0.00000000000E+00 0.  1.
         11    1    3    3    0    0  0.82800237215E+01 -0.21637437840E+02  0.42514542211E+02  0.48417185054E+02  0.00000000000E+00 0. -1.
</event>
<event>
 8    1  0.5900800E-006  0.1332104E+03  0.7561462E-02  0.1222768E+00
         -2   -1    0    0    0  501 -0.00000000000E+00  0.00000000000E+00  0.75304008732E+02  0.75304008732E+02  0.00000000000E+00 0.  1.
          2   -1    0    0  501    0  0.00000000000E+00 -0.00000000000E+00 -0.76534234962E+03  0.76534234962E+03  0.00000000000E+00 0. -1.
         23    2    1    2    0    0  0.88747975064E+02 -0.58099049673E+02 -0.10377524363E+02  0.14148086276E+03  0.93045359178E+02 0.  0.
         23    2    1    2    0    0 -0.88747975064E+02  0.58099049673E+02 -0.67966081653E+03  0.69916549559E+03  0.12506743004E+03 0.  0.
          5    1    4    4  502    0 -0.13916601424E+02  0.80604650284E+02 -0.42235257517E+03  0.43022081725E+03  0.41800000000E+01 0.  1.
         -5    1    4    4    0  502 -0.74831373640E+02 -0.22505600611E+02 -0.25730824136E+03  0.26894467834E+03  0.41800000000E+01 0.  1.
        -11    1    3    3    0    0  0.78783593916E+01 -0.74394243996E+01 -0.40095302237E+02  0.41533683242E+02  0.00000000000E+00 0. -1.
         11    1    3    3    0    0  0.80869615673E+02 -0.50659625274E+02  0.29717777874E+02  0.99947179519E+02  0.00000000000E+00 0.  1.
</event>
<event>
 8    1  0.5900800E-006  0.1228988E+03  0.7561462E-02  0.1238390E+00
          2   -1    0    0  501    0  0.00000000000E+00  0.00000000000E+00  0.17119794399E+03  0.17119794399E+03  0.00000000000E+00 0. -1.
         -2   -1    0    0    0  501 -0.00000000000E+00 -0.00000000000E+00 -0.12092623146E+03  0.12092623146E+03  0.00000000000E+00 0.  1.
         23    2    1    2    0    0  0.64534188834E+02 -0.68246096205E+02  0.14064537369E+02  0.13155790808E+03  0.91035601777E+02 0.  0.
         23    2    1    2    0    0 -0.64534188834E+02  0.68246096205E+02  0.36207175164E+02  0.16056626737E+03  0.12509346708E+03 0.  0.
          5    1    4    4  502    0 -0.19936195088E+02  0.67169877602E+02  0.73967831863E+02  0.10197037257E+03  0.41800000000E+01 0.  1.
         -5    1    4    4    0  502 -0.44597993747E+02  0.10762186031E+01 -0.37760656698E+02  0.58595894796E+02  0.41800000000E+01 0.  1.
        -11    1    3    3    0    0  0.40781669594E+02 -0.89863115008E+02  0.11016721401E+02  0.99296989704E+02  0.00000000000E+00 0. -1.
         11    1    3    3    0    0  0.23752519240E+02  0.21617018803E+02  0.30478159682E+01  0.32260918375E+02  0.00000000000E+00 0.  1.
</event>
<event>
 8    1  0.5900800E-006  0.8609482E+02  0.7561462E-02  0.1312594E+00
          2   -1    0    0  501    0  0.00000000000E+00  0.00000000000E+00  0.62921509475E+03  0.62921509475E+03  0.00000000000E+00 0.  1.
         -2   -1    0    0    0  501 -0.00000000000E+00 -0.00000000000E+00 -0.39748689411E+02  0.39748689411E+02  0.00000000000E+00 0. -1.
         23    2    1    2    0    0  0.12629399815E+02  0.27275365351E+02  0.40577273663E+02  0.10519211068E+03  0.92279020995E+02 0.  0.
         23    2    1    2    0    0 -0.12629399815E+02 -0.27275365351E+02  0.54888913167E+03  0.56377167348E+03  0.12512303408E+03 0.  0.
          5    1    4    4  502    0 -0.30151651465E+02 -0.50806288967E+02  0.11960821564E+03  0.13346909280E+03  0.41800000000E+01 0. -1.
         -5    1    4    4    0  502  0.17522251651E+02  0.23530923616E+02  0.42928091604E+03  0.43030258068E+03  0.41800000000E+01 0. -1.
        -11    1    3    3    0    0  0.43868126732E+02  0.33806156269E+01  0.48058612333E+02  0.65157281438E+02  0.00000000000E+00 0.  1.
         11    1    3    3    0    0 -0.31238726918E+02  0.23894749724E+02 -0.74813386695E+01  0.40034829238E+02  0.00000000000E+00 0. -1.
</event>
<event>
 8    1  0.5900800E-006  0.1267138E+03  0.7561462E-02  0.1232415E+00
          1   -1    0    0  501    0  0.00000000000E+00  0.00000000000E+00  0.85903772548E+03  0.85903772548E+03  0.00000000000E+00 0. -1.
         -1   -1    0    0    0  501 -0.00000000000E+00 -0.00000000000E+00 -0.21153755405E+02  0.21153755405E+02  0.00000000000E+00 0.  1.
         23    2    1    2    0    0  0.11217830589E+02  0.69100064063E+02  0.25711430518E+03  0.28199414661E+03  0.92261986857E+02 0.  0.
         23    2    1    2    0    0 -0.11217830589E+02 -0.69100064063E+02  0.58076966489E+03  0.59819733427E+03  0.12508392580E+03 0.  0.
          5    1    4    4  502    0 -0.17347424604E+02 -0.10459074629E+03  0.40040067024E+03  0.41422014253E+03  0.41800000000E+01 0.  1.
         -5    1    4    4    0  502  0.61295940146E+01  0.35490682231E+02  0.18036899465E+03  0.18397719174E+03  0.41800000000E+01 0.  1.
        -11    1    3    3    0    0  0.18121803598E+02  0.88572684087E+02  0.23469953107E+03  0.25151021852E+03  0.00000000000E+00 0.  1.
         11    1    3    3    0    0 -0.69039730088E+01 -0.19472620025E+02  0.22414774110E+02  0.30483928099E+02  0.00000000000E+00 0. -1.
</event>
<event>
 8    1  0.5900800E-006  0.1166832E+03  0.7561462E-02  0.1248671E+00
         -2   -1    0    0    0  501 -0.00000000000E+00  0.00000000000E+00  0.19734072410E+03  0.19734072410E+03  0.00000000000E+00 0.  1.
          2   -1    0    0  501    0  0.00000000000E+00 -0.00000000000E+00 -0.12589758908E+03  0.12589758908E+03  0.00000000000E+00 0. -1.
         23    2    1    2    0    0  0.69655958348E+02  0.40760188678E+02  0.11512157748E+03  0.16809631973E+03  0.92141465099E+02 0.  0.
         23    2    1    2    0    0 -0.69655958348E+02 -0.40760188678E+02 -0.43678442457E+02  0.15514199344E+03  0.12509151162E+03 0.  0.
          5    1    4    4  502    0 -0.10542365585E+03 -0.37715587746E+02 -0.26544211912E+02  0.11514634323E+03  0.41800000000E+01 0.  1.
         -5    1    4    4    0  502  0.35767697507E+02 -0.30446009318E+01 -0.17134230545E+02  0.39995650215E+02  0.41800000000E+01 0.  1.
        -11    1    3    3    0    0  0.21405956469E+02  0.28051707012E+02 -0.71791643656E+01  0.36009077183E+02  0.00000000000E+00 0. -1.
         11    1    3    3    0    0  0.48250001879E+02  0.12708481666E+02  0.12230074184E+03  0.13208724254E+03  0.00000000000E+00 0.  1.
</event>
<event>
 8    1  0.5900800E-006  0.1125672E+03  0.7561462E-02  0.1255888E+00
         -1   -1    0    0    0  501 -0.00000000000E+00  0.00000000000E+00  0.49754546969E+02  0.49754546969E+02  0.00000000000E+00 0.  1.
          1   -1    0    0  501    0  0.00000000000E+00 -0.00000000000E+00 -0.58552019588E+03  0.58552019588E+03  0.00000000000E+00 0. -1.
         23    2    1    2    0    0  0.60676998422E+02 -0.43701811480E+02 -0.51241258680E+02  0.12930673253E+03  0.92211810639E+02 0.  0.
         23    2    1    2    0    0 -0.60676998422E+02  0.43701811480E+02 -0.48452439024E+03  0.50596801033E+03  0.12509275070E+03 0.  0.
          5    1    4    4  502    0 -0.10431023784E+02 -0.43500440134E+02 -0.14176566511E+03  0.14871472944E+03  0.41800000000E+01 0. -1.
         -5    1    4    4    0  502 -0.50245974637E+02  0.87202251614E+02 -0.34275872513E+03  0.35725328089E+03  0.41800000000E+01 0. -1.
        -11    1    3    3    0    0  0.32780616722E+02 -0.72455001579E+01 -0.71607506956E+02  0.79086668647E+02  0.00000000000E+00 0. -1.
         11    1    3    3    0    0  0.27896381699E+02 -0.36456311322E+02  0.20366248276E+02  0.50220063878E+02  0.00000000000E+00 0.  1.
</event>
<event>
 6    1  0.5900800E-006  0.9499641E+02  0.7561462E-02  0.1291184E+00
          2   -1    0    0  501    0  0.00000000000E+00  0.00000000000E+00  0.16013333395E+03  0.16013333395E+03  0.00000000000E+00 0. -1.
         -2   -1    0    0    0  501 -0.00000000000E+00 -0.00000000000E+00 -0.24833715756E+03  0.24833715756E+03  0.00000000000E+00 0.  1.
          5    1    1    2  502    0 -0.14541646065E+02  0.90189220986E+02  0.11544683143E+03  0.14727864183E+03  0.41800000000E+01 0. -1.
         -5    1    1    2    0  502  0.15298665508E+02 -0.47155467582E+02  0.70894772761E+00  0.49756027736E+02  0.41800000000E+01 0.  1.
        -11    1    1    2    0    0 -0.11837932432E+02 -0.20237302891E+02 -0.52799906109E+02  0.57771231229E+02  0.00000000000E+00 0.  1.
         11    1    1    2    0    0  0.11080912988E+02 -0.22796450513E+02 -0.15155969666E+03  0.15366459072E+03  0.00000000000E+00 0. -1.
</event>
<event>
 8    1  0.5900800E-006  0.1068154E+03  0.7561462E-02  0.1266584E+00
          3   -1    0    0  501    0  0.00000000000E+00  0.00000000000E+00  0.33316748536E+03  0.33316748536E+03  0.00000000000E+00 0. -1.
         -3   -1    0    0    0  501 -0.00000000000E+00 -0.00000000000E+00 -0.47928734399E+02  0.47928734399E+02  0.00000000000E+00 0.  1.
         23    2    1    2    0    0  0.48420138696E+02 -0.31365039374E+02  0.86367445854E+02  0.13917809813E+03  0.92644113513E+02 0.  0.
         23    2    1    2    0    0 -0.48420138696E+02  0.31365039374E+02  0.19887130510E+03  0.24191812163E+03  0.12508519518E+03 0.  0.
          5    1    4    4  502    0  0.11568033373E+02  0.41702055965E+02  0.11659851872E+02  0.45014502257E+02  0.41800000000E+01 0.  1.
         -5    1    4    4    0  502 -0.59988172070E+02 -0.10337016591E+02  0.18721145323E+03  0.19690361937E+03  0.41800000000E+01 0.  1.
        -11    1    3    3    0    0 -0.28042346396E+02 -0.95392069665E+01  0.23114454048E+02  0.37571899698E+02  0.00000000000E+00 0. -1.
         11    1    3    3    0    0  0.76462485093E+02 -0.21825832408E+02  0.63252991806E+02  0.10160619843E+03  0.00000000000E+00 0.  1.
</event>
<event>
 8    1  0.5900800E-006  0.1441795E+03  0.7561462E-02  0.1207813E+00
         -4   -1    0    0    0  501 -0.00000000000E+00  0.00000000000E+00  0.30003206099E+02  0.30003206099E+02  0.00000000000E+00 0.  1.
          4   -1    0    0  501    0  0.00000000000E+00 -0.00000000000E+00 -0.10459396420E+04  0.10459396420E+04  0.00000000000E+00 0. -1.
         23    2    1    2    0    0  0.13358876387E+03  0.40760546895E+02 -0.51666630881E+03  0.54262693775E+03  0.89401000537E+02 0.  0.
         23    2    1    2    0    0 -0.13358876387E+03 -0.40760546895E+02 -0.49927012705E+03  0.53331591031E+03  0.12509124832E+03 0.  0.
          5    1    4    4  502    0 -0.71427914841E+02 -0.43464113707E+02 -0.43787205407E+03  0.44580319014E+03  0.41800000000E+01 0.  1.
         -5    1    4    4    0  502 -0.62160849034E+02  0.27035668111E+01 -0.61398072975E+02  0.87512720168E+02  0.41800000000E+01 0.  1.
        -11    1    3    3    0    0  0.12785936696E+03  0.31980707435E+02 -0.51549603611E+03  0.53207795164E+03  0.00000000000E+00 0. -1.
         11    1    3    3    0    0  0.57293969106E+01  0.87798394607E+01 -0.11702726990E+01  0.10548986117E+02  0.00000000000E+00 0.  1.
</event>
<event>
 8    1  0.5900800E-006  0.9855002E+02  0.7561462E-02  0.1283375E+00
         -1   -1    0    0    0  501 -0.00000000000E+00  0.00000000000E+00  0.25712673896E+02  0.25712673896E+02  0.00000000000E+00 0.  1.
          1   -1    0    0  501    0  0.00000000000E+00 -0.00000000000E+00 -0.62114600302E+03  0.62114600302E+03  0.00000000000E+00 0. -1.
         23    2    1    2    0    0  0.83131645065E+01  0.39027274281E+02 -0.12167545772E+03  0.15524304378E+03  0.87768153623E+02 0.  0.
         23    2    1    2    0    0 -0.83131645065E+01 -0.39027274281E+02 -0.47375787141E+03  0.49161563313E+03  0.12508866127E+03 0.  0.
          5    1    4    4  502    0  0.58289148859E+02 -0.14852857181E+02 -0.22240147566E+03  0.23043029535E+03  0.41800000000E+01 0. -1.
         -5    1    4    4    0  502 -0.66602313365E+02 -0.24174417101E+02 -0.25135639574E+03  0.26118533778E+03  0.41800000000E+01 0. -1.
        -11    1    3    3    0    0 -0.40128897937E+00  0.51008975240E+02 -0.12899732203E+03  0.13871692644E+03  0.00000000000E+00 0. -1.
         11    1    3    3    0    0  0.87144534859E+01 -0.11981700959E+02  0.73218643181E+01  0.16526117346E+02  0.00000000000E+00 0.  1.
</event>
<event>
 7    1  0.5900800E-006  0.1210598E+03  0.7561462E-02  0.1241359E+00
         -2   -1    0    0    0  501 -0.00000000000E+00  0.00000000000E+00  0.14513857895E+03  0.14513857895E+03  0.00000000000E+00 0.  1.
          2   -1    0    0  501    0  0.00000000000E+00 -0.00000000000E+00 -0.22416201449E+03  0.22416201449E+03  0.00000000000E+00 0. -1.
         23    2    1    2    0    0  0.12369448259E+02 -0.17727623017E+01 -0.16852755793E+03  0.21024900959E+03  0.12508781842E+03 0.  0.
          5    1    3    3  502    0 -0.27004629162E+02  0.51714681836E+02 -0.68062300114E+02  0.89741893285E+02  0.41800000000E+01 0. -1.
         -5    1    3    3    0  502  0.39374077421E+02 -0.53487444138E+02 -0.10046525781E+03  0.12050711631E+03  0.41800000000E+01 0. -1.
        -11    1    1    2    0    0  0.27230310132E+02  0.48627856323E+02  0.79200536458E+02  0.96844634212E+02  0.00000000000E+00 0.  1.
         11    1    1    2    0    0 -0.39599758391E+02 -0.46855094021E+02  0.10303585934E+02  0.62206949640E+02  0.00000000000E+00 0. -1.
</event>
<event>
 8    1  0.5900800E-006  0.3419385E+03  0.7561462E-02  0.1065973E+00
          2   -1    0    0  501    0  0.00000000000E+00  0.00000000000E+00  0.18511215264E+03  0.18511215264E+03  0.00000000000E+00 0. -1.
         -2   -1    0    0    0  501 -0.00000000000E+00 -0.00000000000E+00 -0.70359227833E+03  0.70359227833E+03  0.00000000000E+00 0.  1.
         23    2    1    2    0    0 -0.33578144522E+03 -0.59994627935E+02 -0.31965483220E+03  0.47454179156E+03  0.81622091687E+02 0.  0.
         23    2    1    2    0    0  0.33578144522E+03  0.59994627935E+02 -0.19882529349E+03  0.41416263941E+03  0.12510259875E+03 0.  0.
          5    1    4    4  502    0  0.26513984660E+03  0.34193676456E+02 -0.90590671705E+02  0.28229857946E+03  0.41800000000E+01 0.  1.
         -5    1    4    4    0  502  0.70641598622E+02  0.25800951480E+02 -0.10823462178E+03  0.13186405995E+03  0.41800000000E+01 0.  1.
        -11    1    3    3    0    0 -0.13526213011E+03 -0.20314922981E+02 -0.75909831299E+02  0.15643159024E+03  0.00000000000E+00 0. -1.
         11    1    3    3    0    0 -0.20051931511E+03 -0.39679704955E+02 -0.24374500090E+03  0.31811020132E+03  0.00000000000E+00 0.  1.
</event>
<event>
 8    1  0.5900800E-006  0.9534035E+02  0.7561462E-02  0.1290411E+00
          2   -1    0    0  501    0  0.00000000000E+00  0.00000000000E+00  0.32826130197E+03  0.32826130197E+03  0.00000000000E+00 0. -1.
         -2   -1    0    0    0  501 -0.00000000000E+00 -0.00000000000E+00 -0.45077371514E+02  0.45077371514E+02  0.00000000000E+00 0.  1.
         23    2    1    2    0    0  0.62256305061E+01 -0.25117668384E+02  0.50044675851E+02  0.10849484529E+03  0.92720041700E+02 0.  0.
         23    2    1    2    0    0 -0.62256305061E+01  0.25117668384E+02  0.23313925461E+03  0.26484382820E+03  0.12295806421E+03 0.  0.
          5    1    4    4  502    0  0.50110519086E+02  0.34489520233E+02  0.16460129868E+03  0.17553247863E+03  0.41800000000E+01 0. -1.
         -5    1    4    4    0  502 -0.56336149592E+02 -0.93718518494E+01  0.68537955933E+02  0.89311349567E+02  0.41800000000E+01 0.  1.
        -11    1    3    3    0    0 -0.24873140920E+02 -0.32060122261E+02 -0.88514023474E+01  0.41531577169E+02  0.00000000000E+00 0.  1.
         11    1    3    3    0    0  0.31098771426E+02  0.69424538771E+01  0.58896078198E+02  0.66963268119E+02  0.00000000000E+00 0. -1.
</event>
<event>
 8    1  0.5900800E-006  0.1685635E+03  0.7561462E-02  0.1179354E+00
         -3   -1    0    0    0  501 -0.00000000000E+00  0.00000000000E+00  0.38707746124E+02  0.38707746124E+02  0.00000000000E+00 0.  1.
          3   -1    0    0  501    0  0.00000000000E+00 -0.00000000000E+00 -0.93158824721E+03  0.93158824721E+03  0.00000000000E+00 0. -1.
         23    2    1    2    0    0 -0.11162704190E+03 -0.10799634145E+03 -0.43655706915E+03  0.47229416567E+03  0.91410601463E+02 0.  0.
         23    2    1    2    0    0  0.11162704190E+03  0.10799634145E+03 -0.45632343194E+03  0.49800182766E+03  0.12510371524E+03 0.  0.
          5    1    4    4  502    0  0.10010387109E+03  0.79745950943E+02 -0.44822725000E+03  0.46616021038E+03  0.41800000000E+01 0.  1.
         -5    1    4    4    0  502  0.11523170810E+02  0.28250390503E+02 -0.80961819419E+01  0.31841617282E+02  0.41800000000E+01 0.  1.
        -11    1    3    3    0    0 -0.50495314858E+02 -0.10565544059E+03 -0.31815758744E+03  0.33902374459E+03  0.00000000000E+00 0. -1.
         11    1    3    3    0    0 -0.61131727042E+02 -0.23409008512E+01 -0.11839948171E+03  0.13327042109E+03  0.00000000000E+00 0.  1.
</event>
<event>
 8    1  0.5900800E-006  0.2355035E+03  0.7561462E-02  0.1122825E+00
          1   -1    0    0  501    0  0.00000000000E+00  0.00000000000E+00  0.20902244663E+03  0.20902244663E+03  0.00000000000E+00 0. -1.
         -1   -1    0    0    0  501 -0.00000000000E+00 -0.00000000000E+00 -0.39359963542E+03  0.39359963542E+03  0.00000000000E+00 0.  1.
         23    2    1    2    0    0 -0.11284628759E+03  0.17596619706E+03 -0.26165400608E+03  0.34710944648E+03  0.91234652458E+02 0.  0.
         23    2    1    2    0    0  0.11284628759E+03 -0.17596619706E+03  0.77076817288E+02  0.25551263557E+03  0.12508990385E+03 0.  0.
          5    1    4    4  502    0 -0.25560612295E+02 -0.10972211998E+02  0.11044490164E+02  0.30218992373E+02  0.41800000000E+01 0. -1.
         -5    1    4    4    0  502  0.13840689988E+03 -0.16499398506E+03  0.66032327124E+02  0.22529364320E+03  0.41800000000E+01 0. -1.
        -11    1    3    3    0    0 -0.69822940439E+02  0.17033310485E+03 -0.20137782001E+03  0.27283994578E+03  0.00000000000E+00 0.  1.
         11    1    3    3    0    0 -0.43023347146E+02  0.56330922056E+01 -0.60276186064E+02  0.74269500698E+02  0.00000000000E+00 0. -1.
</event>
<event>
 8    1  0.5900800E-006  0.1000953E+03  0.7561462E-02  0.1280096E+00
         -1   -1    0    0    0  501 -0.00000000000E+00  0.00000000000E+00  0.49263614122E+03  0.49263614122E+03  0.00000000000E+00 0.  1.
          1   -1    0    0  501    0  0.00000000000E+00 -0.00000000000E+00 -0.24581995290E+02  0.24581995290E+02  0.00000000000E+00 0. -1.
         23    2    1    2    0    0  0.44621776918E+01 -0.18762591438E+02  0.24628791673E+03  0.26189368327E+03  0.86940310202E+02 0.  0.
         23    2    1    2    0    0 -0.44621776918E+01  0.18762591438E+02  0.22176622920E+03  0.25532445325E+03  0.12505346915E+03 0.  0.
          5    1    4    4  502    0 -0.60938206414E+02  0.40671742521E+00  0.73596394693E+02  0.95642731725E+02  0.41800000000E+01 0. -1.
         -5    1    4    4    0  502  0.56476028722E+02  0.18355874013E+02  0.14816983451E+03  0.15968172152E+03  0.41800000000E+01 0. -1.
        -11    1    3    3    0    0 -0.54751201683E+01  0.29651759952E+02  0.15672178818E+03  0.15959612370E+03  0.00000000000E+00 0.  1.
         11    1    3    3    0    0  0.99372978601E+01 -0.48414351390E+02  0.89566128553E+02  0.10229755957E+03  0.00000000000E+00 0. -1.
</event>
<event>
 8    1  0.5900800E-006  0.2503433E+03  0.7561462E-02  0.1113088E+00
          2   -1    0    0  501    0  0.00000000000E+00  0.00000000000E+00  0.38528447049E+03  0.38528447049E+03  0.00000000000E+00 0. -1.
         -2   -1    0    0    0  501 -0.00000000000E+00 -0.00000000000E+00 -0.18819380883E+03  0.18819380883E+03  0.00000000000E+00 0.  1.
         23    2    1    2    0    0  0.17190972375E+03  0.16023283314E+03  0.17321655725E+02  0.25225074943E+03  0.90016036883E+02 0.  0.
         23    2    1    2    0    0 -0.17190972375E+03 -0.16023283314E+03  0.17976900594E+03  0.32122752989E+03  0.12507084603E+03 0.  0.
          5    1    4    4  502    0 -0.12353192134E+03 -0.30834219478E+02  0.97137605975E+02  0.16020009855E+03  0.41800000000E+01 0. -1.
         -5    1    4    4    0  502 -0.48377802406E+02 -0.12939861367E+03  0.82631399963E+02  0.16102743134E+03  0.41800000000E+01 0. -1.
        -11    1    3    3    0    0  0.11893818237E+02  0.90299654580E+01 -0.23987046101E+02  0.28255646676E+02  0.00000000000E+00 0.  1.
         11    1    3    3    0    0  0.16001590551E+03  0.15120286769E+03  0.41308701826E+02  0.22399510276E+03  0.00000000000E+00 0. -1.
</event>
<event>
 8    1  0.5900800E-006  0.1228335E+03  0.7561462E-02  0.1238495E+00
          1   -1    0    0  501    0  0.00000000000E+00  0.00000000000E+00  0.61427465609E+03  0.61427465609E+03  0.00000000000E+00 0. -1.
         -1   -1    0    0    0  501 -0.00000000000E+00 -0.00000000000E+00 -0.38415870979E+02  0.38415870979E+02  0.00000000000E+00 0.  1.
         23    2    1    2    0    0  0.44921762978E+02  0.76208165265E+02  0.13434553618E+03  0.18534975713E+03  0.92087784930E+02 0.  0.
         23    2    1    2    0    0 -0.44921762978E+02 -0.76208165265E+02  0.44151324893E+03  0.46734076994E+03  0.12509115487E+03 0.  0.
          5    1    4    4  502    0  0.34861937992E+02 -0.48747199355E+02  0.11114675499E+03  0.12634364927E+03  0.41800000000E+01 0. -1.
         -5    1    4    4    0  502 -0.79783700970E+02 -0.27460965910E+02  0.33036649394E+03  0.34099712067E+03  0.41800000000E+01 0. -1.
        -11    1    3    3    0    0  0.11391826514E+02  0.64646972722E+02  0.13474098915E+03  0.14988041550E+03  0.00000000000E+00 0. -1.
         11    1    3    3    0    0  0.33529936464E+02  0.11561192543E+02 -0.39545297078E+00  0.35469341626E+02  0.00000000000E+00 0.  1.
</event>
<event>
 8    1  0.5900800E-006  0.1567447E+03  0.7561462E-02  0.1192422E+00
         -2   -1    0    0    0  501 -0.00000000000E+00  0.00000000000E+00  0.11447858719E+03  0.11447858719E+03  0.00000000000E+00 0.  1.
          2   -1    0    0  501    0  0.00000000000E+00 -0.00000000000E+00 -0.50036256744E+03  0.50036256744E+03  0.00000000000E+00 0. -1.
         23    2    1    2    0    0 -0.39702641016E+02  0.13655552891E+03  0.13871231567E+02  0.17248828978E+03  0.96623428138E+02 0.  0.
         23    2    1    2    0    0  0.39702641016E+02 -0.13655552891E+03 -0.39975521181E+03  0.44235286485E+03  0.12509242780E+03 0.  0.
          5    1    4    4  502    0  0.11199871490E+02 -0.13537066496E+03 -0.20811411325E+03  0.24855504539E+03  0.41800000000E+01 0. -1.
         -5    1    4    4    0  502  0.28502769526E+02 -0.11848639557E+01 -0.19164109856E+03  0.19379781947E+03  0.41800000000E+01 0. -1.
        -11    1    3    3    0    0 -0.41204905178E+02  0.63551983593E+02  0.50264731337E+02  0.90902376458E+02  0.00000000000E+00 0.  1.
         11    1    3    3    0    0  0.15022641616E+01  0.73003545319E+02 -0.36393499770E+02  0.81585913320E+02  0.00000000000E+00 0. -1.
</event>
<event>
 8    1  0.5900800E-006  0.1839818E+03  0.7561462E-02  0.1164004E+00
          3   -1    0    0  501    0  0.00000000000E+00  0.00000000000E+00  0.68267411643E+03  0.68267411643E+03  0.00000000000E+00 0. -1.
         -3   -1    0    0    0  501 -0.00000000000E+00 -0.00000000000E+00 -0.65376579052E+02  0.65376579052E+02  0.00000000000E+00 0.  1.
         23    2    1    2    0    0 -0.47415950141E+02  0.17331059460E+03  0.25056112685E+03  0.32093476733E+03  0.89069703394E+02 0.  0.
         23    2    1    2    0    0  0.47415950141E+02 -0.17331059460E+03  0.36673641053E+03  0.42711592815E+03  0.12509031436E+03 0.  0.
          5    1    4    4  502    0  0.13196959087E+02 -0.13872814309E+03  0.34787101777E+03  0.37476842826E+03  0.41800000000E+01 0. -1.
         -5    1    4    4    0  502  0.34218991054E+02 -0.34582451513E+02  0.18865392755E+02  0.52347499895E+02  0.41800000000E+01 0. -1.
        -11    1    3    3    0    0 -0.27842242379E+02  0.94914648610E+02  0.64500335544E+02  0.11808587666E+03  0.00000000000E+00 0.  1.
         11    1    3    3    0    0 -0.19573707762E+02  0.78395945990E+02  0.18606079131E+03  0.20284889067E+03  0.00000000000E+00 0. -1.
</event>
<event>
 8    1  0.5900800E-006  0.1743063E+03  0.7561462E-02  0.1173430E+00
          3   -1    0    0  501    0  0.00000000000E+00  0.00000000000E+00  0.42291772840E+03  0.42291772840E+03  0.00000000000E+00 0. -1.
         -3   -1    0    0    0  501 -0.00000000000E+00 -0.00000000000E+00 -0.99268066703E+02  0.99268066703E+02  0.00000000000E+00 0.  1.
         23    2    1    2    0    0 -0.22332479245E+02 -0.15040053902E+03  0.49620828651E+02  0.18475601047E+03  0.92485106928E+02 0.  0.
         23    2    1    2    0    0  0.22332479245E+02  0.15040053902E+03  0.27402883305E+03  0.33742978463E+03  0.12509195197E+03 0.  0.
          5    1    4    4  502    0 -0.22167624361E+02  0.10798315740E+03  0.86943105925E+02  0.14045761609E+03  0.41800000000E+01 0.  1.
         -5    1    4    4    0  502  0.44500103605E+02  0.42417381625E+02  0.18708572712E+03  0.19697216854E+03  0.41800000000E+01 0.  1.
        -11    1    3    3    0    0 -0.41424761689E+02 -0.22072522107E+02  0.35267193861E+01  0.47070636949E+02  0.00000000000E+00 0.  1.
         11    1    3    3    0    0  0.19092282444E+02 -0.12832801691E+03  0.46094109265E+02  0.13768537353E+03  0.00000000000E+00 0. -1.
</event>
<event>
 8    1  0.5900800E-006  0.1070704E+03  0.7561462E-02  0.1266093E+00
         -1   -1    0    0    0  501 -0.00000000000E+00  0.00000000000E+00  0.12840518177E+02  0.12840518177E+02  0.00000000000E+00 0.  1.
          1   -1    0    0  501    0  0.00000000000E+00 -0.00000000000E+00 -0.10240276250E+04  0.10240276250E+04  0.00000000000E+00 0. -1.
         23    2    1    2    0    0 -0.80846439089E+01  0.17763116277E+02 -0.29515504801E+03  0.30972967964E+03  0.91842704225E+02 0.  0.
         23    2    1    2    0    0  0.80846439089E+01 -0.17763116277E+02 -0.71603205882E+03  0.72713846354E+03  0.12509015203E+03 0.  0.
          5    1    4    4  502    0 -0.29139185684E+02  0.41062802723E+02 -0.19410852855E+03  0.20057626770E+03  0.41800000000E+01 0. -1.
         -5    1    4    4    0  502  0.37223829593E+02 -0.58825918999E+02 -0.52192353026E+03  0.52656219583E+03  0.41800000000E+01 0. -1.
        -11    1    3    3    0    0 -0.39351732749E+02 -0.20574505781E+02 -0.13672442716E+03  0.14375478476E+03  0.00000000000E+00 0.  1.
         11    1    3    3    0    0  0.31267088840E+02  0.38337622058E+02 -0.15843062085E+03  0.16597489488E+03  0.00000000000E+00 0. -1.
</event>
<event>
 8    1  0.5900800E-006  0.1258240E+03  0.7561462E-02  0.1233787E+00
          2   -1    0    0  501    0  0.00000000000E+00  0.00000000000E+00  0.79977905879E+02  0.79977905879E+02  0.00000000000E+00 0.  1.
         -2   -1    0    0    0  501 -0.00000000000E+00 -0.00000000000E+00 -0.23105796806E+03  0.23105796806E+03  0.00000000000E+00 0. -1.
         23    2    1    2    0    0 -0.74983767545E+02 -0.35123631570E+01 -0.10567938615E+03  0.15825292497E+03  0.90779697699E+02 0.  0.
         23    2    1    2    0    0  0.74983767545E+02  0.35123631570E+01 -0.45400676038E+02  0.15278294897E+03  0.12508599451E+03 0.  0.
          5    1    4    4  502    0  0.42770382274E+02 -0.57921960784E+02 -0.47639647897E+01  0.72280197160E+02  0.41800000000E+01 0. -1.
         -5    1    4    4    0  502  0.32213385270E+02  0.61434323941E+02 -0.40636711249E+02  0.80502751815E+02  0.41800000000E+01 0. -1.
        -11    1    3    3    0    0  0.16941700211E+02 -0.62695514643E+01  0.12590555982E+00  0.18065003011E+02  0.00000000000E+00 0.  1.
         11    1    3    3    0    0 -0.91925467755E+02  0.27571883074E+01 -0.10580529171E+03  0.14018792196E+03  0.00000000000E+00 0. -1.
</event>
<event>
 8    1  0.5900800E-006  0.1356211E+03  0.7561462E-02  0.1219346E+00
         -2   -1    0    0    0  501 -0.00000000000E+00  0.00000000000E+00  0.88936359266E+01  0.88936359266E+01  0.00000000000E+00 0.  1.
          2   -1    0    0  501    0  0.00000000000E+00 -0.00000000000E+00 -0.26977865295E+04  0.26977865295E+04  0.00000000000E+00 0. -1.
         23    2    1    2    0    0 -0.90217640842E+01  0.93306197906E+02 -0.62528877909E+03  0.63716424387E+03  0.78770410777E+02 0.  0.
         23    2    1    2    0    0  0.90217640842E+01 -0.93306197906E+02 -0.20636041145E+04  0.20695159216E+04  0.12508704759E+03 0.  0.
          5    1    4    4  502    0 -0.38132111267E+02  0.97237907993E+01 -0.36706179088E+03  0.36918889574E+03  0.41800000000E+01 0.  1.
         -5    1    4    4    0  502  0.47153875352E+02 -0.10302998870E+03 -0.16965423236E+04  0.17003270258E+04  0.41800000000E+01 0.  1.
        -11    1    3    3    0    0  0.37022709254E+01 -0.11822017434E+02 -0.28843089962E+02  0.31390934118E+02  0.00000000000E+00 0.  1.
         11    1    3    3    0    0 -0.12724035010E+02  0.10512821534E+03 -0.59644568913E+03  0.60577330975E+03  0.00000000000E+00 0. -1.
</event>
<event>
 8    1  0.5900800E-006  0.8223219E+02  0.7561462E-02  0.1322834E+00
          3   -1    0    0  501    0  0.00000000000E+00  0.00000000000E+00  0.16606718782E+03  0.16606718782E+03  0.00000000000E+00 0. -1.
         -3   -1    0    0    0  501 -0.00000000000E+00 -0.00000000000E+00 -0.83892610901E+02  0.83892610901E+02  0.00000000000E+00 0.  1.
         23    2    1    2    0    0 -0.41616052812E+02 -0.20471275996E+02  0.31515657505E+02  0.10725282324E+03  0.91427361508E+02 0.  0.
         23    2    1    2    0    0  0.41616052812E+02  0.20471275996E+02  0.50658919417E+02  0.14270697548E+03  0.12509190918E+03 0.  0.
          5    1    4    4  502    0  0.55437141490E+02  0.11339925811E+02  0.86243260910E+02  0.10323392382E+03  0.41800000000E+01 0. -1.
         -5    1    4    4    0  502 -0.13821088678E+02  0.91313501852E+01 -0.35584341493E+02  0.39473051668E+02  0.41800000000E+01 0. -1.
        -11    1    3    3    0    0 -0.29486697734E+01 -0.44838890407E+02  0.40707513473E+02  0.60632684252E+02  0.00000000000E+00 0. -1.
         11    1    3    3    0    0 -0.38667383039E+02  0.24367614412E+02 -0.91918559675E+01  0.46620138989E+02  0.00000000000E+00 0.  1.
</event>
<event>
 8    1  0.5900800E-006  0.1063667E+03  0.7561462E-02  0.1267450E+00
         -2   -1    0    0    0  501 -0.00000000000E+00  0.00000000000E+00  0.19802886259E+03  0.19802886259E+03  0.00000000000E+00 0.  1.
          2   -1    0    0  501    0  0.00000000000E+00 -0.00000000000E+00 -0.80987419841E+02  0.80987419841E+02  0.00000000000E+00 0. -1.
         23    2    1    2    0    0 -0.61271368016E+02 -0.36005681549E+02  0.57836315914E+02  0.13002640643E+03  0.92256367194E+02 0.  0.
         23    2    1    2    0    0  0.61271368016E+02  0.36005681549E+02  0.59205126837E+02  0.14898987601E+03  0.11679959960E+03 0.  0.
          5    1    4    4  502    0 -0.64167708902E+01 -0.26367056477E+02 -0.14452564674E+02  0.31028142735E+02  0.41800000000E+01 0. -1.
         -5    1    4    4    0  502  0.67688138906E+02  0.62372738027E+02  0.73657691511E+02  0.11796173327E+03  0.41800000000E+01 0.  1.
        -11    1    3    3    0    0 -0.32390649785E+02  0.14082968173E+02  0.62741954364E+02  0.72000257107E+02  0.00000000000E+00 0.  1.
         11    1    3    3    0    0 -0.28880718230E+02 -0.50088649723E+02 -0.49056384492E+01  0.58026149322E+02  0.00000000000E+00 0. -1.
</event>
<event>
 8    1  0.5900800E-006  0.1035537E+03  0.7561462E-02  0.1272996E+00
          2   -1    0    0  501    0  0.00000000000E+00  0.00000000000E+00  0.92725098659E+03  0.92725098659E+03  0.00000000000E+00 0. -1.
         -2   -1    0    0    0  501 -0.00000000000E+00 -0.00000000000E+00 -0.20015427309E+02  0.20015427309E+02  0.00000000000E+00 0.  1.
         23    2    1    2    0    0  0.20651018835E+02  0.79898708834E+02  0.40533203798E+03  0.42346691260E+03  0.90663646527E+02 0.  0.
         23    2    1    2    0    0 -0.20651018835E+02 -0.79898708834E+02  0.50190352130E+03  0.52379950130E+03  0.12509398312E+03 0.  0.
          5    1    4    4  502    0 -0.15907402103E+02 -0.74978127227E+02  0.50797825124E+03  0.51374521033E+03  0.41800000000E+01 0. -1.
         -5    1    4    4    0  502 -0.47436167326E+01 -0.49205816077E+01 -0.60747299384E+01  0.10054290969E+02  0.41800000000E+01 0. -1.
        -11    1    3    3    0    0  0.54733714597E+02  0.65439683191E+02  0.26958732235E+03  0.28276395813E+03  0.00000000000E+00 0. -1.
         11    1    3    3    0    0 -0.34082695762E+02  0.14459025643E+02  0.13574471563E+03  0.14070295447E+03  0.00000000000E+00 0.  1.
</event>
<event>
 8    1  0.5900800E-006  0.8260968E+02  0.7561462E-02  0.1321805E+00
          1   -1    0    0  501    0  0.00000000000E+00  0.00000000000E+00  0.49967239030E+03  0.49967239030E+03  0.00000000000E+00 0. -1.
         -1   -1    0    0    0  501 -0.00000000000E+00 -0.00000000000E+00 -0.24999541666E+02  0.24999541666E+02  0.00000000000E+00 0.  1.
         23    2    1    2    0    0 -0.12207202968E+02 -0.86501953352E+01  0.12707443345E+03  0.15494769699E+03  0.87390133779E+02 0.  0.
         23    2    1    2    0    0  0.12207202968E+02  0.86501953352E+01  0.34759841519E+03  0.36972423498E+03  0.12509000762E+03 0.  0.
          5    1    4    4  502    0 -0.38128000372E+02 -0.18974805590E+02  0.26852770569E+03  0.27191614292E+03  0.41800000000E+01 0. -1.
         -5    1    4    4    0  502  0.50335203340E+02  0.27625000926E+02  0.79070709503E+02  0.97808092062E+02  0.41800000000E+01 0. -1.
        -11    1    3    3    0    0 -0.34498913711E+01 -0.35986704573E+02  0.12007848681E+03  0.12540250257E+03  0.00000000000E+00 0. -1.
         11    1    3    3    0    0 -0.87573115974E+01  0.27336509238E+02  0.69959466378E+01  0.29545194416E+02  0.00000000000E+00 0.  1.
</event>
<event>
 8    1  0.5900800E-006  0.8660191E+02  0.7561462E-02  0.1311296E+00
         -1   -1    0    0    0  501 -0.00000000000E+00  0.00000000000E+00  0.17496377386E+03  0.17496377386E+03  0.00000000000E+00 0.  1.
          1   -1    0    0  501    0  0.00000000000E+00 -0.00000000000E+00 -0.86422493853E+02  0.86422493853E+02  0.00000000000E+00 0. -1.
         23    2    1    2    0    0 -0.95819287249E+01 -0.99997344662E+01  0.10183490615E+03  0.13483936698E+03  0.87289740113E+02 0.  0.
         23    2    1    2    0    0  0.95819287249E+01  0.99997344662E+01 -0.13293626150E+02  0.12654690073E+03  0.12508233105E+03 0.  0.
          5    1    4    4  502    0  0.31930798044E+02 -0.47633445157E+02  0.13474795487E+02  0.59055596472E+02  0.41800000000E+01 0.  1.
         -5    1    4    4    0  502 -0.22348869319E+02  0.57633179623E+02 -0.26768421637E+02  0.67491304257E+02  0.41800000000E+01 0.  1.
        -11    1    3    3    0    0  0.18465953307E+02 -0.16717380646E+02  0.10300549364E+03  0.10597449678E+03  0.00000000000E+00 0.  1.
         11    1    3    3    0    0 -0.28047882032E+02  0.67176461802E+01 -0.11705874883E+01  0.28864870202E+02  0.00000000000E+00 0. -1.
</event>
<event>
 8    1  0.5900800E-006  0.1072439E+03  0.7561462E-02  0.1265761E+00
          1   -1    0    0  501    0  0.00000000000E+00  0.00000000000E+00  0.22439139069E+03  0.22439139069E+03  0.00000000000E+00 0. -1.
         -1   -1    0    0    0  501 -0.00000000000E+00 -0.00000000000E+00 -0.82908783970E+02  0.82908783970E+02  0.00000000000E+00 0.  1.
         23    2    1    2    0    0  0.70340353900E+02 -0.28302412256E+02  0.29172869105E+02  0.12288368310E+03  0.92198434667E+02 0.  0.
         23    2    1    2    0    0 -0.70340353900E+02  0.28302412256E+02  0.11230973762E+03  0.18441649156E+03  0.12508866163E+03 0.  0.
          5    1    4    4  502    0 -0.37666508963E+02  0.53231889413E+02  0.12512855830E+03  0.14116312709E+03  0.41800000000E+01 0.  1.
         -5    1    4    4    0  502 -0.32673844937E+02 -0.24929477158E+02 -0.12818820680E+02  0.43253364470E+02  0.41800000000E+01 0.  1.
        -11    1    3    3    0    0  0.86984087669E+02 -0.27265990695E+02  0.22142795823E+01  0.91184257360E+02  0.00000000000E+00 0.  1.
         11    1    3    3    0    0 -0.16643733769E+02 -0.10364215603E+01  0.26958589522E+02  0.31699425744E+02  0.00000000000E+00 0. -1.
</event>
<event>
 8    1  0.5900800E-006  0.1361215E+03  0.7561462E-02  0.1218645E+00
         -1   -1    0    0    0  501 -0.00000000000E+00  0.00000000000E+00  0.11896506343E+03  0.11896506343E+03  0.00000000000E+00 0.  1.
          1   -1    0    0  501    0  0.00000000000E+00 -0.00000000000E+00 -0.19816558948E+03  0.19816558948E+03  0.00000000000E+00 0. -1.
         23    2    1    2    0    0  0.67143525459E+02  0.85094098918E+02 -0.28983060832E+02  0.14416094149E+03  0.90515747548E+02 0.  0.
         23    2    1    2    0    0 -0.67143525459E+02 -0.85094098918E+02 -0.50217465217E+02  0.17296971142E+03  0.12508984201E+03 0.  0.
          5    1    4    4  502    0 -0.88787706236E+02 -0.22998840301E+02 -0.54790739346E+02  0.10691913277E+03  0.41800000000E+01 0.  1.
         -5    1    4    4    0  502  0.21644180777E+02 -0.62095258617E+02  0.45732741283E+01  0.66050578654E+02  0.41800000000E+01 0.  1.
        -11    1    3    3    0    0  0.59052049030E+02  0.46661177740E+02 -0.58257790648E+02  0.95175522977E+02  0.00000000000E+00 0.  1.
         11    1    3    3    0    0  0.80914764291E+01  0.38432921178E+02  0.29274729816E+02  0.48985418513E+02  0.00000000000E+00 0. -1.
</event>
<event>
 8    1  0.5900800E-006  0.1054437E+03  0.7561462E-02  0.1269248E+00
         -2   -1    0    0    0  501 -0.00000000000E+00  0.00000000000E+00  0.23802079856E+03  0.23802079856E+03  0.00000000000E+00 0.  1.
          2   -1    0    0  501    0  0.00000000000E+00 -0.00000000000E+00 -0.60266656378E+02  0.60266656378E+02  0.00000000000E+00 0. -1.
         23    2    1    2    0    0  0.24154743595E+02 -0.29329924000E+02  0.12039609153E+03  0.15552375301E+03  0.90822479671E+02 0.  0.
         23    2    1    2    0    0 -0.24154743595E+02  0.29329924000E+02  0.57358050650E+02  0.14276370193E+03  0.12509129680E+03 0.  0.
          5    1    4    4  502    0 -0.58659250148E+02  0.55317351853E+02  0.14995212321E+02  0.82117268808E+02  0.41800000000E+01 0. -1.
         -5    1    4    4    0  502  0.34504506553E+02 -0.25987427854E+02  0.42362838329E+02  0.60646433120E+02  0.41800000000E+01 0. -1.
        -11    1    3    3    0    0  0.39712414521E+02  0.12894711376E+02  0.95192228849E+02  0.10394666845E+03  0.00000000000E+00 0. -1.
         11    1    3    3    0    0 -0.15557670926E+02 -0.42224635376E+02  0.25203862679E+02  0.51577084555E+02  0.00000000000E+00 0.  1.
</event>
<event>
 8    1  0.5900800E-006  0.1225074E+03  0.7561462E-02  0.1239017E+00
          1   -1    0    0  501    0  0.00000000000E+00  0.00000000000E+00  0.53967332270E+02  0.53967332270E+02  0.00000000000E+00 0. -1.
         -1   -1    0    0    0  501 -0.00000000000E+00 -0.00000000000E+00 -0.44580785672E+03  0.44580785672E+03  0.00000000000E+00 0.  1.
         23    2    1    2    0    0 -0.13243436040E+02  0.99124164199E+02 -0.25997914350E+03  0.29232577524E+03  0.88680410946E+02 0.  0.
         23    2    1    2    0    0  0.13243436040E+02 -0.99124164199E+02 -0.13186138095E+03  0.20744941375E+03  0.12508735729E+03 0.  0.
          5    1    4    4  502    0 -0.21205018713E+02  0.14475418330E+02  0.47253459722E+01  0.26438453983E+02  0.41800000000E+01 0.  1.
         -5    1    4    4    0  502  0.34448454753E+02 -0.11359958253E+03 -0.13658672692E+03  0.18101095977E+03  0.41800000000E+01 0.  1.
        -11    1    3    3    0    0 -0.94454019209E+01  0.45941981268E+02 -0.22190912314E+03  0.22681168442E+03  0.00000000000E+00 0.  1.
         11    1    3    3    0    0 -0.37980341194E+01  0.53182182931E+02 -0.38070020369E+02  0.65514090815E+02  0.00000000000E+00 0. -1.
</event>
<event>
 8    1  0.5900800E-006  0.1262638E+03  0.7561462E-02  0.1233107E+00
         -2   -1    0    0    0  501 -0.00000000000E+00  0.00000000000E+00  0.12837046506E+02  0.12837046506E+02  0.00000000000E+00 0.  1.
          2   -1    0    0  501    0  0.00000000000E+00 -0.00000000000E+00 -0.13857278700E+04  0.13857278700E+04  0.00000000000E+00 0. -1.
         23    2    1    2    0    0  0.47619075301E+02 -0.50017039329E+02 -0.42547217064E+03  0.44043205419E+03  0.90468479686E+02 0.  0.
         23    2    1    2    0    0 -0.47619075301E+02  0.50017039329E+02 -0.94741865288E+03  0.95813286234E+03  0.12508875854E+03 0.  0.
          5    1    4    4  502    0 -0.33989273395E+02 -0.38440979852E+02 -0.27579614848E+03  0.28056009615E+03  0.41800000000E+01 0.  1.
         -5    1    4    4    0  502 -0.13629801906E+02  0.88458019181E+02 -0.67162250440E+03  0.67757276619E+03  0.41800000000E+01 0.  1.
        -11    1    3    3    0    0  0.18261751927E+02  0.24959311403E+02 -0.81738177744E+02  0.87393297855E+02  0.00000000000E+00 0.  1.
         11    1    3    3    0    0  0.29357323374E+02 -0.74976350732E+02 -0.34373399290E+03  0.35303875634E+03  0.00000000000E+00 0. -1.
</event>
<event>
 7    1  0.5900800E-006  0.1235001E+03  0.7561462E-02  0.1237432E+00
          1   -1    0    0  501    0  0.00000000000E+00  0.00000000000E+00  0.86102329843E+03  0.86102329843E+03  0.00000000000E+00 0. -1.
         -1   -1    0    0    0  501 -0.00000000000E+00 -0.00000000000E+00 -0.37224834469E+02  0.37224834469E+02  0.00000000000E+00 0.  1.
         23    2    1    2    0    0 -0.13700096640E+02  0.27153597939E+02  0.52915795778E+02  0.11102346421E+03  0.92742210640E+02 0.  0.
          5    1    1    2  502    0 -0.24057947129E+02 -0.85160774826E+02  0.37562606467E+03  0.38593206041E+03  0.41800000000E+01 0. -1.
         -5    1    1    2    0  502  0.37758043769E+02  0.58007176888E+02  0.39525660351E+03  0.40129260828E+03  0.41800000000E+01 0.  1.
        -11    1    3    3    0    0  0.14499053975E+02  0.50449126249E+02  0.52791230797E+02  0.74446295774E+02  0.00000000000E+00 0.  1.
         11    1    3    3    0    0 -0.28199150615E+02 -0.23295528310E+02  0.12456498154E+00  0.36577168440E+02  0.00000000000E+00 0. -1.
</event>
<event>
 8    1  0.5900800E-006  0.5211427E+02  0.7561462E-02  0.1434260E+00
         -3   -1    0    0    0  501 -0.00000000000E+00  0.00000000000E+00  0.46688450493E+02  0.46688450493E+02  0.00000000000E+00 0.  1.
          3   -1    0    0  501    0  0.00000000000E+00 -0.00000000000E+00 -0.20637692078E+03  0.20637692078E+03  0.00000000000E+00 0. -1.
         23    2    1    2    0    0 -0.50528173226E+00  0.19717661997E+02 -0.60746566815E+02  0.92361814115E+02  0.66719695912E+02 0.  0.
         23    2    1    2    0    0  0.50528173226E+00 -0.19717661997E+02 -0.98941903476E+02  0.16070355716E+03  0.12508833486E+03 0.  0.
          5    1    4    4  502    0  0.12404077098E+02 -0.69929586262E+00  0.28428537827E+02  0.31305020466E+02  0.41800000000E+01 0.  1.
         -5    1    4    4    0  502 -0.11898795366E+02 -0.19018366135E+02 -0.12737044130E+03  0.12939853670E+03  0.41800000000E+01 0.  1.
        -11    1    3    3    0    0 -0.31820580792E+02  0.18825832519E+02 -0.24025228841E+02  0.44092776652E+02  0.00000000000E+00 0. -1.
         11    1    3    3    0    0  0.31315299060E+02  0.89182947793E+00 -0.36721337975E+02  0.48269037464E+02  0.00000000000E+00 0.  1.
</event>
<event>
 8    1  0.5900800E-006  0.1287765E+03  0.7561462E-02  0.1229282E+00
          2   -1    0    0  501    0  0.00000000000E+00  0.00000000000E+00  0.32811650854E+03  0.32811650854E+03  0.00000000000E+00 0.  1.
         -2   -1    0    0    0  501 -0.00000000000E+00 -0.00000000000E+00 -0.75066139381E+02  0.75066139381E+02  0.00000000000E+00 0. -1.
         23    2    1    2    0    0  0.11012953467E+03  0.94566151716E-01  0.14629680876E+03  0.20526125715E+03  0.92741059335E+02 0.  0.
         23    2    1    2    0    0 -0.11012953467E+03 -0.94566151716E-01  0.10675356040E+03  0.19792139076E+03  0.12509208974E+03 0.  0.
          5    1    4    4  502    0 -0.75953168765E+02  0.12478811983E+02 -0.79591542619E+01  0.77494678079E+02  0.41800000000E+01 0.  1.
         -5    1    4    4    0  502 -0.34176365902E+02 -0.12573378135E+02  0.11471271466E+03  0.12042671269E+03  0.41800000000E+01 0.  1.
        -11    1    3    3    0    0  0.11045291461E+03 -0.29414434931E+02  0.12013523311E+03  0.16582379071E+03  0.00000000000E+00 0.  1.
         11    1    3    3    0    0 -0.32337994823E+00  0.29509001083E+02  0.26161575645E+02  0.39437466446E+02  0.00000000000E+00 0. -1.
</event>
<event>
 8    1  0.5900800E-006  0.1020093E+03  0.7561462E-02  0.1276126E+00
          4   -1    0    0  501    0  0.00000000000E+00  0.00000000000E+00  0.39734786218E+02  0.39734786218E+02  0.00000000000E+00 0. -1.
         -4   -1    0    0    0  501 -0.00000000000E+00 -0.00000000000E+00 -0.36721471661E+03  0.36721471661E+03  0.00000000000E+00 0.  1.
         23    2    1    2    0    0 -0.45834587246E+02  0.18249850270E+02 -0.17989906104E+03  0.20729549922E+03  0.90409542683E+02 0.  0.
         23    2    1    2    0    0  0.45834587246E+02 -0.18249850270E+02 -0.14758086934E+03  0.19965400361E+03  0.12509093387E+03 0.  0.
          5    1    4    4  502    0 -0.26144065702E+02  0.95485334968E+01 -0.11034368647E+03  0.11387663591E+03  0.41800000000E+01 0. -1.
         -5    1    4    4    0  502  0.71978652948E+02 -0.27798383766E+02 -0.37237182878E+02  0.85777367696E+02  0.41800000000E+01 0. -1.
        -11    1    3    3    0    0 -0.39781982422E+02 -0.30091793616E+02 -0.12086982239E+03  0.13075792952E+03  0.00000000000E+00 0.  1.
         11    1    3    3    0    0 -0.60526048240E+01  0.48341643885E+02 -0.59029238657E+02  0.76537569697E+02  0.00000000000E+00 0. -1.
</event>
<event>
 8    1  0.5900800E-006  0.2079224E+03  0.7561462E-02  0.1143222E+00
         -1   -1    0    0    0  501 -0.00000000000E+00  0.00000000000E+00  0.11930261494E+04  0.11930261494E+04  0.00000000000E+00 0.  1.
          1   -1    0    0  501    0  0.00000000000E+00 -0.00000000000E+00 -0.39190185550E+02  0.39190185550E+02  0.00000000000E+00 0. -1.
         23    2    1    2    0    0 -0.71272270878E+02 -0.16660522702E+03  0.68236932941E+03  0.71186378219E+03  0.91022548909E+02 0.  0.
         23    2    1    2    0    0  0.71272270878E+02  0.16660522702E+03  0.47146663441E+03  0.52035255273E+03  0.12509577731E+03 0.  0.
          5    1    4    4  502    0  0.88657848887E+02  0.17656580857E+03  0.44490174476E+03  0.48681694076E+03  0.41800000000E+01 0. -1.
         -5    1    4    4    0  502 -0.17385578010E+02 -0.99605815508E+01  0.26564889649E+02  0.33535611962E+02  0.41800000000E+01 0. -1.
        -11    1    3    3    0    0 -0.84669099888E+02 -0.10587073548E+03  0.38813472559E+03  0.41112775912E+03  0.00000000000E+00 0. -1.
         11    1    3    3    0    0  0.13396829010E+02 -0.60734491545E+02  0.29423460382E+03  0.30073602308E+03  0.00000000000E+00 0.  1.
</event>
<event>
 8    1  0.5900800E-006  0.1706225E+03  0.7561462E-02  0.1177200E+00
         -2   -1    0    0    0  501 -0.00000000000E+00  0.00000000000E+00  0.22339273210E+02  0.22339273210E+02  0.00000000000E+00 0.  1.
          2   -1    0    0  501    0  0.00000000000E+00 -0.00000000000E+00 -0.20067373261E+04  0.20067373261E+04  0.00000000000E+00 0. -1.
         23    2    1    2    0    0 -0.13245380900E+03 -0.60829335765E+02 -0.43562084920E+03  0.46843506485E+03  0.91769636176E+02 0.  0.
         23    2    1    2    0    0  0.13245380900E+03  0.60829335765E+02 -0.15487772037E+04  0.15606415345E+04  0.12508778029E+03 0.  0.
          5    1    4    4  502    0  0.10632255309E+03  0.84761767444E+02 -0.14341976902E+04  0.14406351132E+04  0.41800000000E+01 0. -1.
         -5    1    4    4    0  502  0.26131255911E+02 -0.23932431679E+02 -0.11457951353E+03  0.12000642126E+03  0.41800000000E+01 0. -1.
        -11    1    3    3    0    0 -0.13418066788E+03 -0.28529450433E+02 -0.31544890324E+03  0.34398603421E+03  0.00000000000E+00 0.  1.
         11    1    3    3    0    0  0.17268588836E+01 -0.32299885332E+02 -0.12017194595E+03  0.12444903065E+03  0.00000000000E+00 0. -1.
</event>
<event>
 8    1  0.5900800E-006  0.9103653E+02  0.7561462E-02  0.1300361E+00
         -1   -1    0    0    0  501 -0.00000000000E+00  0.00000000000E+00  0.19216216512E+02  0.19216216512E+02  0.00000000000E+00 0. -1.
          1   -1    0    0  501    0  0.00000000000E+00 -0.00000000000E+00 -0.78013889161E+03  0.78013889161E+03  0.00000000000E+00 0.  1.
         23    2    1    2    0    0 -0.54740594189E+02  0.12417650763E+02 -0.31767649709E+03  0.33538783964E+03  0.91738298816E+02 0.  0.
         23    2    1    2    0    0  0.54740594189E+02 -0.12417650763E+02 -0.44324617800E+03  0.46396726848E+03  0.12509085180E+03 0.  0.
          5    1    4    4  502    0  0.50597251536E+02  0.25280940131E+02 -0.76444009632E+02  0.95185959078E+02  0.41800000000E+01 0. -1.
         -5    1    4    4    0  502  0.41433426524E+01 -0.37698590894E+02 -0.36680216837E+03  0.36878130940E+03  0.41800000000E+01 0. -1.
        -11    1    3    3    0    0 -0.55876555081E+02  0.34119754647E+02 -0.30088263567E+03  0.30792321691E+03  0.00000000000E+00 0.  1.
         11    1    3    3    0    0  0.11359608925E+01 -0.21702103884E+02 -0.16793861425E+02  0.27464622730E+02  0.00000000000E+00 0. -1.
</event>
<event>
 8    1  0.5900800E-006  0.8402706E+02  0.7561462E-02  0.1317997E+00
         -2   -1    0    0    0  501 -0.00000000000E+00  0.00000000000E+00  0.34070557492E+03  0.34070557492E+03  0.00000000000E+00 0.  1.
          2   -1    0    0  501    0  0.00000000000E+00 -0.00000000000E+00 -0.40433712724E+02  0.40433712724E+02  0.00000000000E+00 0. -1.
         23    2    1    2    0    0  0.20854761696E+02 -0.50454056300E-02  0.19809838855E+03  0.21828239856E+03  0.89271007967E+02 0.  0.
         23    2    1    2    0    0 -0.20854761696E+02  0.50454056300E-02  0.10217347364E+03  0.16285688908E+03  0.12509207207E+03 0.  0.
          5    1    4    4  502    0  0.21753723977E+02 -0.23054779241E+02  0.10914492738E+03  0.11373141574E+03  0.41800000000E+01 0.  1.
         -5    1    4    4    0  502 -0.42608485673E+02  0.23059824647E+02 -0.69714537385E+01  0.49125473345E+02  0.41800000000E+01 0.  1.
        -11    1    3    3    0    0 -0.30622714244E+02 -0.14631403403E+02  0.46890801331E+02  0.57884158824E+02  0.00000000000E+00 0. -1.
         11    1    3    3    0    0  0.51477475940E+02  0.14626357998E+02  0.15120758722E+03  0.16039823974E+03  0.00000000000E+00 0.  1.
</event>
<event>
 6    1  0.9199640E-006  0.9229993E+02  0.7561462E-02  0.1297376E+00
         -2   -1    0    0    0  501 -0.00000000000E+00  0.00000000000E+00  0.10759334359E+02  0.10759334359E+02  0.00000000000E+00 0.  1.
          2   -1    0    0  501    0  0.00000000000E+00 -0.00000000000E+00 -0.22029123530E+04  0.22029123530E+04  0.00000000000E+00 0. -1.
          5    1    1    2  502    0 -0.31778513397E+02 -0.80416114230E+02 -0.17355224141E+04  0.17376801051E+04  0.41800000000E+01 0. -1.
         -5    1    1    2    0  502  0.49284354898E+01  0.76284344784E+00  0.31059720474E+01  0.72104693927E+01  0.41800000000E+01 0.  1.
        -11    1    1    2    0    0  0.95030283634E+01  0.71896599319E+02 -0.35435434610E+03  0.36169936569E+03  0.00000000000E+00 0.  1.
         11    1    1    2    0    0  0.17347049544E+02  0.77566714632E+01 -0.10538223048E+03  0.10708174719E+03  0.00000000000E+00 0. -1.
</event>
<event>
 8    1  0.5900800E-006  0.9831247E+02  0.7561462E-02  0.1283885E+00
          2   -1    0    0  501    0  0.00000000000E+00  0.00000000000E+00  0.64620209607E+03  0.64620209607E+03  0.00000000000E+00 0. -1.
         -2   -1    0    0    0  501 -0.00000000000E+00 -0.00000000000E+00 -0.29215675122E+02  0.29215675122E+02  0.00000000000E+00 0.  1.
         23    2    1    2    0    0 -0.76726728513E+02  0.17195619575E+02  0.20811625636E+03  0.24067106043E+03  0.91801432252E+02 0.  0.
         23    2    1    2    0    0  0.76726728513E+02 -0.17195619575E+02  0.40887016459E+03  0.43474671077E+03  0.12508881178E+03 0.  0.
          5    1    4    4  502    0  0.22188773022E+01  0.13150120763E+02  0.29461807320E+03  0.29494936946E+03  0.41800000000E+01 0. -1.
         -5    1    4    4    0  502  0.74507851211E+02 -0.30345740338E+02  0.11425209139E+03  0.13979734130E+03  0.41800000000E+01 0. -1.
        -11    1    3    3    0    0 -0.40521594747E+02 -0.24119078631E+02  0.16269513216E+03  0.16939136821E+03  0.00000000000E+00 0. -1.
         11    1    3    3    0    0 -0.36205133766E+02  0.41314698206E+02  0.45421124201E+02  0.71279692217E+02  0.00000000000E+00 0.  1.
</event>
<event>
 8    1  0.5900800E-006  0.1291560E+03  0.7561462E-02  0.1228713E+00
          2   -1    0    0  501    0  0.00000000000E+00  0.00000000000E+00  0.32003556780E+03  0.32003556780E+03  0.00000000000E+00 0. -1.
         -2   -1    0    0    0  501 -0.00000000000E+00 -0.00000000000E+00 -0.89924691630E+02  0.89924691630E+02  0.00000000000E+00 0.  1.
         23    2    1    2    0    0 -0.11700339179E+03  0.54876012908E+01  0.61978515830E+02  0.16988575851E+03  0.10630111506E+03 0.  0.
         23    2    1    2    0    0  0.11700339179E+03 -0.54876012908E+01  0.16813236034E+03  0.24007450092E+03  0.12508943976E+03 0.  0.
          5    1    4    4  502    0  0.19220322075E+01 -0.12203090949E+02  0.11024111389E+03  0.11100984294E+03  0.41800000000E+01 0.  1.
         -5    1    4    4    0  502  0.11508135958E+03  0.67154896578E+01  0.57891246447E+02  0.12906465798E+03  0.41800000000E+01 0.  1.
        -11    1    3    3    0    0 -0.10982877620E+02  0.20090021060E+02 -0.23580712140E+02  0.32867651757E+02  0.00000000000E+00 0.  1.
         11    1    3    3    0    0 -0.10602051417E+03 -0.14602419769E+02  0.85559227970E+02  0.13701810675E+03  0.00000000000E+00 0. -1.
</event>
<event>
 8    1  0.5900800E-006  0.9238185E+02  0.7561462E-02  0.1297184E+00
         -2   -1    0    0    0  501 -0.00000000000E+00  0.00000000000E+00  0.27513039315E+02  0.27513039315E+02  0.00000000000E+00 0. -1.
          2   -1    0    0  501    0  0.00000000000E+00 -0.00000000000E+00 -0.51608436302E+03  0.51608436302E+03  0.00000000000E+00 0.  1.
         23    2    1    2    0    0  0.27831616275E+02 -0.31979634550E+02 -0.15713713049E+03  0.18681590841E+03  0.91710468145E+02 0.  0.
         23    2    1    2    0    0 -0.27831616275E+02  0.31979634550E+02 -0.33143419322E+03  0.35678149392E+03  0.12508842505E+03 0.  0.
          5    1    4    4  502    0 -0.42759320722E+02  0.61641489682E+02 -0.11237305375E+03  0.13517843160E+03  0.41800000000E+01 0. -1.
         -5    1    4    4    0  502  0.14927704447E+02 -0.29661855132E+02 -0.21906113946E+03  0.22160306233E+03  0.41800000000E+01 0. -1.
        -11    1    3    3    0    0  0.31537916207E+02 -0.49256941573E+02 -0.15864317903E+03  0.16908147357E+03  0.00000000000E+00 0.  1.
         11    1    3    3    0    0 -0.37062999317E+01  0.17277307024E+02  0.15060485355E+01  0.17734434848E+02  0.00000000000E+00 0. -1.
</event>
<event>
 8    1  0.5900800E-006  0.1905473E+03  0.7561462E-02  0.1157969E+00
          1   -1    0    0  501    0  0.00000000000E+00  0.00000000000E+00  0.16691711229E+03  0.16691711229E+03  0.00000000000E+00 0. -1.
         -1   -1    0    0    0  501 -0.00000000000E+00 -0.00000000000E+00 -0.25334303485E+03  0.25334303485E+03  0.00000000000E+00 0.  1.
         23    2    1    2    0    0 -0.14560577743E+03  0.88201234332E+02 -0.79668197521E+02  0.20889899321E+03  0.91166153315E+02 0.  0.
         23    2    1    2    0    0  0.14560577743E+03 -0.88201234332E+02 -0.67577250402E+01  0.21136115393E+03  0.12508944952E+03 0.  0.
          5    1    4    4  502    0  0.45153568630E+02 -0.99701366590E+02 -0.10980345642E+02  0.11007837049E+03  0.41800000000E+01 0.  1.
         -5    1    4    4    0  502  0.10045220880E+03  0.11500132258E+02  0.42226206023E+01  0.10128278343E+03  0.41800000000E+01 0.  1.
        -11    1    3    3    0    0 -0.89146710185E+02  0.50132637505E+02 -0.94452504831E+02  0.13921814878E+03  0.00000000000E+00 0.  1.
         11    1    3    3    0    0 -0.56459067248E+02  0.38068596827E+02  0.14784307310E+02  0.69680844437E+02  0.00000000000E+00 0. -1.
</event>
<event>
 8    1  0.5900800E-006  0.1145543E+03  0.7561462E-02  0.1252361E+00
         -2   -1    0    0    0  501 -0.00000000000E+00  0.00000000000E+00  0.41137167427E+02  0.41137167427E+02  0.00000000000E+00 0.  1.
          2   -1    0    0  501    0  0.00000000000E+00 -0.00000000000E+00 -0.55861464884E+03  0.55861464884E+03  0.00000000000E+00 0. -1.
         23    2    1    2    0    0 -0.42766391420E+02 -0.93163019063E+02 -0.17801856179E+03  0.22373434823E+03  0.88646138559E+02 0.  0.
         23    2    1    2    0    0  0.42766391420E+02  0.93163019063E+02 -0.33945891962E+03  0.37601746803E+03  0.12509382798E+03 0.  0.
          5    1    4    4  502    0  0.43062981910E+02  0.80578536777E+02 -0.97453028931E+02  0.13364836792E+03  0.41800000000E+01 0. -1.
         -5    1    4    4    0  502 -0.29659048964E+00  0.12584482286E+02 -0.24200589069E+03  0.24236910011E+03  0.41800000000E+01 0. -1.
        -11    1    3    3    0    0 -0.60639307513E+02 -0.53439510846E+02 -0.68775447748E+02  0.10612713672E+03  0.00000000000E+00 0.  1.
         11    1    3    3    0    0  0.17872916093E+02 -0.39723508218E+02 -0.10924311404E+03  0.11760721151E+03  0.00000000000E+00 0. -1.
</event>
<event>
 8    1  0.5900800E-006  0.1090705E+03  0.7561462E-02  0.1262301E+00
          1   -1    0    0  501    0  0.00000000000E+00  0.00000000000E+00  0.49942306998E+03  0.49942306998E+03  0.00000000000E+00 0. -1.
         -1   -1    0    0    0  501 -0.00000000000E+00 -0.00000000000E+00 -0.32795186879E+02  0.32795186879E+02  0.00000000000E+00 0.  1.
         23    2    1    2    0    0 -0.63197847316E+01 -0.67057691803E+02  0.23173792400E+03  0.25770474376E+03  0.90402410514E+02 0.  0.
         23    2    1    2    0    0  0.63197847316E+01  0.67057691803E+02  0.23488995911E+03  0.27451351311E+03  0.12509077616E+03 0.  0.
          5    1    4    4  502    0 -0.48728172118E+02  0.14299655411E+02  0.38695614177E+02  0.63982324586E+02  0.41800000000E+01 0.  1.
         -5    1    4    4    0  502  0.55047956850E+02  0.52758036392E+02  0.19619434493E+03  0.21053118852E+03  0.41800000000E+01 0.  1.
        -11    1    3    3    0    0  0.27082131321E+02 -0.22965151287E+02  0.24322258016E+02  0.43039658985E+02  0.00000000000E+00 0.  1.
         11    1    3    3    0    0 -0.33401916053E+02 -0.44092540516E+02  0.20741566598E+03  0.21466508477E+03  0.00000000000E+00 0. -1.
</event>
<event>
 8    1  0.5900800E-006  0.1012056E+03  0.7561462E-02  0.1277781E+00
         -1   -1    0    0    0  501 -0.00000000000E+00  0.00000000000E+00  0.42916909798E+02  0.42916909798E+02  0.00000000000E+00 0.  1.
          1   -1    0    0  501    0  0.00000000000E+00 -0.00000000000E+00 -0.42053684347E+03  0.42053684347E+03  0.00000000000E+00 0. -1.
         23    2    1    2    0    0  0.62589105037E+02  0.47815229833E+02 -0.16506034057E+03  0.20454594374E+03  0.91599316578E+02 0.  0.
         23    2    1    2    0    0 -0.62589105037E+02 -0.47815229833E+02 -0.21255959310E+03  0.25890780953E+03  0.12509188999E+03 0.  0.
          5    1    4    4  502    0 -0.56363669401E+02 -0.57935130169E+02 -0.22625814853E+03  0.24029890702E+03  0.41800000000E+01 0. -1.
         -5    1    4    4    0  502 -0.62254356367E+01  0.10119900337E+02  0.13698555432E+02  0.18608902510E+02  0.41800000000E+01 0. -1.
        -11    1    3    3    0    0  0.80072774390E+02  0.36108983008E+02 -0.86736861402E+02  0.12344549801E+03  0.00000000000E+00 0.  1.
         11    1    3    3    0    0 -0.17483669353E+02  0.11706246824E+02 -0.78323479169E+02  0.81100445732E+02  0.00000000000E+00 0. -1.
</event>
<event>
 8    1  0.5900800E-006  0.1574478E+03  0.7561462E-02  0.1191609E+00
         -1   -1    0    0    0  501 -0.00000000000E+00  0.00000000000E+00  0.16251120241E+03  0.16251120241E+03  0.00000000000E+00 0.  1.
          1   -1    0    0  501    0  0.00000000000E+00 -0.00000000000E+00 -0.20126573860E+03  0.20126573860E+03  0.00000000000E+00 0. -1.
         23    2    1    2    0    0  0.13519133403E+03  0.26178213287E+01  0.38572463389E+02  0.16400204871E+03  0.84411416671E+02 0.  0.
         23    2    1    2    0    0 -0.13519133403E+03 -0.26178213287E+01 -0.77326999579E+02  0.19977489230E+03  0.12508794084E+03 0.  0.
          5    1    4    4  502    0 -0.63956675272E+02 -0.58688384987E+02 -0.64274245893E+02  0.10808993445E+03  0.41800000000E+01 0. -1.
         -5    1    4    4    0  502 -0.71234658753E+02  0.56070563659E+02 -0.13052753686E+02  0.91684957847E+02  0.41800000000E+01 0. -1.
        -11    1    3    3    0    0  0.72389163072E+02  0.13114356552E+02  0.61945997506E+02  0.96174237117E+02  0.00000000000E+00 0.  1.
         11    1    3    3    0    0  0.62802170953E+02 -0.10496535223E+02 -0.23373534117E+02  0.67827811591E+02  0.00000000000E+00 0. -1.
</event>
<event>
 8    1  0.5900800E-006  0.1118309E+03  0.7561462E-02  0.1257216E+00
         -1   -1    0    0    0  501 -0.00000000000E+00  0.00000000000E+00  0.10039735764E+02  0.10039735764E+02  0.00000000000E+00 0.  1.
          1   -1    0    0  501    0  0.00000000000E+00 -0.00000000000E+00 -0.19239680660E+04  0.19239680660E+04  0.00000000000E+00 0. -1.
         23    2    1    2    0    0 -0.71938978008E+02  0.17534123359E+02 -0.53662517263E+03  0.54905503016E+03  0.89510827309E+02 0.  0.
         23    2    1    2    0    0  0.71938978008E+02 -0.17534123359E+02 -0.13773031576E+04  0.13849527716E+04  0.12509008586E+03 0.  0.
          5    1    4    4  502    0 -0.18684675227E+02  0.42691609975E+01 -0.41582819389E+02  0.45977669496E+02  0.41800000000E+01 0.  1.
         -5    1    4    4    0  502  0.90623653235E+02 -0.21803284357E+02 -0.13357203382E+04  0.13389751021E+04  0.41800000000E+01 0.  1.
        -11    1    3    3    0    0 -0.70073152247E+02  0.44957365420E+02 -0.46384402316E+03  0.47125650042E+03  0.00000000000E+00 0.  1.
         11    1    3    3    0    0 -0.18658257606E+01 -0.27423242060E+02 -0.72781149470E+02  0.77798529736E+02  0.00000000000E+00 0. -1.
</event>
<event>
 8    1  0.5900800E-006  0.9301817E+02  0.7561462E-02  0.1295703E+00
          2   -1    0    0  501    0  0.00000000000E+00  0.00000000000E+00  0.46573552827E+03  0.46573552827E+03  0.00000000000E+00 0. -1.
         -2   -1    0    0    0  501 -0.00000000000E+00 -0.00000000000E+00 -0.43646487343E+02  0.43646487343E+02  0.00000000000E+00 0.  1.
         23    2    1    2    0    0 -0.58473755482E+02  0.64678488120E+01  0.60074752109E+02  0.12419678980E+03  0.91404888311E+02 0.  0.
         23    2    1    2    0    0  0.58473755482E+02 -0.64678488120E+01  0.36201428881E+03  0.38518522581E+03  0.11769579316E+03 0.  0.
          5    1    4    4  502    0  0.72877935060E+02  0.95556286626E+01  0.35438193020E+03  0.36194823983E+03  0.41800000000E+01 0. -1.
         -5    1    4    4    0  502 -0.14404179578E+02 -0.16023477475E+02  0.76323586110E+01  0.23236985985E+02  0.41800000000E+01 0.  1.
        -11    1    3    3    0    0 -0.71748075143E+02 -0.63330978119E+01  0.12409034324E+02  0.73088156000E+02  0.00000000000E+00 0.  1.
         11    1    3    3    0    0  0.13274319661E+02  0.12800946624E+02  0.47665717785E+02  0.51108633800E+02  0.00000000000E+00 0. -1.
</event>
<event>
 8    1  0.5900800E-006  0.9800765E+02  0.7561462E-02  0.1284542E+00
          2   -1    0    0  501    0  0.00000000000E+00  0.00000000000E+00  0.18722148347E+03  0.18722148347E+03  0.00000000000E+00 0. -1.
         -2   -1    0    0    0  501 -0.00000000000E+00 -0.00000000000E+00 -0.83115390559E+02  0.83115390559E+02  0.00000000000E+00 0.  1.
         23    2    1    2    0    0 -0.60424324857E+02 -0.18277850013E+01  0.25823229655E+02  0.11086792295E+03  0.89277193712E+02 0.  0.
         23    2    1    2    0    0  0.60424324857E+02  0.18277850013E+01  0.78282863255E+02  0.15946895108E+03  0.12509076643E+03 0.  0.
          5    1    4    4  502    0  0.19569288434E+02 -0.31554370390E+02 -0.23927503817E+02  0.44369281935E+02  0.41800000000E+01 0. -1.
         -5    1    4    4    0  502  0.40855036424E+02  0.33382155391E+02  0.10221036707E+03  0.11509966914E+03  0.41800000000E+01 0. -1.
        -11    1    3    3    0    0 -0.52107963748E+02  0.38348772893E+02  0.50890966476E+01  0.64898129196E+02  0.00000000000E+00 0. -1.
         11    1    3    3    0    0 -0.83163611090E+01 -0.40176557894E+02  0.20734133007E+02  0.45969793755E+02  0.00000000000E+00 0.  1.
</event>
<event>
 8    1  0.5900800E-006  0.9461538E+02  0.7561462E-02  0.1292045E+00
         -1   -1    0    0    0  501 -0.00000000000E+00  0.00000000000E+00  0.16250488609E+02  0.16250488609E+02  0.00000000000E+00 0.  1.
          1   -1    0    0  501    0  0.00000000000E+00 -0.00000000000E+00 -0.90779249648E+03  0.90779249648E+03  0.00000000000E+00 0. -1.
         23    2    1    2    0    0 -0.33699411654E+02 -0.28409993325E+01 -0.20095871253E+03  0.22287455706E+03  0.90249334742E+02 0.  0.
         23    2    1    2    0    0  0.33699411654E+02  0.28409993325E+01 -0.69058329534E+03  0.70116842803E+03  0.11656824196E+03 0.  0.
          5    1    4    4  502    0  0.45927936585E+02  0.39292550056E+02 -0.19782752635E+03  0.20689727507E+03  0.41800000000E+01 0. -1.
         -5    1    4    4    0  502 -0.12228524931E+02 -0.36451550724E+02 -0.49275576900E+03  0.49427115296E+03  0.41800000000E+01 0.  1.
        -11    1    3    3    0    0 -0.23013437914E+02 -0.42806182837E+02 -0.67673199332E+02  0.83316562108E+02  0.00000000000E+00 0.  1.
         11    1    3    3    0    0 -0.10685973740E+02  0.39965183505E+02 -0.13328551320E+03  0.13955799496E+03  0.00000000000E+00 0. -1.
</event>
<event>
 8    1  0.5900800E-006  0.1457784E+03  0.7561462E-02  0.1205759E+00
         -1   -1    0    0    0  501 -0.00000000000E+00  0.00000000000E+00  0.13585276058E+03  0.13585276058E+03  0.00000000000E+00 0.  1.
          1   -1    0    0  501    0  0.00000000000E+00 -0.00000000000E+00 -0.18114111619E+03  0.18114111619E+03  0.00000000000E+00 0. -1.
         23    2    1    2    0    0  0.51772059524E+02  0.79294732621E+02  0.34083612447E+02  0.14116737124E+03  0.98987541125E+02 0.  0.
         23    2    1    2    0    0 -0.51772059524E+02 -0.79294732621E+02 -0.79371968058E+02  0.17582650553E+03  0.12508816877E+03 0.  0.
          5    1    4    4  502    0  0.34547025633E+02  0.52079727351E+01 -0.10531548732E+02  0.36728815374E+02  0.41800000000E+01 0. -1.
         -5    1    4    4    0  502 -0.86319085156E+02 -0.84502705356E+02 -0.68840419326E+02  0.13909769016E+03  0.41800000000E+01 0. -1.
        -11    1    3    3    0    0 -0.27859739568E+02  0.33758396512E+02  0.20862089178E+02  0.48487330187E+02  0.00000000000E+00 0.  1.
         11    1    3    3    0    0  0.79631799091E+02  0.45536336109E+02  0.13221523269E+02  0.92680041057E+02  0.00000000000E+00 0. -1.
</event>
<event>
 8    1  0.5900800E-006  0.1054555E+03  0.7561462E-02  0.1269225E+00
          1   -1    0    0  501    0  0.00000000000E+00  0.00000000000E+00  0.76004906177E+03  0.76004906177E+03  0.00000000000E+00 0. -1.
         -1   -1    0    0    0  501 -0.00000000000E+00 -0.00000000000E+00 -0.19260203303E+02  0.19260203303E+02  0.00000000000E+00 0.  1.
         23    2    1    2    0    0  0.98747862353E+01 -0.25933971708E+02  0.16797595445E+03  0.19233950475E+03  0.89490119686E+02 0.  0.
         23    2    1    2    0    0 -0.98747862353E+01  0.25933971708E+02  0.57281290402E+03  0.58696976033E+03  0.12509514074E+03 0.  0.
          5    1    4    4  502    0  0.45423414199E+02  0.43189011082E+02  0.39359029632E+03  0.39857166356E+03  0.41800000000E+01 0. -1.
         -5    1    4    4    0  502 -0.55298200434E+02 -0.17255039373E+02  0.17922260769E+03  0.18839809676E+03  0.41800000000E+01 0. -1.
        -11    1    3    3    0    0 -0.14146174027E+02  0.27780134818E+02  0.85655945263E+02  0.91152570392E+02  0.00000000000E+00 0. -1.
         11    1    3    3    0    0  0.24020960262E+02 -0.53714106526E+02  0.82320009189E+02  0.10118693436E+03  0.00000000000E+00 0.  1.
</event>
<event>
 7    1  0.5900800E-006  0.9888783E+02  0.7561462E-02  0.1282652E+00
         -2   -1    0    0    0  501 -0.00000000000E+00  0.00000000000E+00  0.18448975060E+02  0.18448975060E+02  0.00000000000E+00 0.  1.
          2   -1    0    0  501    0  0.00000000000E+00 -0.00000000000E+00 -0.89586478075E+03  0.89586478075E+03  0.00000000000E+00 0. -1.
         23    2    1    2    0    0  0.26659433074E+02  0.26045245162E+01 -0.22025518329E+03  0.24021845612E+03  0.92060045485E+02 0.  0.
          5    1    1    2  502    0  0.39193424270E+02  0.89179102254E+01 -0.51881634160E+03  0.52038785761E+03  0.41800000000E+01 0. -1.
         -5    1    1    2    0  502 -0.65852857344E+02 -0.11522434742E+02 -0.13834428079E+03  0.15370744208E+03  0.41800000000E+01 0.  1.
        -11    1    3    3    0    0  0.56532326052E+02  0.14277364338E+02 -0.17709192595E+03  0.18644381797E+03  0.00000000000E+00 0.  1.
         11    1    3    3    0    0 -0.29872892978E+02 -0.11672839822E+02 -0.43163257343E+02  0.53774638156E+02  0.00000000000E+00 0. -1.
</event>
<event>
 8    1  0.5900800E-006  0.1109879E+03  0.7561462E-02  0.1258751E+00
          1   -1    0    0  501    0  0.00000000000E+00  0.00000000000E+00  0.89849982319E+03  0.89849982319E+03  0.00000000000E+00 0. -1.
         -1   -1    0    0    0  501 -0.00000000000E+00 -0.00000000000E+00 -0.20059759190E+02  0.20059759190E+02  0.00000000000E+00 0.  1.
         23    2    1    2    0    0  0.73034410710E+02  0.28447614763E+02  0.37771955632E+03  0.39653265804E+03  0.91775779673E+02 0.  0.
         23    2    1    2    0    0 -0.73034410710E+02 -0.28447614763E+02  0.50072050768E+03  0.52202692434E+03  0.12509113073E+03 0.  0.
          5    1    4    4  502    0 -0.83987907707E+02 -0.50899497633E+02  0.47799614310E+03  0.48799847614E+03  0.41800000000E+01 0.  1.
         -5    1    4    4    0  502  0.10953496997E+02  0.22451882870E+02  0.22724364584E+02  0.34028448196E+02  0.41800000000E+01 0.  1.
        -11    1    3    3    0    0 -0.24193292857E+01  0.22536278538E+02  0.18018002640E+02  0.28954886007E+02  0.00000000000E+00 0.  1.
         11    1    3    3    0    0  0.75453739996E+02  0.59113362248E+01  0.35970155368E+03  0.36757777204E+03  0.00000000000E+00 0. -1.
</event>
<event>
 8    1  0.5900800E-006  0.1254519E+03  0.7561462E-02  0.1234365E+00
         -1   -1    0    0    0  501 -0.00000000000E+00  0.00000000000E+00  0.32129445478E+03  0.32129445478E+03  0.00000000000E+00 0. -1.
          1   -1    0    0  501    0  0.00000000000E+00 -0.00000000000E+00 -0.74462800972E+02  0.74462800972E+02  0.00000000000E+00 0.  1.
         23    2    1    2    0    0  0.77465445511E+02 -0.70581073113E+00  0.21027715519E+03  0.24414700758E+03  0.96901423623E+02 0.  0.
         23    2    1    2    0    0 -0.77465445511E+02  0.70581073113E+00  0.36554498620E+02  0.15161024817E+03  0.12509213630E+03 0.  0.
          5    1    4    4  502    0 -0.90257207855E+02 -0.30304134304E+02 -0.80541262274E+01  0.95640187552E+02  0.41800000000E+01 0.  1.
         -5    1    4    4    0  502  0.12791762344E+02  0.31009945035E+02  0.44608624847E+02  0.55970060619E+02  0.41800000000E+01 0.  1.
        -11    1    3    3    0    0  0.53436085882E+02 -0.46011420394E+02  0.98214501880E+02  0.12090721426E+03  0.00000000000E+00 0.  1.
         11    1    3    3    0    0  0.24029359629E+02  0.45305609663E+02  0.11206265331E+03  0.12323979332E+03  0.00000000000E+00 0. -1.
</event>
<event>
 7    1  0.5900800E-006  0.1304719E+03  0.7561462E-02  0.1226757E+00
         -2   -1    0    0    0  501 -0.00000000000E+00  0.00000000000E+00  0.52036975566E+02  0.52036975566E+02  0.00000000000E+00 0.  1.
          2   -1    0    0  501    0  0.00000000000E+00 -0.00000000000E+00 -0.69630455185E+03  0.69630455185E+03  0.00000000000E+00 0. -1.
         23    2    1    2    0    0  0.29261500153E+01 -0.11437073059E+03 -0.10308219902E+03  0.17850709274E+03  0.90275223806E+02 0.  0.
          5    1    1    2  502    0 -0.86872507505E+01  0.87530032858E+02 -0.53391753320E+03  0.54113064932E+03  0.41800000000E+01 0. -1.
         -5    1    1    2    0  502  0.57611007352E+01  0.26840697733E+02 -0.72678440678E+01  0.28703785358E+02  0.41800000000E+01 0.  1.
        -11    1    3    3    0    0 -0.23538240058E+02  0.39538636663E+01 -0.11131583504E+02  0.26336171594E+02  0.00000000000E+00 0. -1.
         11    1    3    3    0    0  0.26464390074E+02 -0.11832459426E+03 -0.91950615511E+02  0.15217092114E+03  0.00000000000E+00 0.  1.
</event>
<event>
 8    1  0.5900800E-006  0.1138361E+03  0.7561462E-02  0.1253627E+00
          2   -1    0    0  501    0  0.00000000000E+00  0.00000000000E+00  0.56994008845E+03  0.56994008845E+03  0.00000000000E+00 0. -1.
         -2   -1    0    0    0  501 -0.00000000000E+00 -0.00000000000E+00 -0.44254298443E+02  0.44254298443E+02  0.00000000000E+00 0.  1.
         23    2    1    2    0    0  0.49550267716E+01  0.58826981821E+02  0.47444758993E+02  0.11635200652E+03  0.88326769361E+02 0.  0.
         23    2    1    2    0    0 -0.49550267716E+01 -0.58826981821E+02  0.47824103102E+03  0.49784238038E+03  0.12508951142E+03 0.  0.
          5    1    4    4  502    0 -0.60821985696E+02 -0.41023455943E+02  0.19099581321E+03  0.20464386369E+03  0.41800000000E+01 0.  1.
         -5    1    4    4    0  502  0.55866958925E+02 -0.17803525878E+02  0.28724521781E+03  0.29319851669E+03  0.41800000000E+01 0.  1.
        -11    1    3    3    0    0  0.39686034249E+01 -0.18070755041E+02  0.33391405569E+02  0.38174441277E+02  0.00000000000E+00 0. -1.
         11    1    3    3    0    0  0.98642334671E+00  0.76897736862E+02  0.14053353424E+02  0.78177565247E+02  0.00000000000E+00 0.  1.
</event>
<event>
 8    1  0.5900800E-006  0.1037724E+03  0.7561462E-02  0.1272557E+00
         -1   -1    0    0    0  501 -0.00000000000E+00  0.00000000000E+00  0.33195338605E+02  0.33195338605E+02  0.00000000000E+00 0.  1.
          1   -1    0    0  501    0  0.00000000000E+00 -0.00000000000E+00 -0.49160423360E+03  0.49160423360E+03  0.00000000000E+00 0. -1.
         23    2    1    2    0    0 -0.55527526062E+02  0.27982263414E+02 -0.15306132763E+03  0.18901581629E+03  0.91830798634E+02 0.  0.
         23    2    1    2    0    0  0.55527526062E+02 -0.27982263414E+02 -0.30534756737E+03  0.33578375591E+03  0.12508909074E+03 0.  0.
          5    1    4    4  502    0  0.28761136716E+02  0.47045240201E+02 -0.16899125880E+03  0.17780881744E+03  0.41800000000E+01 0.  1.
         -5    1    4    4    0  502  0.26766389346E+02 -0.75027503615E+02 -0.13635630857E+03  0.15797493847E+03  0.41800000000E+01 0.  1.
        -11    1    3    3    0    0 -0.34233792926E+02  0.36042559959E+02 -0.15807104728E+03  0.16570297129E+03  0.00000000000E+00 0. -1.
         11    1    3    3    0    0 -0.21293733136E+02 -0.80602965455E+01  0.50097196499E+01  0.23312845005E+02  0.00000000000E+00 0.  1.
</event>
<event>
 8    1  0.5900800E-006  0.1029296E+03  0.7561462E-02  0.1274253E+00
          1   -1    0    0  501    0  0.00000000000E+00  0.00000000000E+00  0.90694545977E+02  0.90694545977E+02  0.00000000000E+00 0. -1.
         -1   -1    0    0    0  501 -0.00000000000E+00 -0.00000000000E+00 -0.18081352584E+03  0.18081352584E+03  0.00000000000E+00 0.  1.
         23    2    1    2    0    0  0.70710904945E+02  0.12741392510E+01 -0.63329060732E+02  0.12533234710E+03  0.81828917796E+02 0.  0.
         23    2    1    2    0    0 -0.70710904945E+02 -0.12741392510E+01 -0.26789919136E+02  0.14617572472E+03  0.12509191509E+03 0.  0.
          5    1    4    4  502    0 -0.15193215877E+02 -0.34433252386E+02  0.38629787016E+02  0.54094505483E+02  0.41800000000E+01 0.  1.
         -5    1    4    4    0  502 -0.55517689068E+02  0.33159113135E+02 -0.65419706151E+02  0.92081219238E+02  0.41800000000E+01 0.  1.
        -11    1    3    3    0    0 -0.44216004763E+01  0.24229158888E+02 -0.33041047078E+00  0.24631521721E+02  0.00000000000E+00 0. -1.
         11    1    3    3    0    0  0.75132505421E+02 -0.22955019637E+02 -0.62998650261E+02  0.10070082538E+03  0.00000000000E+00 0.  1.
</event>
<event>
 8    1  0.5900800E-006  0.1239092E+03  0.7561462E-02  0.1236784E+00
          1   -1    0    0  501    0  0.00000000000E+00  0.00000000000E+00  0.14290247790E+04  0.14290247790E+04  0.00000000000E+00 0. -1.
         -1   -1    0    0    0  501 -0.00000000000E+00 -0.00000000000E+00 -0.14021318582E+02  0.14021318582E+02  0.00000000000E+00 0.  1.
         23    2    1    2    0    0 -0.64368014412E+02  0.47360136822E+02  0.45874300382E+03  0.47533213893E+03  0.95442521475E+02 0.  0.
         23    2    1    2    0    0  0.64368014412E+02 -0.47360136822E+02  0.95626045657E+03  0.96771395863E+03  0.12510004429E+03 0.  0.
          5    1    4    4  502    0 -0.25320743079E+02 -0.52545468105E+02  0.38675514596E+03  0.39115109814E+03  0.41800000000E+01 0.  1.
         -5    1    4    4    0  502  0.89688757491E+02  0.51853312829E+01  0.56950531061E+03  0.57656286049E+03  0.41800000000E+01 0.  1.
        -11    1    3    3    0    0  0.89804062380E+01  0.18535006227E+02  0.17265154546E+02  0.26875262111E+02  0.00000000000E+00 0.  1.
         11    1    3    3    0    0 -0.73348420650E+02  0.28825130595E+02  0.44147784927E+03  0.44845687682E+03  0.00000000000E+00 0. -1.
</event>
<event>
 7    1  0.5900800E-006  0.2684682E+03  0.7561462E-02  0.1102160E+00
          1   -1    0    0  501    0  0.00000000000E+00  0.00000000000E+00  0.97463881797E+03  0.97463881797E+03  0.00000000000E+00 0. -1.
         -1   -1    0    0    0  501 -0.00000000000E+00 -0.00000000000E+00 -0.42850166200E+03  0.42850166200E+03  0.00000000000E+00 0.  1.
         23    2    1    2    0    0  0.30864339598E+02  0.13147762685E+03 -0.29002808113E+03  0.33231075050E+03  0.89861967661E+02 0.  0.
          5    1    1    2  502    0  0.13582675912E+03 -0.15664008031E+03  0.87378336795E+03  0.89805337801E+03  0.41800000000E+01 0. -1.
         -5    1    1    2    0  502 -0.16669109872E+03  0.25162453463E+02 -0.37618130847E+02  0.17277635146E+03  0.41800000000E+01 0.  1.
        -11    1    3    3    0    0 -0.73047228466E+01  0.12118103955E+03 -0.19962420860E+03  0.23364080975E+03  0.00000000000E+00 0.  1.
         11    1    3    3    0    0  0.38169062444E+02  0.10296587292E+02 -0.90403872532E+02  0.98669940745E+02  0.00000000000E+00 0. -1.
</event>
<event>
 8    1  0.5900800E-006  0.7943350E+02  0.7561462E-02  0.1330667E+00
          1   -1    0    0  501    0  0.00000000000E+00  0.00000000000E+00  0.69061909850E+02  0.69061909850E+02  0.00000000000E+00 0. -1.
         -1   -1    0    0    0  501 -0.00000000000E+00 -0.00000000000E+00 -0.25497408162E+03  0.25497408162E+03  0.00000000000E+00 0.  1.
         23    2    1    2    0    0  0.20724433435E+02  0.58741297556E+02 -0.13818293661E+03  0.17636781778E+03  0.90172285089E+02 0.  0.
         23    2    1    2    0    0 -0.20724433435E+02 -0.58741297556E+02 -0.47729235162E+02  0.14766817369E+03  0.12509103666E+03 0.  0.
          5    1    4    4  502    0  0.18231960587E+02 -0.52033091557E+02  0.28121123525E+02  0.62033192664E+02  0.41800000000E+01 0. -1.
         -5    1    4    4    0  502 -0.38956394022E+02 -0.67082059998E+01 -0.75850358687E+02  0.85634981029E+02  0.41800000000E+01 0. -1.
        -11    1    3    3    0    0  0.10130213722E+02  0.11137452149E+02  0.11497124715E+02  0.18943282375E+02  0.00000000000E+00 0. -1.
         11    1    3    3    0    0  0.10594219714E+02  0.47603845408E+02 -0.14968006133E+03  0.15742453541E+03  0.00000000000E+00 0.  1.
</event>
<event>
 8    1  0.5900800E-006  0.1388908E+03  0.7561462E-02  0.1214829E+00
         -4   -1    0    0    0  501 -0.00000000000E+00  0.00000000000E+00  0.18392057013E+03  0.18392057013E+03  0.00000000000E+00 0.  1.
          4   -1    0    0  501    0  0.00000000000E+00 -0.00000000000E+00 -0.15890083749E+03  0.15890083749E+03  0.00000000000E+00 0. -1.
         23    2    1    2    0    0 -0.80847411518E+02  0.10300087305E+03  0.52625571597E+01  0.16065784007E+03  0.92939567836E+02 0.  0.
         23    2    1    2    0    0  0.80847411518E+02 -0.10300087305E+03  0.19757175486E+02  0.18216356755E+03  0.12509090919E+03 0.  0.
          5    1    4    4  502    0  0.24879471578E+02 -0.45761696193E+02 -0.52621576952E+02  0.74159447850E+02  0.41800000000E+01 0. -1.
         -5    1    4    4    0  502  0.55967939940E+02 -0.57239176857E+02  0.72378752438E+02  0.10800411970E+03  0.41800000000E+01 0. -1.
        -11    1    3    3    0    0 -0.22855045825E+02  0.79618960502E+02  0.36782768303E+02  0.90633901136E+02  0.00000000000E+00 0. -1.
         11    1    3    3    0    0 -0.57992365694E+02  0.23381912548E+02 -0.31520211144E+02  0.70023938933E+02  0.00000000000E+00 0.  1.
</event>
<event>
 7    1  0.5900800E-006  0.2647966E+03  0.7561462E-02  0.1104295E+00
          1   -1    0    0  501    0  0.00000000000E+00  0.00000000000E+00  0.37730035580E+03  0.37730035580E+03  0.00000000000E+00 0. -1.
         -1   -1    0    0    0  501 -0.00000000000E+00 -0.00000000000E+00 -0.20706061545E+03  0.20706061545E+03  0.00000000000E+00 0.  1.
         23    2    1    2    0    0  0.80072420789E+02 -0.32942379861E+02  0.34008076012E+02  0.13003684846E+03  0.90863852890E+02 0.  0.
          5    1    1    2  502    0 -0.14211611735E+03 -0.15807334999E+03  0.13793903077E+03  0.25343406124E+03  0.41800000000E+01 0. -1.
         -5    1    1    2    0  502  0.62043696558E+02  0.19101572985E+03 -0.17073664248E+01  0.20089006156E+03  0.41800000000E+01 0.  1.
        -11    1    3    3    0    0  0.57247475876E+02 -0.58490954666E+02  0.45821252267E+02  0.93797934045E+02  0.00000000000E+00 0.  1.
         11    1    3    3    0    0  0.22824944913E+02  0.25548574805E+02 -0.11813176255E+02  0.36238914417E+02  0.00000000000E+00 0. -1.
</event>
<event>
 8    1  0.5900800E-006  0.7917026E+02  0.7561462E-02  0.1331423E+00
          1   -1    0    0  501    0  0.00000000000E+00  0.00000000000E+00  0.31462465746E+03  0.31462465746E+03  0.00000000000E+00 0. -1.
         -1   -1    0    0    0  501 -0.00000000000E+00 -0.00000000000E+00 -0.42746417050E+02  0.42746417050E+02  0.00000000000E+00 0.  1.
         23    2    1    2    0    0  0.55047454689E+01 -0.93762556916E+01  0.55824703247E+02  0.10748288510E+03  0.91202832757E+02 0.  0.
         23    2    1    2    0    0 -0.55047454689E+01  0.93762556916E+01  0.21605353717E+03  0.24988818942E+03  0.12508700929E+03 0.  0.
          5    1    4    4  502    0 -0.55229008334E+02 -0.20444147622E+02  0.63856362349E+02  0.86967315389E+02  0.41800000000E+01 0. -1.
         -5    1    4    4    0  502  0.49724262865E+02  0.29820403314E+02  0.15219717482E+03  0.16292087403E+03  0.41800000000E+01 0. -1.
        -11    1    3    3    0    0 -0.17075046538E+02 -0.10626385524E+01 -0.20937302657E+02  0.27038066823E+02  0.00000000000E+00 0.  1.
         11    1    3    3    0    0  0.22579792007E+02 -0.83136171392E+01  0.76762005904E+02  0.80444818275E+02  0.00000000000E+00 0. -1.
</event>
<event>
 7    1  0.5900800E-006  0.2613336E+03  0.7561462E-02  0.1106345E+00
         -2   -1    0    0    0  501 -0.00000000000E+00  0.00000000000E+00  0.10288613234E+03  0.10288613234E+03  0.00000000000E+00 0.  1.
          2   -1    0    0  501    0  0.00000000000E+00 -0.00000000000E+00 -0.13926188582E+04  0.13926188582E+04  0.00000000000E+00 0. -1.
         23    2    1    2    0    0  0.31743417362E+02  0.18067333662E+03 -0.46645443876E+02  0.20116470667E+03  0.68124464503E+02 0.  0.
          5    1    1    2  502    0 -0.14616717831E+03 -0.31694671873E+02 -0.78645093227E+03  0.80055726685E+03  0.41800000000E+01 0. -1.
         -5    1    1    2    0  502  0.11442376094E+03 -0.14897866475E+03 -0.45663634968E+03  0.49378301699E+03  0.41800000000E+01 0.  1.
        -11    1    3    3    0    0  0.21093523845E+02  0.53167125717E+02 -0.45696482326E+02  0.73210986212E+02  0.00000000000E+00 0. -1.
         11    1    3    3    0    0  0.10649893517E+02  0.12750621091E+03 -0.94896154980E+00  0.12795372046E+03  0.00000000000E+00 0.  1.
</event>
<event>
 8    1  0.5900800E-006  0.1313933E+03  0.7561462E-02  0.1225403E+00
         -1   -1    0    0    0  501 -0.00000000000E+00  0.00000000000E+00  0.11146701029E+03  0.11146701029E+03  0.00000000000E+00 0.  1.
          1   -1    0    0  501    0  0.00000000000E+00 -0.00000000000E+00 -0.21780775931E+03  0.21780775931E+03  0.00000000000E+00 0. -1.
         23    2    1    2    0    0  0.87509308247E+02 -0.56621206726E+02 -0.41407715328E+01  0.13703513314E+03  0.88868676401E+02 0.  0.
         23    2    1    2    0    0 -0.87509308247E+02  0.56621206726E+02 -0.10219997748E+03  0.19223963646E+03  0.12508957729E+03 0.  0.
          5    1    4    4  502    0 -0.27101674951E+02  0.73072256517E+02 -0.71886958672E+01  0.78378601710E+02  0.41800000000E+01 0.  1.
         -5    1    4    4    0  502 -0.60407633296E+02 -0.16451049791E+02 -0.95011281615E+02  0.11386103475E+03  0.41800000000E+01 0.  1.
        -11    1    3    3    0    0  0.82251916339E+02 -0.19542253228E+02  0.26553720955E+02  0.88613641722E+02  0.00000000000E+00 0.  1.
         11    1    3    3    0    0  0.52573919079E+01 -0.37078953498E+02 -0.30694492488E+02  0.48421491419E+02  0.00000000000E+00 0. -1.
</event>
<event>
 8    1  0.5900800E-006  0.1220767E+03  0.7561462E-02  0.1239710E+00
          1   -1    0    0  501    0  0.00000000000E+00  0.00000000000E+00  0.22364313991E+03  0.22364313991E+03  0.00000000000E+00 0. -1.
         -1   -1    0    0    0  501 -0.00000000000E+00 -0.00000000000E+00 -0.71067750917E+02  0.71067750917E+02  0.00000000000E+00 0.  1.
         23    2    1    2    0    0  0.36293143049E+02  0.51424286029E+02  0.56113478306E+02  0.12467191524E+03  0.91829813109E+02 0.  0.
         23    2    1    2    0    0 -0.36293143049E+02 -0.51424286029E+02  0.96461910685E+02  0.17003897559E+03  0.12508678419E+03 0.  0.
          5    1    4    4  502    0  0.44121034354E+02  0.23280672639E+00  0.28598886179E+02  0.52745507506E+02  0.41800000000E+01 0.  1.
         -5    1    4    4    0  502 -0.80414177403E+02 -0.51657092755E+02  0.67863024506E+02  0.11729346808E+03  0.41800000000E+01 0.  1.
        -11    1    3    3    0    0 -0.16806274853E+02  0.48112798423E+02  0.55335400281E+01  0.51263167204E+02  0.00000000000E+00 0.  1.
         11    1    3    3    0    0  0.53099417902E+02  0.33114876056E+01  0.50579938278E+02  0.73408748034E+02  0.00000000000E+00 0. -1.
</event>
<event>
 8    1  0.5900800E-006  0.1144575E+03  0.7561462E-02  0.1252531E+00
         -2   -1    0    0    0  501 -0.00000000000E+00  0.00000000000E+00  0.22659154820E+02  0.22659154820E+02  0.00000000000E+00 0.  1.
          2   -1    0    0  501    0  0.00000000000E+00 -0.00000000000E+00 -0.66264303108E+03  0.66264303108E+03  0.00000000000E+00 0. -1.
         23    2    1    2    0    0  0.23177418532E+02 -0.32799088726E+02 -0.18217247442E+03  0.20901259744E+03  0.94268141499E+02 0.  0.
         23    2    1    2    0    0 -0.23177418532E+02  0.32799088726E+02 -0.45781140185E+03  0.47628958846E+03  0.12509004544E+03 0.  0.
          5    1    4    4  502    0 -0.35131761493E+02 -0.41580916511E+02 -0.22634907503E+03  0.23284026596E+03  0.41800000000E+01 0. -1.
         -5    1    4    4    0  502  0.11954342961E+02  0.74380005236E+02 -0.23146232682E+03  0.24344932251E+03  0.41800000000E+01 0. -1.
        -11    1    3    3    0    0 -0.32718694775E+02 -0.27466266570E+02 -0.52352674066E+02  0.67570047128E+02  0.00000000000E+00 0. -1.
         11    1    3    3    0    0  0.55896113307E+02 -0.53328221559E+01 -0.12981980035E+03  0.14144255031E+03  0.00000000000E+00 0.  1.
</event>
<event>
 8    1  0.5900800E-006  0.1115448E+03  0.7561462E-02  0.1257736E+00
         -1   -1    0    0    0  501 -0.00000000000E+00  0.00000000000E+00  0.50181453946E+02  0.50181453946E+02  0.00000000000E+00 0.  1.
          1   -1    0    0  501    0  0.00000000000E+00 -0.00000000000E+00 -0.73896994927E+03  0.73896994927E+03  0.00000000000E+00 0. -1.
         23    2    1    2    0    0 -0.26859942287E+00  0.46473289179E+02 -0.16545513187E+02  0.10379081315E+03  0.91317797473E+02 0.  0.
         23    2    1    2    0    0  0.26859942287E+00 -0.46473289179E+02 -0.67224298213E+03  0.68536059006E+03  0.12509465468E+03 0.  0.
          5    1    4    4  502    0 -0.61743899234E+02 -0.22078589902E+02 -0.37477969449E+03  0.38049581473E+03  0.41800000000E+01 0.  1.
         -5    1    4    4    0  502  0.62012498657E+02 -0.24394699277E+02 -0.29746328764E+03  0.30486477533E+03  0.41800000000E+01 0.  1.
        -11    1    3    3    0    0  0.38724248322E+02  0.21197927606E+02  0.16111827268E+02  0.46994792486E+02  0.00000000000E+00 0.  1.
         11    1    3    3    0    0 -0.38992847745E+02  0.25275361573E+02 -0.32657340455E+02  0.56796020666E+02  0.00000000000E+00 0. -1.
</event>
<event>
 8    1  0.5900800E-006  0.1127826E+03  0.7561462E-02  0.1255502E+00
          2   -1    0    0  501    0  0.00000000000E+00  0.00000000000E+00  0.52101401115E+02  0.52101401115E+02  0.00000000000E+00 0. -1.
         -2   -1    0    0    0  501 -0.00000000000E+00 -0.00000000000E+00 -0.27366419845E+03  0.27366419845E+03  0.00000000000E+00 0.  1.
         23    2    1    2    0    0 -0.46016268684E+02 -0.11373694236E+02 -0.12022441889E+03  0.15794668260E+03  0.90809612615E+02 0.  0.
         23    2    1    2    0    0  0.46016268684E+02  0.11373694236E+02 -0.10133837844E+03  0.16781891696E+03  0.12508742559E+03 0.  0.
          5    1    4    4  502    0  0.61489022086E+02  0.51908160935E+02 -0.33675964640E+02  0.87332124692E+02  0.41800000000E+01 0.  1.
         -5    1    4    4    0  502 -0.15472753402E+02 -0.40534466698E+02 -0.67662413805E+02  0.80486792272E+02  0.41800000000E+01 0.  1.
        -11    1    3    3    0    0 -0.68415168490E+02 -0.27566357917E+02 -0.96913961759E+02  0.12179021041E+03  0.00000000000E+00 0.  1.
         11    1    3    3    0    0  0.22398899806E+02  0.16192663680E+02 -0.23310457132E+02  0.36156472190E+02  0.00000000000E+00 0. -1.
</event>
<event>
 8    1  0.7088193E-006  0.1328970E+03  0.7561462E-02  0.1223219E+00
         -2   -1    0    0    0  501 -0.00000000000E+00  0.00000000000E+00  0.32591803671E+03  0.32591803671E+03  0.00000000000E+00 0.  1.
          2   -1    0    0  501    0  0.00000000000E+00 -0.00000000000E+00 -0.79358784114E+02  0.79358784114E+02  0.00000000000E+00 0. -1.
         23    2    1    2    0    0 -0.11168782816E+03 -0.34822394352E+02  0.13547493246E+03  0.20113500406E+03  0.91733649359E+02 0.  0.
         23    2    1    2    0    0  0.11168782816E+03  0.34822394352E+02  0.11108432014E+03  0.20414181677E+03  0.12508950822E+03 0.  0.
          5    1    4    4  502    0  0.37576304754E+02  0.52357532272E+02  0.11035830117E+03  0.12786601152E+03  0.41800000000E+01 0. -1.
         -5    1    4    4    0  502  0.74111523407E+02 -0.17535137920E+02  0.72601897264E+00  0.76275805254E+02  0.41800000000E+01 0. -1.
        -11    1    3    3    0    0 -0.35518847489E+02 -0.33402835132E+02  0.36679950745E+01  0.48895726906E+02  0.00000000000E+00 0. -1.
         11    1    3    3    0    0 -0.76168980671E+02 -0.14195592202E+01  0.13180693738E+03  0.15223927715E+03  0.00000000000E+00 0.  1.
</event>
<event>
 8    1  0.5900800E-006  0.1064011E+03  0.7561462E-02  0.1267383E+00
         -1   -1    0    0    0  501 -0.00000000000E+00  0.00000000000E+00  0.34274758911E+03  0.34274758911E+03  0.00000000000E+00 0.  1.
          1   -1    0    0  501    0  0.00000000000E+00 -0.00000000000E+00 -0.63974170107E+02  0.63974170107E+02  0.00000000000E+00 0. -1.
         23    2    1    2    0    0  0.37205392776E+01  0.63620623870E+02  0.24830301715E+03  0.27224641536E+03  0.91664039595E+02 0.  0.
         23    2    1    2    0    0 -0.37205392776E+01 -0.63620623870E+02  0.30470401858E+02  0.13447534386E+03  0.11442790972E+03 0.  0.
          5    1    4    4  502    0  0.13464243914E+02 -0.91187954375E+02  0.39910541055E+01  0.92357619069E+02  0.41800000000E+01 0. -1.
         -5    1    4    4    0  502 -0.17184783192E+02  0.27567330505E+02  0.26479347752E+02  0.42117724795E+02  0.41800000000E+01 0.  1.
        -11    1    3    3    0    0 -0.71744342454E+00  0.75289906748E+02  0.24860640908E+03  0.25975802475E+03  0.00000000000E+00 0.  1.
         11    1    3    3    0    0  0.44379827022E+01 -0.11669282878E+02 -0.30339193352E+00  0.12488390610E+02  0.00000000000E+00 0. -1.
</event>
<event>
 8    1  0.5900800E-006  0.1590545E+03  0.7561462E-02  0.1189768E+00
          2   -1    0    0  501    0  0.00000000000E+00  0.00000000000E+00  0.34678445582E+03  0.34678445582E+03  0.00000000000E+00 0. -1.
         -2   -1    0    0    0  501 -0.00000000000E+00 -0.00000000000E+00 -0.95720067668E+02  0.95720067668E+02  0.00000000000E+00 0.  1.
         23    2    1    2    0    0  0.11250729949E+03  0.49287311634E+02  0.23322887707E+02  0.15510674355E+03  0.91798765120E+02 0.  0.
         23    2    1    2    0    0 -0.11250729949E+03 -0.49287311634E+02  0.22774150045E+03  0.28739777994E+03  0.12507662195E+03 0.  0.
          5    1    4    4  502    0 -0.68800675092E+02  0.35663890161E+02  0.12420207443E+03  0.14645502261E+03  0.41800000000E+01 0. -1.
         -5    1    4    4    0  502 -0.43706624403E+02 -0.84951201795E+02  0.10353942601E+03  0.14094275732E+03  0.41800000000E+01 0. -1.
        -11    1    3    3    0    0  0.11528776490E+03  0.62660452943E+02  0.37884853226E+01  0.13127053637E+03  0.00000000000E+00 0.  1.
         11    1    3    3    0    0 -0.27804654042E+01 -0.13373141309E+02  0.19534402385E+02  0.23836207183E+02  0.00000000000E+00 0. -1.
</event>
<event>
 8    1  0.5900800E-006  0.1093159E+03  0.7561462E-02  0.1261842E+00
          1   -1    0    0  501    0  0.00000000000E+00  0.00000000000E+00  0.30802993658E+02  0.30802993658E+02  0.00000000000E+00 0. -1.
         -1   -1    0    0    0  501 -0.00000000000E+00 -0.00000000000E+00 -0.53169185015E+03  0.53169185015E+03  0.00000000000E+00 0.  1.
         23    2    1    2    0    0  0.43600703287E+02  0.11447224844E+02 -0.33662873936E+03  0.35116261450E+03  0.89242441571E+02 0.  0.
         23    2    1    2    0    0 -0.43600703287E+02 -0.11447224844E+02 -0.16426011714E+03  0.21133222931E+03  0.12509142568E+03 0.  0.
          5    1    4    4  502    0  0.36630207086E+02 -0.13912296128E+02 -0.10297123764E+03  0.11025367221E+03  0.41800000000E+01 0. -1.
         -5    1    4    4    0  502 -0.80230910372E+02  0.24650712835E+01 -0.61288879500E+02  0.10107855710E+03  0.41800000000E+01 0. -1.
        -11    1    3    3    0    0  0.25191834149E+02 -0.38278768875E+02 -0.13004609261E+03  0.13788356993E+03  0.00000000000E+00 0. -1.
         11    1    3    3    0    0  0.18408869138E+02  0.49725993719E+02 -0.20658264674E+03  0.21327904456E+03  0.00000000000E+00 0.  1.
</event>
<event>
 8    1  0.5900800E-006  0.2722011E+03  0.7561462E-02  0.1100026E+00
          2   -1    0    0  501    0  0.00000000000E+00  0.00000000000E+00  0.10378266082E+04  0.10378266082E+04  0.00000000000E+00 0. -1.
         -2   -1    0    0    0  501 -0.00000000000E+00 -0.00000000000E+00 -0.81504008599E+02  0.81504008599E+02  0.00000000000E+00 0.  1.
         23    2    1    2    0    0 -0.22838163704E+03  0.12555103289E+03  0.33698601881E+03  0.43584937790E+03  0.92107922270E+02 0.  0.
         23    2    1    2    0    0  0.22838163704E+03 -0.12555103289E+03  0.61933658082E+03  0.68348123893E+03  0.12509024594E+03 0.  0.
          5    1    4    4  502    0  0.95285349927E+02 -0.27395102161E+01  0.31680762897E+03  0.33086454781E+03  0.41800000000E+01 0.  1.
         -5    1    4    4    0  502  0.13309628711E+03 -0.12281152268E+03  0.30252895185E+03  0.35261669112E+03  0.41800000000E+01 0.  1.
        -11    1    3    3    0    0 -0.18382549598E+03  0.70182239247E+02  0.29071139825E+03  0.35104198716E+03  0.00000000000E+00 0. -1.
         11    1    3    3    0    0 -0.44556141061E+02  0.55368793646E+02  0.46274620563E+02  0.84807390741E+02  0.00000000000E+00 0.  1.
</event>
<event>
 8    1  0.5900800E-006  0.9112267E+02  0.7561462E-02  0.1300156E+00
         -2   -1    0    0    0  501 -0.00000000000E+00  0.00000000000E+00  0.26526113123E+02  0.26526113123E+02  0.00000000000E+00 0.  1.
          2   -1    0    0  501    0  0.00000000000E+00 -0.00000000000E+00 -0.75305620439E+03  0.75305620439E+03  0.00000000000E+00 0. -1.
         23    2    1    2    0    0 -0.64726369905E+02  0.11879423349E+02 -0.16439185900E+03  0.19994656923E+03  0.92861852129E+02 0.  0.
         23    2    1    2    0    0  0.64726369905E+02 -0.11879423349E+02 -0.56213823227E+03  0.57963574828E+03  0.12509030678E+03 0.  0.
          5    1    4    4  502    0  0.42901455665E+01 -0.93611542642E+01  0.27937910948E+01  0.11459241983E+02  0.41800000000E+01 0. -1.
         -5    1    4    4    0  502  0.60436224339E+02 -0.25182690845E+01 -0.56493202336E+03  0.56817650630E+03  0.41800000000E+01 0. -1.
        -11    1    3    3    0    0  0.13638139740E+02  0.27405269258E+02 -0.26050035741E+02  0.40195173850E+02  0.00000000000E+00 0.  1.
         11    1    3    3    0    0 -0.78364509645E+02 -0.15525845910E+02 -0.13834182325E+03  0.15975139538E+03  0.00000000000E+00 0. -1.
</event>
<event>
 8    1  0.5900800E-006  0.8110714E+02  0.7561462E-02  0.1325939E+00
         -2   -1    0    0    0  501 -0.00000000000E+00  0.00000000000E+00  0.52669862605E+03  0.52669862605E+03  0.00000000000E+00 0.  1.
          2   -1    0    0  501    0  0.00000000000E+00 -0.00000000000E+00 -0.24340078209E+02  0.24340078209E+02  0.00000000000E+00 0. -1.
         23    2    1    2    0    0 -0.10540377715E+02 -0.23812417229E+02  0.26344123050E+03  0.28009794893E+03  0.91517475353E+02 0.  0.
         23    2    1    2    0    0  0.10540377715E+02  0.23812417229E+02  0.23891731735E+03  0.27094075533E+03  0.12509707268E+03 0.  0.
          5    1    4    4  502    0  0.25694744193E+02 -0.12531224505E+02  0.22805814873E+03  0.22988093238E+03  0.41800000000E+01 0.  1.
         -5    1    4    4    0  502 -0.15154366478E+02  0.36343641734E+02  0.10859168616E+02  0.41059822952E+02  0.41800000000E+01 0.  1.
        -11    1    3    3    0    0  0.16088318267E+02 -0.52306537087E+02  0.17698167085E+03  0.18524934446E+03  0.00000000000E+00 0.  1.
         11    1    3    3    0    0 -0.26628695982E+02  0.28494119857E+02  0.86459559648E+02  0.94848604474E+02  0.00000000000E+00 0. -1.
</event>
<event>
 8    1  0.5900800E-006  0.1004757E+03  0.7561462E-02  0.1279299E+00
         -1   -1    0    0    0  501 -0.00000000000E+00  0.00000000000E+00  0.13963162340E+03  0.13963162340E+03  0.00000000000E+00 0.  1.
          1   -1    0    0  501    0  0.00000000000E+00 -0.00000000000E+00 -0.10490128877E+03  0.10490128877E+03  0.00000000000E+00 0. -1.
         23    2    1    2    0    0  0.53355082438E+02  0.46234041738E+01  0.14701193131E+02  0.10698924482E+03  0.91446338038E+02 0.  0.
         23    2    1    2    0    0 -0.53355082438E+02 -0.46234041738E+01  0.20029141501E+02  0.13754366735E+03  0.12509577623E+03 0.  0.
          5    1    4    4  502    0 -0.82009273925E+02  0.16060372321E+02  0.44099456821E+02  0.94581663448E+02  0.41800000000E+01 0. -1.
         -5    1    4    4    0  502  0.28654191486E+02 -0.20683776495E+02 -0.24070315319E+02  0.42962003903E+02  0.41800000000E+01 0. -1.
        -11    1    3    3    0    0  0.42138474461E+02 -0.25703568565E+02  0.41893131522E+02  0.64740705400E+02  0.00000000000E+00 0.  1.
         11    1    3    3    0    0  0.11216607977E+02  0.30326972739E+02 -0.27191938392E+02  0.42248539425E+02  0.00000000000E+00 0. -1.
</event>
<event>
 8    1  0.5900800E-006  0.9637110E+02  0.7561462E-02  0.1288118E+00
         -2   -1    0    0    0  501 -0.00000000000E+00  0.00000000000E+00  0.76607861323E+02  0.76607861323E+02  0.00000000000E+00 0.  1.
          2   -1    0    0  501    0  0.00000000000E+00 -0.00000000000E+00 -0.48795215146E+03  0.48795215146E+03  0.00000000000E+00 0. -1.
         23    2    1    2    0    0 -0.46500833065E+02 -0.20642072232E+02  0.27145601964E+02  0.10867588325E+03  0.92114826564E+02 0.  0.
         23    2    1    2    0    0  0.46500833065E+02  0.20642072232E+02 -0.43848989210E+03  0.45588412953E+03  0.11387946023E+03 0.  0.
          5    1    4    4  502    0  0.16657440604E+01  0.42352481015E+02 -0.36206744962E+03  0.36456387345E+03  0.41800000000E+01 0. -1.
         -5    1    4    4    0  502  0.44835089005E+02 -0.21710408784E+02 -0.76422442480E+02  0.91320256078E+02  0.41800000000E+01 0.  1.
        -11    1    3    3    0    0 -0.43659269097E+02  0.27720020197E+02 -0.26801436293E+01  0.51785272691E+02  0.00000000000E+00 0.  1.
         11    1    3    3    0    0 -0.28415639686E+01 -0.48362092429E+02  0.29825745593E+02  0.56890610561E+02  0.00000000000E+00 0. -1.
</event>
<event>
 8    1  0.5900800E-006  0.1307232E+03  0.7561462E-02  0.1226387E+00
         -1   -1    0    0    0  501 -0.00000000000E+00  0.00000000000E+00  0.29209067650E+02  0.29209067650E+02  0.00000000000E+00 0.  1.
          1   -1    0    0  501    0  0.00000000000E+00 -0.00000000000E+00 -0.96204690707E+03  0.96204690707E+03  0.00000000000E+00 0. -1.
         23    2    1    2    0    0 -0.87593118876E+02  0.77879100967E+02 -0.30624247914E+03  0.34163557195E+03  0.95878564596E+02 0.  0.
         23    2    1    2    0    0  0.87593118876E+02 -0.77879100967E+02 -0.62659536028E+03  0.64962040277E+03  0.12508882177E+03 0.  0.
          5    1    4    4  502    0  0.17007584468E+02 -0.24755781560E+02 -0.46005427214E+03  0.46105261345E+03  0.41800000000E+01 0. -1.
         -5    1    4    4    0  502  0.70585534408E+02 -0.53123319408E+02 -0.16654108813E+03  0.18856778932E+03  0.41800000000E+01 0. -1.
        -11    1    3    3    0    0 -0.33513590584E+02 -0.13796728874E+02 -0.13693871453E+03  0.14165352808E+03  0.00000000000E+00 0. -1.
         11    1    3    3    0    0 -0.54079528292E+02  0.91675829841E+02 -0.16930376462E+03  0.19998204387E+03  0.00000000000E+00 0.  1.
</event>
<event>
 8    1  0.5900800E-006  0.1184737E+03  0.7561462E-02  0.1245636E+00
          1   -1    0    0  501    0  0.00000000000E+00  0.00000000000E+00  0.17897938271E+02  0.17897938271E+02  0.00000000000E+00 0. -1.
         -1   -1    0    0    0  501 -0.00000000000E+00 -0.00000000000E+00 -0.91953373309E+03  0.91953373309E+03  0.00000000000E+00 0.  1.
         23    2    1    2    0    0  0.70484901803E+02  0.58082540198E+01 -0.37201697531E+03  0.38866465065E+03  0.87531271810E+02 0.  0.
         23    2    1    2    0    0 -0.70484901803E+02 -0.58082540198E+01 -0.52961881950E+03  0.54876702071E+03  0.12508913562E+03 0.  0.
          5    1    4    4  502    0 -0.22536616913E+02 -0.57588281379E+02 -0.35517749061E+03  0.36054518648E+03  0.41800000000E+01 0. -1.
         -5    1    4    4    0  502 -0.47948284891E+02  0.51780027359E+02 -0.17444132889E+03  0.18822183423E+03  0.41800000000E+01 0. -1.
        -11    1    3    3    0    0  0.84331384562E+02  0.17524223406E+02 -0.34838376714E+03  0.35887341784E+03  0.00000000000E+00 0.  1.
         11    1    3    3    0    0 -0.13846482758E+02 -0.11715969386E+02 -0.23633208174E+02  0.29791232805E+02  0.00000000000E+00 0. -1.
</event>
<event>
 8    1  0.2006685E-005  0.1060103E+03  0.7561462E-02  0.1268142E+00
         -2   -1    0    0    0  501 -0.00000000000E+00  0.00000000000E+00  0.74542352468E+03  0.74542352468E+03  0.00000000000E+00 0.  1.
          2   -1    0    0  501    0  0.00000000000E+00 -0.00000000000E+00 -0.24760597514E+02  0.24760597514E+02  0.00000000000E+00 0. -1.
         23    2    1    2    0    0  0.48477860772E+02  0.67259191420E+02  0.40294404824E+03  0.41880668288E+03  0.78493501658E+02 0.  0.
         23    2    1    2    0    0 -0.48477860772E+02 -0.67259191420E+02  0.31771887893E+03  0.35137743931E+03  0.12508763733E+03 0.  0.
          5    1    4    4  502    0 -0.52673417055E+02 -0.78270121073E+02  0.32393149572E+03  0.33741634080E+03  0.41800000000E+01 0. -1.
         -5    1    4    4    0  502  0.41955562835E+01  0.11010929653E+02 -0.62126167907E+01  0.13961098515E+02  0.41800000000E+01 0. -1.
        -11    1    3    3    0    0 -0.11039406965E+02  0.36405885145E+02  0.75183428407E+02  0.84260339937E+02  0.00000000000E+00 0. -1.
         11    1    3    3    0    0  0.59517267737E+02  0.30853306275E+02  0.32776061983E+03  0.33454634295E+03  0.00000000000E+00 0.  1.
</event>
<event>
 8    1  0.5900800E-006  0.1192248E+03  0.7561462E-02  0.1244381E+00
         -2   -1    0    0    0  501 -0.00000000000E+00  0.00000000000E+00  0.32643499887E+02  0.32643499887E+02  0.00000000000E+00 0.  1.
          2   -1    0    0  501    0  0.00000000000E+00 -0.00000000000E+00 -0.52384221108E+03  0.52384221108E+03  0.00000000000E+00 0. -1.
         23    2    1    2    0    0  0.61921202318E+02 -0.35076734717E+02 -0.18647262309E+03  0.21948342494E+03  0.91303461296E+02 0.  0.
         23    2    1    2    0    0 -0.61921202318E+02  0.35076734717E+02 -0.30472608810E+03  0.33700228603E+03  0.12509172396E+03 0.  0.
          5    1    4    4  502    0 -0.79064965795E+02  0.61019696377E+02 -0.15804927593E+03  0.18700726773E+03  0.41800000000E+01 0. -1.
         -5    1    4    4    0  502  0.17143763477E+02 -0.25942961660E+02 -0.14667681216E+03  0.14999501829E+03  0.41800000000E+01 0. -1.
        -11    1    3    3    0    0  0.19152534036E+02  0.26159007421E+02 -0.10048134602E+03  0.10558226237E+03  0.00000000000E+00 0. -1.
         11    1    3    3    0    0  0.42768668282E+02 -0.61235742138E+02 -0.85991277074E+02  0.11390116257E+03  0.00000000000E+00 0.  1.
</event>
<event>
 8    1  0.5900800E-006  0.1837600E+03  0.7561462E-02  0.1164213E+00
         -1   -1    0    0    0  501 -0.00000000000E+00  0.00000000000E+00  0.11127568136E+03  0.11127568136E+03  0.00000000000E+00 0.  1.
          1   -1    0    0  501    0  0.00000000000E+00 -0.00000000000E+00 -0.37954811674E+03  0.37954811674E+03  0.00000000000E+00 0. -1.
         23    2    1    2    0    0 -0.98587461594E+02  0.12638463404E+03 -0.47410123872E+02  0.19062413782E+03  0.91636667179E+02 0.  0.
         23    2    1    2    0    0  0.98587461594E+02 -0.12638463404E+03 -0.22086231150E+03  0.30019966028E+03  0.12508841707E+03 0.  0.
          5    1    4    4  502    0  0.21463371001E+02  0.23429041784E+02 -0.19142379927E+02  0.37329604912E+02  0.41800000000E+01 0. -1.
         -5    1    4    4    0  502  0.77124090593E+02 -0.14981367582E+03 -0.20171993158E+03  0.26287005537E+03  0.41800000000E+01 0. -1.
        -11    1    3    3    0    0 -0.94025769681E+02  0.89688760197E+02 -0.69692156621E+02  0.14745140136E+03  0.00000000000E+00 0. -1.
         11    1    3    3    0    0 -0.45616919124E+01  0.36695873840E+02  0.22282032750E+02  0.43172736460E+02  0.00000000000E+00 0.  1.
</event>
<event>
 8    1  0.5900800E-006  0.1112834E+03  0.7561462E-02  0.1258211E+00
          2   -1    0    0  501    0  0.00000000000E+00  0.00000000000E+00  0.46136975859E+03  0.46136975859E+03  0.00000000000E+00 0. -1.
         -2   -1    0    0    0  501 -0.00000000000E+00 -0.00000000000E+00 -0.42766489617E+02  0.42766489617E+02  0.00000000000E+00 0.  1.
         23    2    1    2    0    0 -0.97452169449E+01 -0.74817547060E+02  0.12483179435E+03  0.17605025563E+03  0.98580327776E+02 0.  0.
         23    2    1    2    0    0  0.97452169449E+01  0.74817547060E+02  0.29377147462E+03  0.32808599257E+03  0.12508439001E+03 0.  0.
          5    1    4    4  502    0 -0.32096096119E+02 -0.22881538752E+02  0.84521116266E+02  0.93354248413E+02  0.41800000000E+01 0. -1.
         -5    1    4    4    0  502  0.41841313064E+02  0.97699085812E+02  0.20925035835E+03  0.23473174416E+03  0.41800000000E+01 0. -1.
        -11    1    3    3    0    0 -0.17493719354E+01 -0.57095388241E+02  0.14012054246E+03  0.15131658891E+03  0.00000000000E+00 0. -1.
         11    1    3    3    0    0 -0.79958450094E+01 -0.17722158820E+02 -0.15288748107E+02  0.24733666718E+02  0.00000000000E+00 0.  1.
</event>
<event>
 8    1  0.5900800E-006  0.1118693E+03  0.7561462E-02  0.1257147E+00
          2   -1    0    0  501    0  0.00000000000E+00  0.00000000000E+00  0.54551534201E+03  0.54551534201E+03  0.00000000000E+00 0. -1.
         -2   -1    0    0    0  501 -0.00000000000E+00 -0.00000000000E+00 -0.51684913477E+02  0.51684913477E+02  0.00000000000E+00 0.  1.
         23    2    1    2    0    0  0.32085314817E+02 -0.51149658461E+02  0.28255147715E+02  0.11134817134E+03  0.89186921134E+02 0.  0.
         23    2    1    2    0    0 -0.32085314817E+02  0.51149658461E+02  0.46557528082E+03  0.48585208415E+03  0.12508457367E+03 0.  0.
          5    1    4    4  502    0  0.35261908460E+02  0.26521957520E+02  0.63660873484E+02  0.77569295676E+02  0.41800000000E+01 0.  1.
         -5    1    4    4    0  502 -0.67347223277E+02  0.24627700941E+02  0.40191440734E+03  0.40828278847E+03  0.41800000000E+01 0.  1.
        -11    1    3    3    0    0  0.19884558043E+01 -0.71325916489E+02  0.16287647868E+02  0.73188986825E+02  0.00000000000E+00 0.  1.
         11    1    3    3    0    0  0.30096859013E+02  0.20176258028E+02  0.11967499847E+02  0.38159184517E+02  0.00000000000E+00 0. -1.
</event>
<event>
 8    1  0.5900800E-006  0.1011465E+03  0.7561462E-02  0.1277903E+00
          1   -1    0    0  501    0  0.00000000000E+00  0.00000000000E+00  0.35513246470E+03  0.35513246470E+03  0.00000000000E+00 0. -1.
         -1   -1    0    0    0  501 -0.00000000000E+00 -0.00000000000E+00 -0.57966567859E+02  0.57966567859E+02  0.00000000000E+00 0.  1.
         23    2    1    2    0    0 -0.67976684539E+02  0.78315922929E+01  0.43902378231E+02  0.12245814830E+03  0.91577375990E+02 0.  0.
         23    2    1    2    0    0  0.67976684539E+02 -0.78315922929E+01  0.25326351861E+03  0.29064088425E+03  0.12509016853E+03 0.  0.
          5    1    4    4  502    0  0.10040907040E+03 -0.46033140071E+01  0.22794785151E+03  0.24916032454E+03  0.41800000000E+01 0.  1.
         -5    1    4    4    0  502 -0.32432385857E+02 -0.32282782858E+01  0.25315667094E+02  0.41480559706E+02  0.41800000000E+01 0.  1.
        -11    1    3    3    0    0 -0.51922540339E+02  0.27599420962E+01 -0.20500256357E+02  0.55891215646E+02  0.00000000000E+00 0.  1.
         11    1    3    3    0    0 -0.16054144199E+02  0.50716501967E+01  0.64402634588E+02  0.66566932659E+02  0.00000000000E+00 0. -1.
</event>
<event>
 8    1  0.5900800E-006  0.2480492E+03  0.7561462E-02  0.1114544E+00
          1   -1    0    0  501    0  0.00000000000E+00  0.00000000000E+00  0.94355243671E+03  0.94355243671E+03  0.00000000000E+00 0. -1.
         -1   -1    0    0    0  501 -0.00000000000E+00 -0.00000000000E+00 -0.72528241766E+02  0.72528241766E+02  0.00000000000E+00 0.  1.
         23    2    1    2    0    0  0.29638323255E+02  0.22617706854E+03  0.29767703722E+03  0.38647076701E+03  0.93346337488E+02 0.  0.
         23    2    1    2    0    0 -0.29638323255E+02 -0.22617706854E+03  0.57334715772E+03  0.62960991147E+03  0.12508869178E+03 0.  0.
          5    1    4    4  502    0 -0.67807825035E+02 -0.13966114682E+03  0.43574940465E+03  0.46259934405E+03  0.41800000000E+01 0. -1.
         -5    1    4    4    0  502  0.38169501780E+02 -0.86515921721E+02  0.13759775308E+03  0.16701056742E+03  0.41800000000E+01 0. -1.
        -11    1    3    3    0    0 -0.95755684522E+01  0.19706462758E+03  0.23032925685E+03  0.30327829714E+03  0.00000000000E+00 0.  1.
         11    1    3    3    0    0  0.39213891708E+02  0.29112440959E+02  0.67347780376E+02  0.83192469870E+02  0.00000000000E+00 0. -1.
</event>
<event>
 8    1  0.5900800E-006  0.1140998E+03  0.7561462E-02  0.1253161E+00
         -2   -1    0    0    0  501 -0.00000000000E+00  0.00000000000E+00  0.13815009870E+03  0.13815009870E+03  0.00000000000E+00 0. -1.
          2   -1    0    0  501    0  0.00000000000E+00 -0.00000000000E+00 -0.19836523461E+03  0.19836523461E+03  0.00000000000E+00 0.  1.
         23    2    1    2    0    0 -0.76917529236E+02 -0.18944419709E+02  0.66834633444E+02  0.14140767338E+03  0.96198048424E+02 0.  0.
         23    2    1    2    0    0  0.76917529236E+02  0.18944419709E+02 -0.12704976935E+03  0.19510765993E+03  0.12510059045E+03 0.  0.
          5    1    4    4  502    0  0.54934503275E+02  0.65613662004E+02 -0.11237636290E+03  0.14131125797E+03  0.41800000000E+01 0.  1.
         -5    1    4    4    0  502  0.21983025962E+02 -0.46669242295E+02 -0.14673406448E+02  0.53796401958E+02  0.41800000000E+01 0.  1.
        -11    1    3    3    0    0 -0.43491589752E+02 -0.32910963003E+02 -0.10924773276E+02  0.55623740759E+02  0.00000000000E+00 0.  1.
         11    1    3    3    0    0 -0.33425939485E+02  0.13966543294E+02  0.77759406720E+02  0.85783932618E+02  0.00000000000E+00 0. -1.
</event>
<event>
 8    1  0.5900800E-006  0.3167602E+03  0.7561462E-02  0.1077150E+00
          2   -1    0    0  501    0  0.00000000000E+00  0.00000000000E+00  0.57828463858E+03  0.57828463858E+03  0.00000000000E+00 0. -1.
         -2   -1    0    0    0  501 -0.00000000000E+00 -0.00000000000E+00 -0.22062114550E+03  0.22062114550E+03  0.00000000000E+00 0.  1.
         23    2    1    2    0    0  0.27770448615E+03  0.12205278082E+03  0.71281295090E+01  0.31876024284E+03  0.97676093527E+02 0.  0.
         23    2    1    2    0    0 -0.27770448615E+03 -0.12205278082E+03  0.35053536357E+03  0.48014554125E+03  0.12509211299E+03 0.  0.
          5    1    4    4  502    0 -0.10843345633E+03  0.83948381234E+01  0.78553557488E+02  0.13422526421E+03  0.41800000000E+01 0.  1.
         -5    1    4    4    0  502 -0.16927102982E+03 -0.13044761895E+03  0.27198180608E+03  0.34592027704E+03  0.41800000000E+01 0.  1.
        -11    1    3    3    0    0  0.79782758281E+02  0.27298104091E+01 -0.28821083245E+02  0.84872817929E+02  0.00000000000E+00 0.  1.
         11    1    3    3    0    0  0.19792172787E+03  0.11932297041E+03  0.35949212754E+02  0.23388742491E+03  0.00000000000E+00 0. -1.
</event>
<event>
 8    1  0.5900800E-006  0.1385361E+03  0.7561462E-02  0.1215312E+00
         -3   -1    0    0    0  501 -0.00000000000E+00  0.00000000000E+00  0.89458726691E+02  0.89458726691E+02  0.00000000000E+00 0.  1.
          3   -1    0    0  501    0  0.00000000000E+00 -0.00000000000E+00 -0.28673489788E+03  0.28673489788E+03  0.00000000000E+00 0. -1.
         23    2    1    2    0    0 -0.82969838954E+02  0.81090739708E+02 -0.66509251331E+02  0.16123568511E+03  0.90076430866E+02 0.  0.
         23    2    1    2    0    0  0.82969838954E+02 -0.81090739708E+02 -0.13076691985E+03  0.21495793946E+03  0.12508887307E+03 0.  0.
          5    1    4    4  502    0  0.10418978572E+03 -0.67486134186E+02 -0.14057753543E+03  0.18758839416E+03  0.41800000000E+01 0. -1.
         -5    1    4    4    0  502 -0.21219946765E+02 -0.13604605523E+02  0.98106155715E+01  0.27369545302E+02  0.41800000000E+01 0. -1.
        -11    1    3    3    0    0  0.33511427456E+01  0.23056089600E+02 -0.51000068545E+02  0.56069781673E+02  0.00000000000E+00 0. -1.
         11    1    3    3    0    0 -0.86320981699E+02  0.58034650109E+02 -0.15509182786E+02  0.10516590344E+03  0.00000000000E+00 0.  1.
</event>
<event>
 7    1  0.5900800E-006  0.1786723E+03  0.7561462E-02  0.1169094E+00
          3   -1    0    0  501    0  0.00000000000E+00  0.00000000000E+00  0.16044376371E+04  0.16044376371E+04  0.00000000000E+00 0. -1.
         -3   -1    0    0    0  501 -0.00000000000E+00 -0.00000000000E+00 -0.24075308406E+02  0.24075308406E+02  0.00000000000E+00 0.  1.
         23    2    1    2    0    0 -0.16699486226E+02  0.43846400576E+02  0.27902051226E+03  0.29619346827E+03  0.87617034299E+02 0.  0.
          5    1    1    2  502    0 -0.66728315411E+02 -0.12483974194E+03  0.98752787287E+03  0.99763039316E+03  0.41800000000E+01 0. -1.
         -5    1    1    2    0  502  0.83427801637E+02  0.80993341364E+02  0.31381394358E+03  0.33468908410E+03  0.41800000000E+01 0.  1.
        -11    1    3    3    0    0 -0.52605982250E+02  0.31965232593E+02  0.17064322617E+03  0.18140638384E+03  0.00000000000E+00 0. -1.
         11    1    3    3    0    0  0.35906496024E+02  0.11881167983E+02  0.10837728610E+03  0.11478708443E+03  0.00000000000E+00 0.  1.
</event>
<event>
 8    1  0.5900800E-006  0.1043543E+03  0.7561462E-02  0.1271397E+00
          1   -1    0    0  501    0  0.00000000000E+00  0.00000000000E+00  0.30259293207E+03  0.30259293207E+03  0.00000000000E+00 0. -1.
         -1   -1    0    0    0  501 -0.00000000000E+00 -0.00000000000E+00 -0.40124713437E+02  0.40124713437E+02  0.00000000000E+00 0.  1.
         23    2    1    2    0    0  0.15878246240E+02  0.57308838248E+01  0.93945006101E+02  0.13216418138E+03  0.91415233610E+02 0.  0.
         23    2    1    2    0    0 -0.15878246240E+02 -0.57308838248E+01  0.16852321254E+03  0.21055346413E+03  0.12509087241E+03 0.  0.
          5    1    4    4  502    0  0.35075473114E+02 -0.42372487444E+02  0.11660022334E+03  0.12899147642E+03  0.41800000000E+01 0.  1.
         -5    1    4    4    0  502 -0.50953719354E+02  0.36641603619E+02  0.51922989196E+02  0.81561987707E+02  0.41800000000E+01 0.  1.
        -11    1    3    3    0    0  0.11279197277E+02  0.47399129904E+02  0.64945586343E+02  0.81190067079E+02  0.00000000000E+00 0.  1.
         11    1    3    3    0    0  0.45990489623E+01 -0.41668246079E+02  0.28999419758E+02  0.50974114303E+02  0.00000000000E+00 0. -1.
</event>
<event>
 8    1  0.5900800E-006  0.1346112E+03  0.7561462E-02  0.1220770E+00
         -1   -1    0    0    0  501 -0.00000000000E+00  0.00000000000E+00  0.14747638751E+03  0.14747638751E+03  0.00000000000E+00 0.  1.
          1   -1    0    0  501    0  0.00000000000E+00 -0.00000000000E+00 -0.14971116770E+03  0.14971116770E+03  0.00000000000E+00 0. -1.
         23    2    1    2    0    0 -0.14082732476E+02 -0.99370938461E+02  0.90866235473E+01  0.13641243094E+03  0.91939533515E+02 0.  0.
         23    2    1    2    0    0  0.14082732476E+02  0.99370938461E+02 -0.11321403745E+02  0.16077512427E+03  0.12509020600E+03 0.  0.
          5    1    4    4  502    0 -0.23823387479E+02  0.10333740210E+03 -0.39446616976E+02  0.11322402772E+03  0.41800000000E+01 0.  1.
         -5    1    4    4    0  502  0.37906119955E+02 -0.39664636344E+01  0.28125213231E+02  0.47551096550E+02  0.41800000000E+01 0.  1.
        -11    1    3    3    0    0  0.30247149753E+02 -0.31377949384E+02  0.29610594889E+02  0.52690161372E+02  0.00000000000E+00 0.  1.
         11    1    3    3    0    0 -0.44329882230E+02 -0.67992989076E+02 -0.20523971341E+02  0.83722269568E+02  0.00000000000E+00 0. -1.
</event>
<event>
 8    1  0.5900800E-006  0.3030461E+03  0.7561462E-02  0.1083728E+00
         -4   -1    0    0    0  501 -0.00000000000E+00  0.00000000000E+00  0.31771691365E+03  0.31771691365E+03  0.00000000000E+00 0. -1.
          4   -1    0    0  501    0  0.00000000000E+00 -0.00000000000E+00 -0.36997288245E+03  0.36997288245E+03  0.00000000000E+00 0.  1.
         23    2    1    2    0    0  0.29690031345E+03  0.48439948464E+02  0.94911461078E+02  0.33019383674E+03  0.97588727053E+02 0.  0.
         23    2    1    2    0    0 -0.29690031345E+03 -0.48439948464E+02 -0.14716742987E+03  0.35749595936E+03  0.12509549877E+03 0.  0.
          5    1    4    4  502    0 -0.11972025099E+03 -0.29596630021E+02 -0.12872552449E+03  0.17831610152E+03  0.41800000000E+01 0.  1.
         -5    1    4    4    0  502 -0.17718006246E+03 -0.18843318443E+02 -0.18441905384E+02  0.17917985784E+03  0.41800000000E+01 0.  1.
        -11    1    3    3    0    0  0.15365109263E+03  0.12807429903E+01  0.32092505847E+01  0.15368994065E+03  0.00000000000E+00 0.  1.
         11    1    3    3    0    0  0.14324922082E+03  0.47159205474E+02  0.91702210493E+02  0.17650389609E+03  0.00000000000E+00 0. -1.
</event>
<event>
 8    1  0.5900800E-006  0.1332170E+03  0.7561462E-02  0.1222759E+00
         -2   -1    0    0    0  501 -0.00000000000E+00  0.00000000000E+00  0.16921100586E+02  0.16921100586E+02  0.00000000000E+00 0.  1.
          2   -1    0    0  501    0  0.00000000000E+00 -0.00000000000E+00 -0.25715422242E+04  0.25715422242E+04  0.00000000000E+00 0. -1.
         23    2    1    2    0    0  0.10527349564E+03  0.25971852513E+02 -0.31826923662E+03  0.34639901233E+03  0.83306198783E+02 0.  0.
         23    2    1    2    0    0 -0.10527349564E+03 -0.25971852513E+02 -0.22363518870E+04  0.22420643124E+04  0.11758219568E+03 0.  0.
          5    1    4    4  502    0 -0.14233074768E+02 -0.35522941127E+02 -0.14307032841E+04  0.14312210938E+04  0.41800000000E+01 0. -1.
         -5    1    4    4    0  502 -0.91040420868E+02  0.95510886139E+01 -0.80564860290E+03  0.81084321868E+03  0.41800000000E+01 0.  1.
        -11    1    3    3    0    0  0.82437314077E+02  0.55199712789E+02 -0.21891518461E+03  0.24034720114E+03  0.00000000000E+00 0.  1.
         11    1    3    3    0    0  0.22836181558E+02 -0.29227860276E+02 -0.99354052015E+02  0.10605181119E+03  0.00000000000E+00 0. -1.
</event>
<event>
 8    1  0.5900800E-006  0.1221118E+03  0.7561462E-02  0.1239653E+00
         -2   -1    0    0    0  501 -0.00000000000E+00  0.00000000000E+00  0.27404972897E+03  0.27404972897E+03  0.00000000000E+00 0.  1.
          2   -1    0    0  501    0  0.00000000000E+00 -0.00000000000E+00 -0.13785042686E+03  0.13785042686E+03  0.00000000000E+00 0. -1.
         23    2    1    2    0    0  0.36810397743E+02 -0.11291671239E+03  0.17958609964E+03  0.23403637337E+03  0.91742397821E+02 0.  0.
         23    2    1    2    0    0 -0.36810397743E+02  0.11291671239E+03 -0.43386797523E+02  0.17786378246E+03  0.12509165278E+03 0.  0.
          5    1    4    4  502    0 -0.94063384364E+01  0.21825797326E+01  0.36857546887E+02  0.38330066784E+02  0.41800000000E+01 0. -1.
         -5    1    4    4    0  502 -0.27404059307E+02  0.11073413265E+03 -0.80244344411E+02  0.13953371568E+03  0.41800000000E+01 0. -1.
        -11    1    3    3    0    0  0.39277745937E+01 -0.31500284724E+02 -0.25431804833E+01  0.31845927808E+02  0.00000000000E+00 0. -1.
         11    1    3    3    0    0  0.32882623149E+02 -0.81416427663E+02  0.18212928012E+03  0.20219044556E+03  0.00000000000E+00 0.  1.
</event>
<event>
 7    1  0.5900800E-006  0.1228741E+03  0.7561462E-02  0.1238430E+00
          2   -1    0    0  501    0  0.00000000000E+00  0.00000000000E+00  0.81301884884E+03  0.81301884884E+03  0.00000000000E+00 0. -1.
         -2   -1    0    0    0  501 -0.00000000000E+00 -0.00000000000E+00 -0.26132705274E+02  0.26132705274E+02  0.00000000000E+00 0.  1.
         23    2    1    2    0    0  0.51793663074E+01 -0.33075975584E+02  0.12127625847E+03  0.15761747351E+03  0.94944673844E+02 0.  0.
          5    1    1    2  502    0  0.66397099993E+02 -0.16427655926E+01  0.32306697063E+03  0.32984998632E+03  0.41800000000E+01 0. -1.
         -5    1    1    2    0  502 -0.71576466300E+02  0.34718741177E+02  0.34254291447E+03  0.35168409428E+03  0.41800000000E+01 0.  1.
        -11    1    3    3    0    0 -0.40325263077E+02  0.44302134988E+01  0.38067087822E+02  0.55631437237E+02  0.00000000000E+00 0.  1.
         11    1    3    3    0    0  0.45504629384E+02 -0.37506189083E+02  0.83209170647E+02  0.10198603627E+03  0.00000000000E+00 0. -1.
</event>
<event>
 8    1  0.5900800E-006  0.8148429E+02  0.7561462E-02  0.1324891E+00
          1   -1    0    0  501    0  0.00000000000E+00  0.00000000000E+00  0.65764776363E+02  0.65764776363E+02  0.00000000000E+00 0. -1.
         -1   -1    0    0    0  501 -0.00000000000E+00 -0.00000000000E+00 -0.23735747279E+03  0.23735747279E+03  0.00000000000E+00 0.  1.
         23    2    1    2    0    0 -0.34660008348E+02  0.14724544545E+02 -0.13723346076E+03  0.16804131852E+03  0.89368526810E+02 0.  0.
         23    2    1    2    0    0  0.34660008348E+02 -0.14724544545E+02 -0.34359235664E+02  0.13508093064E+03  0.12509265508E+03 0.  0.
          5    1    4    4  502    0  0.40802823931E+02  0.86856545444E+01  0.39281227187E+02  0.57452573876E+02  0.41800000000E+01 0.  1.
         -5    1    4    4    0  502 -0.61428155830E+01 -0.23410199089E+02 -0.73640462851E+02  0.77628356762E+02  0.41800000000E+01 0.  1.
        -11    1    3    3    0    0 -0.64469874641E+02  0.16727276936E+02 -0.10233286009E+03  0.12209906136E+03  0.00000000000E+00 0.  1.
         11    1    3    3    0    0  0.29809866292E+02 -0.20027323915E+01 -0.34900600671E+02  0.45942257156E+02  0.00000000000E+00 0. -1.
</event>
<event>
 8    1  0.5900800E-006  0.9101756E+02  0.7561462E-02  0.1300406E+00
         -1   -1    0    0    0  501 -0.00000000000E+00  0.00000000000E+00  0.63611612694E+02  0.63611612694E+02  0.00000000000E+00 0.  1.
          1   -1    0    0  501    0  0.00000000000E+00 -0.00000000000E+00 -0.26365170446E+03  0.26365170446E+03  0.00000000000E+00 0. -1.
         23    2    1    2    0    0  0.70330007736E+02  0.19996788380E+02 -0.50370116354E+02  0.11880626100E+03  0.78940468061E+02 0.  0.
         23    2    1    2    0    0 -0.70330007736E+02 -0.19996788380E+02 -0.14966997542E+03  0.20845705616E+03  0.12532781490E+03 0.  0.
          5    1    4    4  502    0 -0.36324322365E+02  0.74723500231E+00  0.14597448417E+02  0.39377311433E+02  0.41800000000E+01 0. -1.
         -5    1    4    4    0  502 -0.34005685371E+02 -0.20744023382E+02 -0.16426742383E+03  0.16907974472E+03  0.41800000000E+01 0. -1.
        -11    1    3    3    0    0  0.48914997835E+02  0.49080867933E+02 -0.44132171722E+02  0.82153862910E+02  0.00000000000E+00 0.  1.
         11    1    3    3    0    0  0.21415009901E+02 -0.29084079553E+02 -0.62379446319E+01  0.36652398090E+02  0.00000000000E+00 0. -1.
</event>
<event>
 7    1  0.5900800E-006  0.1022706E+03  0.7561462E-02  0.1275592E+00
         -2   -1    0    0    0  501 -0.00000000000E+00  0.00000000000E+00  0.30894854770E+02  0.30894854770E+02  0.00000000000E+00 0.  1.
          2   -1    0    0  501    0  0.00000000000E+00 -0.00000000000E+00 -0.19089657081E+04  0.19089657081E+04  0.00000000000E+00 0. -1.
         23    2    1    2    0    0  0.37936544671E+01  0.33035722500E+02 -0.54291582327E+02  0.11071055580E+03  0.90573177478E+02 0.  0.
          5    1    1    2  502    0  0.51604925332E+01  0.47055258205E+02 -0.10718193097E+04  0.10728722818E+04  0.41800000000E+01 0. -1.
         -5    1    1    2    0  502 -0.89541470003E+01 -0.80090980704E+02 -0.75195996129E+03  0.75627772526E+03  0.41800000000E+01 0.  1.
        -11    1    3    3    0    0 -0.12112518006E+02  0.50946832021E+02 -0.11050506715E+01  0.52378563577E+02  0.00000000000E+00 0.  1.
         11    1    3    3    0    0  0.15906172473E+02 -0.17911109521E+02 -0.53186531656E+02  0.58331992222E+02  0.00000000000E+00 0. -1.
</event>
<event>
 8    1  0.5900800E-006  0.1409712E+03  0.7561462E-02  0.1212028E+00
          2   -1    0    0  501    0  0.00000000000E+00  0.00000000000E+00  0.62160702241E+03  0.62160702241E+03  0.00000000000E+00 0. -1.
         -2   -1    0    0    0  501 -0.00000000000E+00 -0.00000000000E+00 -0.45528128837E+02  0.45528128837E+02  0.00000000000E+00 0.  1.
         23    2    1    2    0    0  0.12040091999E+03  0.28129265641E+02  0.19334373366E+03  0.24592052905E+03  0.88359889899E+02 0.  0.
         23    2    1    2    0    0 -0.12040091999E+03 -0.28129265641E+02  0.38273515992E+03  0.42121462220E+03  0.12509163921E+03 0.  0.
          5    1    4    4  502    0 -0.11010758486E+03 -0.59216553414E+02  0.20280154512E+03  0.23827761024E+03  0.41800000000E+01 0. -1.
         -5    1    4    4    0  502 -0.10293335126E+02  0.31087287772E+02  0.17993361480E+03  0.18293701196E+03  0.41800000000E+01 0. -1.
        -11    1    3    3    0    0  0.39868780567E+02  0.12691735530E+02  0.71179297649E+01  0.42441309344E+02  0.00000000000E+00 0.  1.
         11    1    3    3    0    0  0.80532139418E+02  0.15437530112E+02  0.18622580389E+03  0.20347921970E+03  0.00000000000E+00 0. -1.
</event>
<event>
 8    1  0.5900800E-006  0.1288840E+03  0.7561462E-02  0.1229121E+00
         -1   -1    0    0    0  501 -0.00000000000E+00  0.00000000000E+00  0.48166107378E+03  0.48166107378E+03  0.00000000000E+00 0.  1.
          1   -1    0    0  501    0  0.00000000000E+00 -0.00000000000E+00 -0.54165828882E+02  0.54165828882E+02  0.00000000000E+00 0. -1.
         23    2    1    2    0    0 -0.10552789132E+03 -0.24917914522E+02  0.28083456154E+03  0.31466203938E+03  0.91581164861E+02 0.  0.
         23    2    1    2    0    0  0.10552789132E+03  0.24917914522E+02  0.14666068336E+03  0.22116486328E+03  0.12508997721E+03 0.  0.
          5    1    4    4  502    0  0.68332889471E+02 -0.41084613529E+01  0.16381142329E+01  0.68603345811E+02  0.41800000000E+01 0.  1.
         -5    1    4    4    0  502  0.37195001851E+02  0.29026375875E+02  0.14502256912E+03  0.15256151747E+03  0.41800000000E+01 0.  1.
        -11    1    3    3    0    0 -0.83190782099E+02  0.25220626256E+02  0.17815606133E+03  0.19823311631E+03  0.00000000000E+00 0. -1.
         11    1    3    3    0    0 -0.22337109223E+02 -0.50138540778E+02  0.10267850022E+03  0.11642892307E+03  0.00000000000E+00 0.  1.
</event>
<event>
 8    1  0.5900800E-006  0.1467875E+03  0.7561462E-02  0.1204477E+00
          2   -1    0    0  501    0  0.00000000000E+00  0.00000000000E+00  0.64912979973E+03  0.64912979973E+03  0.00000000000E+00 0.  1.
         -2   -1    0    0    0  501 -0.00000000000E+00 -0.00000000000E+00 -0.40595439805E+02  0.40595439805E+02  0.00000000000E+00 0. -1.
         23    2    1    2    0    0 -0.10108525908E+03  0.42085431914E+02  0.17684011521E+03  0.22712661033E+03  0.91239561540E+02 0.  0.
         23    2    1    2    0    0  0.10108525908E+03 -0.42085431914E+02  0.43169424472E+03  0.46259862921E+03  0.12509259627E+03 0.  0.
          5    1    4    4  502    0 -0.11480544326E+02 -0.40552902025E+02  0.54985963764E+02  0.69406551360E+02  0.41800000000E+01 0.  1.
         -5    1    4    4    0  502  0.11256580340E+03 -0.15325298894E+01  0.37670828096E+03  0.39319207785E+03  0.41800000000E+01 0.  1.
        -11    1    3    3    0    0 -0.53961700975E+02  0.66383225977E+02  0.13392082140E+03  0.15891313434E+03  0.00000000000E+00 0.  1.
         11    1    3    3    0    0 -0.47123558103E+02 -0.24297794063E+02  0.42919293811E+02  0.68213475984E+02  0.00000000000E+00 0. -1.
</event>
<event>
 8    1  0.5900800E-006  0.1072407E+03  0.7561462E-02  0.1265767E+00
          2   -1    0    0  501    0  0.00000000000E+00  0.00000000000E+00  0.10512379259E+04  0.10512379259E+04  0.00000000000E+00 0. -1.
         -2   -1    0    0    0  501 -0.00000000000E+00 -0.00000000000E+00 -0.17857581636E+02  0.17857581636E+02  0.00000000000E+00 0.  1.
         23    2    1    2    0    0  0.23380625526E+02 -0.45729849517E+02  0.21094277926E+03  0.23561584634E+03  0.91542875935E+02 0.  0.
         23    2    1    2    0    0 -0.23380625526E+02  0.45729849517E+02  0.82243756503E+03  0.83347966123E+03  0.12508766736E+03 0.  0.
          5    1    4    4  502    0  0.48483866690E+02  0.16044988192E+02  0.21243605704E+03  0.21852843683E+03  0.41800000000E+01 0. -1.
         -5    1    4    4    0  502 -0.71864492216E+02  0.29684861324E+02  0.61000150799E+03  0.61495122440E+03  0.41800000000E+01 0. -1.
        -11    1    3    3    0    0 -0.18513735520E+02  0.53884750612E+01  0.58699195127E+01  0.20155644903E+02  0.00000000000E+00 0.  1.
         11    1    3    3    0    0  0.41894361046E+02 -0.51118324578E+02  0.20507285975E+03  0.21546020143E+03  0.00000000000E+00 0. -1.
</event>
<event>
 8    1  0.5900800E-006  0.2212275E+03  0.7561462E-02  0.1132971E+00
          2   -1    0    0  501    0  0.00000000000E+00  0.00000000000E+00  0.20282072006E+04  0.20282072006E+04  0.00000000000E+00 0. -1.
         -2   -1    0    0    0  501 -0.00000000000E+00 -0.00000000000E+00 -0.24748941112E+02  0.24748941112E+02  0.00000000000E+00 0.  1.
         23    2    1    2    0    0 -0.13473112819E+03 -0.14108130579E+03  0.10112329967E+04  0.10340280298E+04  0.92549344000E+02 0.  0.
         23    2    1    2    0    0  0.13473112819E+03  0.14108130579E+03  0.99222526283E+03  0.10189281119E+04  0.12508842218E+03 0.  0.
          5    1    4    4  502    0  0.11173173062E+03  0.16088623723E+03  0.76697416257E+03  0.79160293040E+03  0.41800000000E+01 0. -1.
         -5    1    4    4    0  502  0.22999397567E+02 -0.19804931446E+02  0.22525110026E+03  0.22732518155E+03  0.41800000000E+01 0. -1.
        -11    1    3    3    0    0 -0.28938720773E+02 -0.97105320813E+02  0.46649289163E+03  0.47737041261E+03  0.00000000000E+00 0.  1.
         11    1    3    3    0    0 -0.10579240741E+03 -0.43975984974E+02  0.54474010505E+03  0.55665761718E+03  0.00000000000E+00 0. -1.
</event>
<event>
 8    1  0.5900800E-006  0.7567137E+02  0.7561462E-02  0.1341805E+00
         -2   -1    0    0    0  501 -0.00000000000E+00  0.00000000000E+00  0.64988532368E+02  0.64988532368E+02  0.00000000000E+00 0.  1.
          2   -1    0    0  501    0  0.00000000000E+00 -0.00000000000E+00 -0.34273037421E+03  0.34273037421E+03  0.00000000000E+00 0. -1.
         23    2    1    2    0    0  0.31598647008E+02  0.25487802973E+02  0.30414976336E+01  0.99820518394E+02  0.91141552497E+02 0.  0.
         23    2    1    2    0    0 -0.31598647008E+02 -0.25487802973E+02 -0.28078333948E+03  0.30789838818E+03  0.11964126013E+03 0.  0.
          5    1    4    4  502    0 -0.34695996474E+02 -0.32542400038E+02 -0.29073864405E+03  0.29463409768E+03  0.41800000000E+01 0. -1.
         -5    1    4    4    0  502  0.30973494664E+01  0.70545970652E+01  0.99553045729E+01  0.13264290505E+02  0.41800000000E+01 0.  1.
        -11    1    3    3    0    0 -0.28262211724E+02 -0.32037103046E+01 -0.13387091447E+02  0.31436135079E+02  0.00000000000E+00 0. -1.
         11    1    3    3    0    0  0.59860858732E+02  0.28691513277E+02  0.16428589081E+02  0.68384383315E+02  0.00000000000E+00 0.  1.
</event>
<event>
 8    1  0.5900800E-006  0.1077638E+03  0.7561462E-02  0.1264768E+00
          2   -1    0    0  501    0  0.00000000000E+00  0.00000000000E+00  0.14657352942E+03  0.14657352942E+03  0.00000000000E+00 0. -1.
         -2   -1    0    0    0  501 -0.00000000000E+00 -0.00000000000E+00 -0.10020844721E+03  0.10020844721E+03  0.00000000000E+00 0.  1.
         23    2    1    2    0    0 -0.42114554496E+02  0.27766057466E+02  0.13269692656E+01  0.10457604652E+03  0.91595846039E+02 0.  0.
         23    2    1    2    0    0  0.42114554496E+02 -0.27766057466E+02  0.45038112941E+02  0.14220593011E+03  0.12509798277E+03 0.  0.
          5    1    4    4  502    0  0.67724145427E+02 -0.47260832203E+02 -0.46909630266E+01  0.82822845088E+02  0.41800000000E+01 0.  1.
         -5    1    4    4    0  502 -0.25609590931E+02  0.19494774737E+02  0.49729075968E+02  0.59383085018E+02  0.41800000000E+01 0.  1.
        -11    1    3    3    0    0 -0.29465947566E+02  0.59403358044E+02 -0.13072493407E+02  0.67586175337E+02  0.00000000000E+00 0.  1.
         11    1    3    3    0    0 -0.12648606931E+02 -0.31637300578E+02  0.14399462672E+02  0.36989871187E+02  0.00000000000E+00 0. -1.
</event>
<event>
 8    1  0.5900800E-006  0.9222239E+02  0.7561462E-02  0.1297557E+00
         -1   -1    0    0    0  501 -0.00000000000E+00  0.00000000000E+00  0.15925758221E+02  0.15925758221E+02  0.00000000000E+00 0.  1.
          1   -1    0    0  501    0  0.00000000000E+00 -0.00000000000E+00 -0.10899143813E+04  0.10899143813E+04  0.00000000000E+00 0. -1.
         23    2    1    2    0    0 -0.23597377563E+02 -0.51742213634E+02 -0.27617490449E+03  0.29628135754E+03  0.90972369728E+02 0.  0.
         23    2    1    2    0    0  0.23597377563E+02  0.51742213634E+02 -0.79781371860E+03  0.80955878199E+03  0.12507837151E+03 0.  0.
          5    1    4    4  502    0  0.22897758847E+02 -0.46091329285E+01 -0.66242382936E+03  0.66284866567E+03  0.41800000000E+01 0. -1.
         -5    1    4    4    0  502  0.69961871550E+00  0.56351346563E+02 -0.13538988923E+03  0.14671011632E+03  0.41800000000E+01 0. -1.
        -11    1    3    3    0    0  0.32196736405E+02 -0.30960348741E+02 -0.15439031786E+03  0.16072194399E+03  0.00000000000E+00 0. -1.
         11    1    3    3    0    0 -0.55794113967E+02 -0.20781864893E+02 -0.12178458663E+03  0.13555941355E+03  0.00000000000E+00 0.  1.
</event>
<event>
 8    1  0.5900800E-006  0.1755622E+03  0.7561462E-02  0.1172168E+00
         -1   -1    0    0    0  501 -0.00000000000E+00  0.00000000000E+00  0.23211604370E+02  0.23211604370E+02  0.00000000000E+00 0.  1.
          1   -1    0    0  501    0  0.00000000000E+00 -0.00000000000E+00 -0.15949440822E+04  0.15949440822E+04  0.00000000000E+00 0. -1.
         23    2    1    2    0    0  0.29446874562E+02  0.14111199448E+03 -0.45613777099E+03  0.48635139392E+03  0.87728551958E+02 0.  0.
         23    2    1    2    0    0 -0.29446874562E+02 -0.14111199448E+03 -0.11155947069E+04  0.11318042927E+04  0.12509873518E+03 0.  0.
          5    1    4    4  502    0  0.29105702277E+02 -0.11945935409E+03 -0.60431334957E+03  0.61670882599E+03  0.41800000000E+01 0.  1.
         -5    1    4    4    0  502 -0.58552576840E+02 -0.21652640386E+02 -0.51128135729E+03  0.51509546669E+03  0.41800000000E+01 0.  1.
        -11    1    3    3    0    0 -0.25576960037E+02  0.19870608529E+02 -0.13239796086E+03  0.13630202496E+03  0.00000000000E+00 0. -1.
         11    1    3    3    0    0  0.55023834600E+02  0.12124138595E+03 -0.32373981014E+03  0.35004936896E+03  0.00000000000E+00 0.  1.
</event>
<event>
 8    1  0.5900800E-006  0.1461050E+03  0.7561462E-02  0.1205342E+00
         -1   -1    0    0    0  501 -0.00000000000E+00  0.00000000000E+00  0.12469874097E+03  0.12469874097E+03  0.00000000000E+00 0.  1.
          1   -1    0    0  501    0  0.00000000000E+00 -0.00000000000E+00 -0.21925237231E+03  0.21925237231E+03  0.00000000000E+00 0. -1.
         23    2    1    2    0    0 -0.59246409736E+02  0.87485511413E+02  0.24252090004E+02  0.14164761828E+03  0.91170346720E+02 0.  0.
         23    2    1    2    0    0  0.59246409736E+02 -0.87485511413E+02 -0.11880572134E+03  0.20230349501E+03  0.12509217759E+03 0.  0.
          5    1    4    4  502    0  0.95521251914E+02 -0.71338099941E+02 -0.66746328691E+02  0.13669666735E+03  0.41800000000E+01 0.  1.
         -5    1    4    4    0  502 -0.36274842178E+02 -0.16147411472E+02 -0.52059392650E+02  0.65606827658E+02  0.41800000000E+01 0.  1.
        -11    1    3    3    0    0  0.74210659576E+01  0.60686603048E+02 -0.10164895515E+02  0.61977908244E+02  0.00000000000E+00 0.  1.
         11    1    3    3    0    0 -0.66667475694E+02  0.26798908364E+02  0.34416985520E+02  0.79669710036E+02  0.00000000000E+00 0. -1.
</event>
<event>
 8    1  0.5900800E-006  0.1303942E+03  0.7561462E-02  0.1226872E+00
         -2   -1    0    0    0  501 -0.00000000000E+00  0.00000000000E+00  0.34230117710E+03  0.34230117710E+03  0.00000000000E+00 0.  1.
          2   -1    0    0  501    0  0.00000000000E+00 -0.00000000000E+00 -0.66389265351E+02  0.66389265351E+02  0.00000000000E+00 0. -1.
         23    2    1    2    0    0  0.62498958973E+02  0.79570688081E+02  0.15607073062E+03  0.20807697859E+03  0.93275622703E+02 0.  0.
         23    2    1    2    0    0 -0.62498958973E+02 -0.79570688081E+02  0.11984118113E+03  0.20061346386E+03  0.12508492679E+03 0.  0.
          5    1    4    4  502    0  0.34346216822E+02 -0.48261723866E+01  0.45633026858E+02  0.57469992954E+02  0.41800000000E+01 0.  1.
         -5    1    4    4    0  502 -0.96845175796E+02 -0.74744515695E+02  0.74208154272E+02  0.14314347090E+03  0.41800000000E+01 0.  1.
        -11    1    3    3    0    0  0.34369132718E+02  0.60112034911E+02  0.15932189740E+03  0.17371862599E+03  0.00000000000E+00 0.  1.
         11    1    3    3    0    0  0.28129826255E+02  0.19458653170E+02 -0.32511667793E+01  0.34358352606E+02  0.00000000000E+00 0. -1.
</event>
<event>
 8    1  0.5900800E-006  0.1230130E+03  0.7561462E-02  0.1238208E+00
          2   -1    0    0  501    0  0.00000000000E+00  0.00000000000E+00  0.41648770522E+03  0.41648770522E+03  0.00000000000E+00 0.  1.
         -2   -1    0    0    0  501 -0.00000000000E+00 -0.00000000000E+00 -0.53232647654E+02  0.53232647654E+02  0.00000000000E+00 0. -1.
         23    2    1    2    0    0 -0.15370427880E+02  0.90140936971E+02  0.92351889329E+02  0.15763781505E+03  0.89214184410E+02 0.  0.
         23    2    1    2    0    0  0.15370427880E+02 -0.90140936971E+02  0.27090316824E+03  0.31208253783E+03  0.12508135466E+03 0.  0.
          5    1    4    4  502    0 -0.19168684202E+02  0.69862728679E+01  0.15710243991E+03  0.15847679795E+03  0.41800000000E+01 0. -1.
         -5    1    4    4    0  502  0.34539112083E+02 -0.97127209839E+02  0.11380072833E+03  0.15360573988E+03  0.41800000000E+01 0. -1.
        -11    1    3    3    0    0 -0.47072545045E+02  0.35884918488E+02  0.68233774193E+02  0.90329396170E+02  0.00000000000E+00 0. -1.
         11    1    3    3    0    0  0.31702117165E+02  0.54256018483E+02  0.24118115136E+02  0.67308418880E+02  0.00000000000E+00 0.  1.
</event>
<event>
 8    1  0.5900800E-006  0.1610959E+03  0.7561462E-02  0.1187465E+00
         -2   -1    0    0    0  501 -0.00000000000E+00  0.00000000000E+00  0.17304375219E+02  0.17304375219E+02  0.00000000000E+00 0.  1.
          2   -1    0    0  501    0  0.00000000000E+00 -0.00000000000E+00 -0.19383116991E+04  0.19383116991E+04  0.00000000000E+00 0. -1.
         23    2    1    2    0    0 -0.16916333390E+02  0.12345429698E+03 -0.48303277994E+03  0.50684218925E+03  0.89672808194E+02 0.  0.
         23    2    1    2    0    0  0.16916333390E+02 -0.12345429698E+03 -0.14379745439E+04  0.14487738850E+04  0.12509138760E+03 0.  0.
          5    1    4    4  502    0 -0.15895518572E+02 -0.13806143972E+03 -0.10614895181E+04  0.10705564432E+04  0.41800000000E+01 0. -1.
         -5    1    4    4    0  502  0.32811851962E+02  0.14607142735E+02 -0.37648502579E+03  0.37821744181E+03  0.41800000000E+01 0. -1.
        -11    1    3    3    0    0 -0.44957412918E+02  0.44693153987E+02 -0.13862069879E+03  0.15242816381E+03  0.00000000000E+00 0.  1.
         11    1    3    3    0    0  0.28041079528E+02  0.78761142995E+02 -0.34441208115E+03  0.35441402544E+03  0.00000000000E+00 0. -1.
</event>
<event>
 8    1  0.5900800E-006  0.1102358E+03  0.7561462E-02  0.1260134E+00
         -1   -1    0    0    0  501 -0.00000000000E+00  0.00000000000E+00  0.80995963367E+02  0.80995963367E+02  0.00000000000E+00 0.  1.
          1   -1    0    0  501    0  0.00000000000E+00 -0.00000000000E+00 -0.16333582595E+03  0.16333582595E+03  0.00000000000E+00 0. -1.
         23    2    1    2    0    0  0.46219834307E+02  0.91261278916E+01 -0.99983505235E+01  0.10122879348E+03  0.89037870162E+02 0.  0.
         23    2    1    2    0    0 -0.46219834307E+02 -0.91261278916E+01 -0.72341512055E+02  0.14310299583E+03  0.11412981099E+03 0.  0.
          5    1    4    4  502    0  0.10490309299E+02 -0.49726554781E+02 -0.45213921647E+02  0.68150920392E+02  0.41800000000E+01 0. -1.
         -5    1    4    4    0  502 -0.56710143605E+02  0.40600426889E+02 -0.27127590408E+02  0.74952075439E+02  0.41800000000E+01 0.  1.
        -11    1    3    3    0    0  0.30442085563E+02 -0.38704950559E+02  0.26003742927E+01  0.49310807311E+02  0.00000000000E+00 0. -1.
         11    1    3    3    0    0  0.15777748744E+02  0.47831078450E+02 -0.12598724816E+02  0.51917986172E+02  0.00000000000E+00 0.  1.
</event>
<event>
 8    1  0.5900800E-006  0.1020067E+03  0.7561462E-02  0.1276132E+00
          3   -1    0    0  501    0  0.00000000000E+00  0.00000000000E+00  0.40979350620E+02  0.40979350620E+02  0.00000000000E+00 0. -1.
         -3   -1    0    0    0  501 -0.00000000000E+00 -0.00000000000E+00 -0.37904595336E+03  0.37904595336E+03  0.00000000000E+00 0.  1.
         23    2    1    2    0    0  0.35329926588E+02  0.16674632823E+02 -0.22960938204E+03  0.24992082576E+03  0.90629486015E+02 0.  0.
         23    2    1    2    0    0 -0.35329926588E+02 -0.16674632823E+02 -0.10845722071E+03  0.17010447823E+03  0.12508524172E+03 0.  0.
          5    1    4    4  502    0  0.41984801368E+02  0.14764310062E+02 -0.21855409488E+02  0.49757810657E+02  0.41800000000E+01 0.  1.
         -5    1    4    4    0  502 -0.77314727956E+02 -0.31438942885E+02 -0.86601811219E+02  0.12034666757E+03  0.41800000000E+01 0.  1.
        -11    1    3    3    0    0  0.45929199427E+02 -0.10032301291E+02 -0.20984402906E+03  0.21504570436E+03  0.00000000000E+00 0.  1.
         11    1    3    3    0    0 -0.10599272839E+02  0.26706934114E+02 -0.19765352974E+02  0.34875121400E+02  0.00000000000E+00 0. -1.
</event>
<event>
 8    1  0.5900800E-006  0.1130107E+03  0.7561462E-02  0.1255094E+00
         -1   -1    0    0    0  501 -0.00000000000E+00  0.00000000000E+00  0.12844852796E+02  0.12844852796E+02  0.00000000000E+00 0.  1.
          1   -1    0    0  501    0  0.00000000000E+00 -0.00000000000E+00 -0.15092992650E+04  0.15092992650E+04  0.00000000000E+00 0. -1.
         23    2    1    2    0    0 -0.34965581995E+02  0.61018091534E+02 -0.38616132633E+03  0.40261593192E+03  0.89628228078E+02 0.  0.
         23    2    1    2    0    0  0.34965581995E+02 -0.61018091534E+02 -0.11102930859E+04  0.11195281859E+04  0.12508726154E+03 0.  0.
          5    1    4    4  502    0  0.65725894677E+02 -0.82605112532E+02 -0.80515710352E+03  0.81205845331E+03  0.41800000000E+01 0. -1.
         -5    1    4    4    0  502 -0.30760312682E+02  0.21587020999E+02 -0.30513598236E+03  0.30746973257E+03  0.41800000000E+01 0. -1.
        -11    1    3    3    0    0  0.99579353122E+01  0.63647688223E+01 -0.19898211404E+01  0.11984579509E+02  0.00000000000E+00 0.  1.
         11    1    3    3    0    0 -0.44923517307E+02  0.54653322711E+02 -0.38417150519E+03  0.39063135241E+03  0.00000000000E+00 0. -1.
</event>
<event>
 8    1  0.5900800E-006  0.1110807E+03  0.7561462E-02  0.1258582E+00
          2   -1    0    0  501    0  0.00000000000E+00  0.00000000000E+00  0.11640570061E+04  0.11640570061E+04  0.00000000000E+00 0. -1.
         -2   -1    0    0    0  501 -0.00000000000E+00 -0.00000000000E+00 -0.13343133133E+02  0.13343133133E+02  0.00000000000E+00 0.  1.
         23    2    1    2    0    0 -0.65481659267E+01  0.56621203532E+02  0.42568527981E+03  0.43945559415E+03  0.93082880333E+02 0.  0.
         23    2    1    2    0    0  0.65481659267E+01 -0.56621203532E+02  0.72502859315E+03  0.73794454508E+03  0.12508737572E+03 0.  0.
          5    1    4    4  502    0  0.18010385978E+02 -0.82747999039E+02  0.29480478379E+03  0.30675550247E+03  0.41800000000E+01 0. -1.
         -5    1    4    4    0  502 -0.11462220052E+02  0.26126795507E+02  0.43022380935E+03  0.43118904261E+03  0.41800000000E+01 0. -1.
        -11    1    3    3    0    0 -0.45732542056E+02  0.85590358155E+01  0.20578148641E+03  0.21097569208E+03  0.00000000000E+00 0.  1.
         11    1    3    3    0    0  0.39184376129E+02  0.48062167717E+02  0.21990379340E+03  0.22847990207E+03  0.00000000000E+00 0. -1.
</event>
<event>
 8    1  0.5900800E-006  0.1177764E+03  0.7561462E-02  0.1246811E+00
          1   -1    0    0  501    0  0.00000000000E+00  0.00000000000E+00  0.76431244598E+03  0.76431244598E+03  0.00000000000E+00 0. -1.
         -1   -1    0    0    0  501 -0.00000000000E+00 -0.00000000000E+00 -0.19227402145E+02  0.19227402145E+02  0.00000000000E+00 0.  1.
         23    2    1    2    0    0 -0.37093285007E+02 -0.30556485764E+02  0.24567970047E+03  0.26646805054E+03  0.91307700213E+02 0.  0.
         23    2    1    2    0    0  0.37093285007E+02  0.30556485764E+02  0.49940534336E+03  0.51707179758E+03  0.12509171142E+03 0.  0.
          5    1    4    4  502    0 -0.25293788035E+02  0.59064174078E+02  0.27156184627E+03  0.27909077578E+03  0.41800000000E+01 0.  1.
         -5    1    4    4    0  502  0.62387073042E+02 -0.28507688314E+02  0.22784349709E+03  0.23798102181E+03  0.41800000000E+01 0.  1.
        -11    1    3    3    0    0  0.25641646992E+02 -0.30321874845E+02  0.80127326932E+02  0.89427616964E+02  0.00000000000E+00 0. -1.
         11    1    3    3    0    0 -0.62734931998E+02 -0.23461091887E+00  0.16555237354E+03  0.17704043358E+03  0.00000000000E+00 0.  1.
</event>
<event>
 7    1  0.5900800E-006  0.1296797E+03  0.7561462E-02  0.1227932E+00
         -2   -1    0    0    0  501 -0.00000000000E+00  0.00000000000E+00  0.23867858482E+03  0.23867858482E+03  0.00000000000E+00 0.  1.
          2   -1    0    0  501    0  0.00000000000E+00 -0.00000000000E+00 -0.10599920388E+03  0.10599920388E+03  0.00000000000E+00 0. -1.
         23    2    1    2    0    0  0.29217569713E+02 -0.17493971404E+02  0.13404839917E+03  0.16591965178E+03  0.91655071385E+02 0.  0.
          5    1    1    2  502    0  0.48016411816E+02  0.61683065977E+02 -0.31986225492E+02  0.84563393104E+02  0.41800000000E+01 0. -1.
         -5    1    1    2    0  502 -0.77233981529E+02 -0.44189094572E+02  0.30617207264E+02  0.94194743816E+02  0.41800000000E+01 0.  1.
        -11    1    3    3    0    0 -0.28227858199E+02  0.77186972457E+01  0.71835195990E+02  0.77567297546E+02  0.00000000000E+00 0.  1.
         11    1    3    3    0    0  0.57445427912E+02 -0.25212668650E+02  0.62213203183E+02  0.88352354234E+02  0.00000000000E+00 0. -1.
</event>
<event>
 7    1  0.5900800E-006  0.9794828E+02  0.7561462E-02  0.1284671E+00
         -1   -1    0    0    0  501 -0.00000000000E+00  0.00000000000E+00  0.13585278515E+03  0.13585278515E+03  0.00000000000E+00 0.  1.
          1   -1    0    0  501    0  0.00000000000E+00 -0.00000000000E+00 -0.11878432241E+03  0.11878432241E+03  0.00000000000E+00 0. -1.
         23    2    1    2    0    0 -0.33815599324E+01  0.41521319482E+02  0.30308681914E+02  0.10318575113E+03  0.89404855114E+02 0.  0.
          5    1    1    2  502    0 -0.43791327389E+02 -0.63981334754E+02  0.30264400412E+02  0.83334853955E+02  0.41800000000E+01 0. -1.
         -5    1    1    2    0  502  0.47172887321E+02  0.22460015272E+02 -0.43504619583E+02  0.68116502474E+02  0.41800000000E+01 0.  1.
        -11    1    3    3    0    0 -0.74722078459E+01 -0.10922870111E+02 -0.24107119212E+02  0.27500839592E+02  0.00000000000E+00 0. -1.
         11    1    3    3    0    0  0.40906479135E+01  0.52444189593E+02  0.54415801127E+02  0.75684911539E+02  0.00000000000E+00 0.  1.
</event>
<event>
 8    1  0.5900800E-006  0.8730822E+02  0.7561462E-02  0.1309504E+00
         -2   -1    0    0    0  501 -0.00000000000E+00  0.00000000000E+00  0.23170008395E+03  0.23170008395E+03  0.00000000000E+00 0.  1.
          2   -1    0    0  501    0  0.00000000000E+00 -0.00000000000E+00 -0.85870450526E+02  0.85870450526E+02  0.00000000000E+00 0. -1.
         23    2    1    2    0    0  0.46911270523E+02  0.43508426153E+02  0.13694360997E+03  0.17678800453E+03  0.91688580442E+02 0.  0.
         23    2    1    2    0    0 -0.46911270523E+02 -0.43508426153E+02  0.88860234538E+01  0.14078252995E+03  0.12508840425E+03 0.  0.
          5    1    4    4  502    0 -0.72247475139E+02 -0.18749845634E+02  0.47218079421E+02  0.88421003158E+02  0.41800000000E+01 0. -1.
         -5    1    4    4    0  502  0.25336204616E+02 -0.24758580519E+02 -0.38332055968E+02  0.52361526795E+02  0.41800000000E+01 0. -1.
        -11    1    3    3    0    0  0.25615052736E+02  0.20248830071E+02  0.14123574848E+03  0.14496096956E+03  0.00000000000E+00 0.  1.
         11    1    3    3    0    0  0.21296217787E+02  0.23259596082E+02 -0.42921385081E+01  0.31827034969E+02  0.00000000000E+00 0. -1.
</event>
<event>
 8    1  0.5900800E-006  0.1696986E+03  0.7561462E-02  0.1178163E+00
         -2   -1    0    0    0  501 -0.00000000000E+00  0.00000000000E+00  0.31102223088E+02  0.31102223088E+02  0.00000000000E+00 0.  1.
          2   -1    0    0  501    0  0.00000000000E+00 -0.00000000000E+00 -0.11259848223E+04  0.11259848223E+04  0.00000000000E+00 0. -1.
         23    2    1    2    0    0 -0.87384447602E+02 -0.12482139002E+03 -0.54313458831E+03  0.57117764545E+03  0.89623102802E+02 0.  0.
         23    2    1    2    0    0  0.87384447602E+02  0.12482139002E+03 -0.55174801090E+03  0.58590939993E+03  0.12509011277E+03 0.  0.
          5    1    4    4  502    0  0.36457022931E+02  0.12286861806E+03 -0.48591120455E+03  0.50254649828E+03  0.41800000000E+01 0.  1.
         -5    1    4    4    0  502  0.50927424671E+02  0.19527719519E+01 -0.65836806348E+02  0.83362901653E+02  0.41800000000E+01 0.  1.
        -11    1    3    3    0    0 -0.11695159654E+02 -0.57676410128E+02 -0.94907409962E+02  0.11167256382E+03  0.00000000000E+00 0.  1.
         11    1    3    3    0    0 -0.75689287948E+02 -0.67144979889E+02 -0.44822717834E+03  0.45950508163E+03  0.00000000000E+00 0. -1.
</event>
<event>
 8    1  0.7746173E-006  0.1131934E+03  0.7561462E-02  0.1254768E+00
          2   -1    0    0  501    0  0.00000000000E+00  0.00000000000E+00  0.31475154852E+03  0.31475154852E+03  0.00000000000E+00 0. -1.
         -2   -1    0    0    0  501 -0.00000000000E+00 -0.00000000000E+00 -0.64589123761E+02  0.64589123761E+02  0.00000000000E+00 0.  1.
         23    2    1    2    0    0 -0.74424613387E+02 -0.48247648237E+02  0.76122134832E+02  0.14738313211E+03  0.89779449653E+02 0.  0.
         23    2    1    2    0    0  0.74424613387E+02  0.48247648237E+02  0.17404028992E+03  0.23195754017E+03  0.12508964501E+03 0.  0.
          5    1    4    4  502    0  0.80843580193E+02 -0.33756002405E+01  0.44811286849E+02  0.92588352207E+02  0.41800000000E+01 0.  1.
         -5    1    4    4    0  502 -0.64189668059E+01  0.51623248477E+02  0.12922900307E+03  0.13936918796E+03  0.41800000000E+01 0.  1.
        -11    1    3    3    0    0 -0.52001313650E+02 -0.16987751002E+02  0.90965577339E+02  0.10614827632E+03  0.00000000000E+00 0. -1.
         11    1    3    3    0    0 -0.22423299737E+02 -0.31259897235E+02 -0.14843442506E+02  0.41234855785E+02  0.00000000000E+00 0.  1.
</event>
<event>
 8    1  0.5900800E-006  0.9920638E+02  0.7561462E-02  0.1281974E+00
         -1   -1    0    0    0  501 -0.00000000000E+00  0.00000000000E+00  0.51898155146E+02  0.51898155146E+02  0.00000000000E+00 0.  1.
          1   -1    0    0  501    0  0.00000000000E+00 -0.00000000000E+00 -0.29782797723E+03  0.29782797723E+03  0.00000000000E+00 0. -1.
         23    2    1    2    0    0  0.28103572122E+02 -0.35820148079E+02 -0.53461614600E+02  0.11570917903E+03  0.91965080888E+02 0.  0.
         23    2    1    2    0    0 -0.28103572122E+02  0.35820148079E+02 -0.19246820748E+03  0.23401695334E+03  0.12508808810E+03 0.  0.
          5    1    4    4  502    0 -0.37591710890E+02  0.68189045508E+02 -0.63251174100E+02  0.10040451225E+03  0.41800000000E+01 0.  1.
         -5    1    4    4    0  502  0.94881387685E+01 -0.32368897429E+02 -0.12921703338E+03  0.13361244109E+03  0.41800000000E+01 0.  1.
        -11    1    3    3    0    0  0.26175376928E+02 -0.58288668334E+02 -0.72722159414E+01  0.64308664566E+02  0.00000000000E+00 0.  1.
         11    1    3    3    0    0  0.19281951934E+01  0.22468520255E+02 -0.46189398658E+02  0.51400514468E+02  0.00000000000E+00 0. -1.
</event>
<event>
 8    1  0.5900800E-006  0.1365758E+03  0.7561462E-02  0.1218012E+00
         -1   -1    0    0    0  501 -0.00000000000E+00  0.00000000000E+00  0.12673763905E+03  0.12673763905E+03  0.00000000000E+00 0.  1.
          1   -1    0    0  501    0  0.00000000000E+00 -0.00000000000E+00 -0.19190928734E+03  0.19190928734E+03  0.00000000000E+00 0. -1.
         23    2    1    2    0    0 -0.94633381597E+02 -0.57580608102E+02 -0.37442313853E+02  0.14927532063E+03  0.92791115640E+02 0.  0.
         23    2    1    2    0    0  0.94633381597E+02  0.57580608102E+02 -0.27729334442E+02  0.16937160575E+03  0.12508725557E+03 0.  0.
          5    1    4    4  502    0  0.11432125768E+03  0.70370372528E+02 -0.43035972658E+02  0.14103512552E+03  0.41800000000E+01 0.  1.
         -5    1    4    4    0  502 -0.19687876082E+02 -0.12789764426E+02  0.15306638216E+02  0.28336480236E+02  0.41800000000E+01 0.  1.
        -11    1    3    3    0    0 -0.78866747868E+02 -0.32348480990E+02  0.17289765904E+02  0.86978871840E+02  0.00000000000E+00 0.  1.
         11    1    3    3    0    0 -0.15766633730E+02 -0.25232127112E+02 -0.54732079757E+02  0.62296448794E+02  0.00000000000E+00 0. -1.
</event>
<event>
 8    1  0.5900800E-006  0.1062625E+03  0.7561462E-02  0.1267652E+00
          1   -1    0    0  501    0  0.00000000000E+00  0.00000000000E+00  0.15955875025E+03  0.15955875025E+03  0.00000000000E+00 0. -1.
         -1   -1    0    0    0  501 -0.00000000000E+00 -0.00000000000E+00 -0.11834290353E+03  0.11834290353E+03  0.00000000000E+00 0.  1.
         23    2    1    2    0    0  0.65142035839E+02  0.65395627143E+02  0.23356242313E+01  0.12850966215E+03  0.89382354205E+02 0.  0.
         23    2    1    2    0    0 -0.65142035839E+02 -0.65395627143E+02  0.38880222488E+02  0.14939199162E+03  0.11084323424E+03 0.  0.
          5    1    4    4  502    0 -0.44209813355E+02 -0.61293028099E+02  0.75436346654E+02  0.10686186264E+03  0.41800000000E+01 0. -1.
         -5    1    4    4    0  502 -0.20932222484E+02 -0.41025990445E+01 -0.36556124166E+02  0.42530128980E+02  0.41800000000E+01 0.  1.
        -11    1    3    3    0    0  0.28383397719E+02 -0.10905140398E+02  0.26610209866E+02  0.40405972606E+02  0.00000000000E+00 0.  1.
         11    1    3    3    0    0  0.36758638120E+02  0.76300767541E+02 -0.24274585635E+02  0.88103689545E+02  0.00000000000E+00 0. -1.
</event>
<event>
 8    1  0.5900800E-006  0.2210060E+03  0.7561462E-02  0.1133135E+00
          2   -1    0    0  501    0  0.00000000000E+00  0.00000000000E+00  0.89855308799E+02  0.89855308799E+02  0.00000000000E+00 0. -1.
         -2   -1    0    0    0  501 -0.00000000000E+00 -0.00000000000E+00 -0.75140969352E+03  0.75140969352E+03  0.00000000000E+00 0.  1.
         23    2    1    2    0    0  0.19310530052E+03  0.81663749250E+02 -0.49656799215E+03  0.54660199245E+03  0.90748786713E+02 0.  0.
         23    2    1    2    0    0 -0.19310530052E+03 -0.81663749250E+02 -0.16498639256E+03  0.29466300986E+03  0.12508858709E+03 0.  0.
          5    1    4    4  502    0 -0.42089392557E+02  0.23225366096E+02 -0.76792386591E+02  0.90694418982E+02  0.41800000000E+01 0. -1.
         -5    1    4    4    0  502 -0.15101590796E+03 -0.10488911535E+03 -0.88194005974E+02  0.20396859088E+03  0.41800000000E+01 0. -1.
        -11    1    3    3    0    0  0.71560928946E+02  0.25733943442E+02 -0.29519318617E+03  0.30483146090E+03  0.00000000000E+00 0. -1.
         11    1    3    3    0    0  0.12154437158E+03  0.55929805808E+02 -0.20137480599E+03  0.24177053155E+03  0.00000000000E+00 0.  1.
</event>
<event>
 8    1  0.5900800E-006  0.2989561E+03  0.7561462E-02  0.1085764E+00
         -1   -1    0    0    0  501 -0.00000000000E+00  0.00000000000E+00  0.68836757017E+02  0.68836757017E+02  0.00000000000E+00 0.  1.
          1   -1    0    0  501    0  0.00000000000E+00 -0.00000000000E+00 -0.13034333496E+04  0.13034333496E+04  0.00000000000E+00 0. -1.
         23    2    1    2    0    0 -0.26389242548E+03 -0.89685246178E+02 -0.61301005525E+03  0.67966578472E+03  0.92095577996E+02 0.  0.
         23    2    1    2    0    0  0.26389242548E+03  0.89685246178E+02 -0.62158653732E+03  0.69260432187E+03  0.12509303616E+03 0.  0.
          5    1    4    4  502    0  0.21753652872E+03  0.12138908252E+03 -0.50277038569E+03  0.56111762030E+03  0.41800000000E+01 0. -1.
         -5    1    4    4    0  502  0.46355896763E+02 -0.31703836344E+02 -0.11881615163E+03  0.13148670157E+03  0.41800000000E+01 0. -1.
        -11    1    3    3    0    0 -0.38851076559E+02  0.18176593072E+02 -0.11228743529E+03  0.12020092683E+03  0.00000000000E+00 0. -1.
         11    1    3    3    0    0 -0.22504134892E+03 -0.10786183925E+03 -0.50072261996E+03  0.55946485790E+03  0.00000000000E+00 0.  1.
</event>
<event>
 8    1  0.5900800E-006  0.1300254E+03  0.7561462E-02  0.1227418E+00
         -3   -1    0    0    0  501 -0.00000000000E+00  0.00000000000E+00  0.11232985557E+03  0.11232985557E+03  0.00000000000E+00 0.  1.
          3   -1    0    0  501    0  0.00000000000E+00 -0.00000000000E+00 -0.18674178659E+03  0.18674178659E+03  0.00000000000E+00 0. -1.
         23    2    1    2    0    0  0.46855111593E+02 -0.69979822186E+02  0.13129889492E+02  0.12470550120E+03  0.91030165532E+02 0.  0.
         23    2    1    2    0    0 -0.46855111593E+02  0.69979822186E+02 -0.87541820510E+02  0.17436614096E+03  0.12508958302E+03 0.  0.
          5    1    4    4  502    0  0.25743812241E+02 -0.10483894870E+02 -0.53940566627E+02  0.60825266530E+02  0.41800000000E+01 0. -1.
         -5    1    4    4    0  502 -0.72598923834E+02  0.80463717056E+02 -0.33601253882E+02  0.11354087443E+03  0.41800000000E+01 0. -1.
        -11    1    3    3    0    0 -0.26819660238E+02 -0.27635941853E+02 -0.12022689923E+01  0.38529013848E+02  0.00000000000E+00 0.  1.
         11    1    3    3    0    0  0.73674771831E+02 -0.42343880333E+02  0.14332158484E+02  0.86176487355E+02  0.00000000000E+00 0. -1.
</event>
<event>
 8    1  0.5900800E-006  0.1432888E+03  0.7561462E-02  0.1208971E+00
          1   -1    0    0  501    0  0.00000000000E+00  0.00000000000E+00  0.91865320562E+03  0.91865320562E+03  0.00000000000E+00 0. -1.
         -1   -1    0    0    0  501 -0.00000000000E+00 -0.00000000000E+00 -0.57391075448E+02  0.57391075448E+02  0.00000000000E+00 0.  1.
         23    2    1    2    0    0  0.11488344621E+03 -0.53272081438E+01  0.61548684068E+02  0.15847747903E+03  0.90001586036E+02 0.  0.
         23    2    1    2    0    0 -0.11488344621E+03  0.53272081438E+01  0.79971344610E+03  0.81756680204E+03  0.12508914645E+03 0.  0.
          5    1    4    4  502    0 -0.10747499766E+03  0.50672083098E+02  0.47813507781E+03  0.49269580896E+03  0.41800000000E+01 0.  1.
         -5    1    4    4    0  502 -0.74084485464E+01 -0.45344874955E+02  0.32157836829E+03  0.32487099308E+03  0.41800000000E+01 0.  1.
        -11    1    3    3    0    0  0.63787504459E+02  0.16650352638E+02 -0.11233224229E+02  0.66874997530E+02  0.00000000000E+00 0.  1.
         11    1    3    3    0    0  0.51095941749E+02 -0.21977560782E+02  0.72781908296E+02  0.91602481497E+02  0.00000000000E+00 0. -1.
</event>
<event>
 7    1  0.5900800E-006  0.2013586E+03  0.7561462E-02  0.1148598E+00
         -3   -1    0    0    0  501 -0.00000000000E+00  0.00000000000E+00  0.30110760289E+03  0.30110760289E+03  0.00000000000E+00 0.  1.
          3   -1    0    0  501    0  0.00000000000E+00 -0.00000000000E+00 -0.35127407360E+03  0.35127407360E+03  0.00000000000E+00 0. -1.
         23    2    1    2    0    0 -0.16736466064E+03  0.56956514492E+02  0.22390484049E+03  0.29960394681E+03  0.91510508555E+02 0.  0.
          5    1    1    2  502    0  0.17797732679E+03 -0.18206914461E+02 -0.24316209253E+03  0.30191504803E+03  0.41800000000E+01 0. -1.
         -5    1    1    2    0  502 -0.10612666158E+02 -0.38749600031E+02 -0.30909218677E+02  0.50862681651E+02  0.41800000000E+01 0.  1.
        -11    1    3    3    0    0 -0.93366965097E+02  0.60725789534E+01  0.17220324398E+03  0.19598016130E+03  0.00000000000E+00 0.  1.
         11    1    3    3    0    0 -0.73997695540E+02  0.50883935538E+02  0.51701596506E+02  0.10362378550E+03  0.00000000000E+00 0. -1.
</event>
<event>
 8    1  0.5900800E-006  0.1053442E+03  0.7561462E-02  0.1269443E+00
          2   -1    0    0  501    0  0.00000000000E+00  0.00000000000E+00  0.28585016928E+03  0.28585016928E+03  0.00000000000E+00 0. -1.
         -2   -1    0    0    0  501 -0.00000000000E+00 -0.00000000000E+00 -0.41410163554E+02  0.41410163554E+02  0.00000000000E+00 0.  1.
         23    2    1    2    0    0  0.11644796499E+01  0.12508059414E+02  0.89035907832E+02  0.12737332441E+03  0.90215094772E+02 0.  0.
         23    2    1    2    0    0 -0.11644796499E+01 -0.12508059414E+02  0.15540409789E+03  0.19988700842E+03  0.12508626995E+03 0.  0.
          5    1    4    4  502    0 -0.74120306160E+01  0.53876320471E+02  0.44408590709E+02  0.70336273956E+02  0.41800000000E+01 0. -1.
         -5    1    4    4    0  502  0.62475509661E+01 -0.66384379884E+02  0.11099550718E+03  0.12955073447E+03  0.41800000000E+01 0. -1.
        -11    1    3    3    0    0  0.16962925063E+02 -0.35203074290E+02  0.26827960225E+02  0.47399754388E+02  0.00000000000E+00 0.  1.
         11    1    3    3    0    0 -0.15798445414E+02  0.47711133703E+02  0.62207947606E+02  0.79973570023E+02  0.00000000000E+00 0. -1.
</event>
<event>
 8    1  0.5900800E-006  0.9112689E+02  0.7561462E-02  0.1300145E+00
          2   -1    0    0  501    0  0.00000000000E+00  0.00000000000E+00  0.40700841632E+02  0.40700841632E+02  0.00000000000E+00 0. -1.
         -2   -1    0    0    0  501 -0.00000000000E+00 -0.00000000000E+00 -0.39871334620E+03  0.39871334620E+03  0.00000000000E+00 0.  1.
         23    2    1    2    0    0 -0.37069566664E+01 -0.54629347081E+02 -0.13973399204E+03  0.18194394268E+03  0.10285865378E+03 0.  0.
         23    2    1    2    0    0  0.37069566664E+01  0.54629347081E+02 -0.21827851253E+03  0.25747024515E+03  0.12508921223E+03 0.  0.
          5    1    4    4  502    0  0.14615592536E+02  0.86885581893E+02 -0.20002549860E+03  0.21861013786E+03  0.41800000000E+01 0. -1.
         -5    1    4    4    0  502 -0.10908635870E+02 -0.32256234812E+02 -0.18253013928E+02  0.38860107286E+02  0.41800000000E+01 0. -1.
        -11    1    3    3    0    0 -0.13300780423E+02 -0.40779155749E+02 -0.15400316788E+03  0.15986502438E+03  0.00000000000E+00 0.  1.
         11    1    3    3    0    0  0.95938237561E+01 -0.13850191332E+02  0.14269175841E+02  0.22078918302E+02  0.00000000000E+00 0. -1.
</event>
<event>
 8    1  0.5900800E-006  0.8368806E+02  0.7561462E-02  0.1318899E+00
          1   -1    0    0  501    0  0.00000000000E+00  0.00000000000E+00  0.77501636719E+02  0.77501636719E+02  0.00000000000E+00 0. -1.
         -1   -1    0    0    0  501 -0.00000000000E+00 -0.00000000000E+00 -0.19372592590E+03  0.19372592590E+03  0.00000000000E+00 0.  1.
         23    2    1    2    0    0  0.19367610744E+02 -0.61389335627E+02 -0.44645318625E+02  0.11338342987E+03  0.81968547747E+02 0.  0.
         23    2    1    2    0    0 -0.19367610744E+02  0.61389335627E+02 -0.71578970556E+02  0.15784413275E+03  0.12508983309E+03 0.  0.
          5    1    4    4  502    0 -0.10559889557E+02  0.52870404269E+02  0.25583488447E+02  0.59822890235E+02  0.41800000000E+01 0.  1.
         -5    1    4    4    0  502 -0.88077211868E+01  0.85189313582E+01 -0.97162459003E+02  0.98021242511E+02  0.41800000000E+01 0.  1.
        -11    1    3    3    0    0  0.15768045382E+02 -0.79927711189E+02 -0.47469152482E+02  0.94288868423E+02  0.00000000000E+00 0.  1.
         11    1    3    3    0    0  0.35995653616E+01  0.18538375562E+02  0.28238338568E+01  0.19094561449E+02  0.00000000000E+00 0. -1.
</event>
<event>
 8    1  0.5900800E-006  0.1130438E+03  0.7561462E-02  0.1255035E+00
          2   -1    0    0  501    0  0.00000000000E+00  0.00000000000E+00  0.13646984567E+04  0.13646984567E+04  0.00000000000E+00 0. -1.
         -2   -1    0    0    0  501 -0.00000000000E+00 -0.00000000000E+00 -0.13454369042E+02  0.13454369042E+02  0.00000000000E+00 0.  1.
         23    2    1    2    0    0 -0.35198273161E+02 -0.40367054745E+02  0.30877251795E+03  0.32683752582E+03  0.92811006373E+02 0.  0.
         23    2    1    2    0    0  0.35198273161E+02  0.40367054745E+02  0.10424715697E+04  0.10513152999E+04  0.12509383937E+03 0.  0.
          5    1    4    4  502    0 -0.12831591074E+02  0.73870493474E+02  0.67794515675E+03  0.68209134835E+03  0.41800000000E+01 0. -1.
         -5    1    4    4    0  502  0.48029864236E+02 -0.33503438729E+02  0.36452641292E+03  0.36922395153E+03  0.41800000000E+01 0. -1.
        -11    1    3    3    0    0  0.18312195403E+02  0.81594717783E+01  0.17091260415E+02  0.26344347833E+02  0.00000000000E+00 0.  1.
         11    1    3    3    0    0 -0.53510468564E+02 -0.48526526523E+02  0.29168125753E+03  0.30049317799E+03  0.00000000000E+00 0. -1.
</event>
<event>
 8    1  0.5900800E-006  0.1461391E+03  0.7561462E-02  0.1205299E+00
          2   -1    0    0  501    0  0.00000000000E+00  0.00000000000E+00  0.68911937057E+03  0.68911937057E+03  0.00000000000E+00 0. -1.
         -2   -1    0    0    0  501 -0.00000000000E+00 -0.00000000000E+00 -0.45318098539E+02  0.45318098539E+02  0.00000000000E+00 0.  1.
         23    2    1    2    0    0 -0.13461295119E+03 -0.25496942864E+02  0.25105853885E+03  0.30008176458E+03  0.90818141250E+02 0.  0.
         23    2    1    2    0    0  0.13461295119E+03  0.25496942864E+02  0.39274273319E+03  0.43435570454E+03  0.12508909971E+03 0.  0.
          5    1    4    4  502    0  0.29678347818E+02 -0.23956606889E+02  0.23714703428E+03  0.24023095473E+03  0.41800000000E+01 0.  1.
         -5    1    4    4    0  502  0.10493460337E+03  0.49453549753E+02  0.15559569891E+03  0.19412474981E+03  0.41800000000E+01 0.  1.
        -11    1    3    3    0    0 -0.10142829406E+03 -0.12520269107E+02  0.93405675612E+02  0.13845243303E+03  0.00000000000E+00 0.  1.
         11    1    3    3    0    0 -0.33184657128E+02 -0.12976673757E+02  0.15765286324E+03  0.16162933155E+03  0.00000000000E+00 0. -1.
</event>
<event>
 8    1  0.5900800E-006  0.1074332E+03  0.7561462E-02  0.1265398E+00
         -2   -1    0    0    0  501 -0.00000000000E+00  0.00000000000E+00  0.45535110542E+02  0.45535110542E+02  0.00000000000E+00 0.  1.
          2   -1    0    0  501    0  0.00000000000E+00 -0.00000000000E+00 -0.33598272832E+03  0.33598272832E+03  0.00000000000E+00 0. -1.
         23    2    1    2    0    0  0.25243789681E+02 -0.50005352885E+02 -0.99390020223E+02  0.14638482277E+03  0.91718896540E+02 0.  0.
         23    2    1    2    0    0 -0.25243789681E+02  0.50005352885E+02 -0.19105759756E+03  0.23513301610E+03  0.12508695151E+03 0.  0.
          5    1    4    4  502    0  0.41700517456E+02  0.45601963440E+02 -0.13137315002E+03  0.14524065950E+03  0.41800000000E+01 0.  1.
         -5    1    4    4    0  502 -0.66944307137E+02  0.44033894449E+01 -0.59684447539E+02  0.89892356598E+02  0.41800000000E+01 0.  1.
        -11    1    3    3    0    0  0.31884554566E+02 -0.63285840774E+02 -0.10803555909E+03  0.12920295852E+03  0.00000000000E+00 0. -1.
         11    1    3    3    0    0 -0.66407648850E+01  0.13280487889E+02  0.86455388658E+01  0.17181864250E+02  0.00000000000E+00 0.  1.
</event>
<event>
 8    1  0.5900800E-006  0.2505445E+03  0.7561462E-02  0.1112961E+00
          1   -1    0    0  501    0  0.00000000000E+00  0.00000000000E+00  0.41239544339E+03  0.41239544339E+03  0.00000000000E+00 0. -1.
         -1   -1    0    0    0  501 -0.00000000000E+00 -0.00000000000E+00 -0.21815180951E+03  0.21815180951E+03  0.00000000000E+00 0.  1.
         23    2    1    2    0    0 -0.76595461641E+02 -0.21753507403E+03 -0.70021872264E+02  0.25816332272E+03  0.92503326558E+02 0.  0.
         23    2    1    2    0    0  0.76595461641E+02  0.21753507403E+03  0.26426550615E+03  0.37238393018E+03  0.12508061615E+03 0.  0.
          5    1    4    4  502    0  0.10385955171E+03  0.10998488403E+03  0.15248149932E+03  0.21482914428E+03  0.41800000000E+01 0.  1.
         -5    1    4    4    0  502 -0.27264090071E+02  0.10755019000E+03  0.11178400683E+03  0.15755478590E+03  0.41800000000E+01 0.  1.
        -11    1    3    3    0    0 -0.76434252330E+02 -0.12724110094E+03 -0.77705376228E+02  0.16754288464E+03  0.00000000000E+00 0.  1.
         11    1    3    3    0    0 -0.16120931073E+00 -0.90293973094E+02  0.76835039639E+01  0.90620438084E+02  0.00000000000E+00 0. -1.
</event>
<event>
 8    1  0.5900800E-006  0.1222072E+03  0.7561462E-02  0.1239500E+00
         -1   -1    0    0    0  501 -0.00000000000E+00  0.00000000000E+00  0.11638425379E+03  0.11638425379E+03  0.00000000000E+00 0.  1.
          1   -1    0    0  501    0  0.00000000000E+00 -0.00000000000E+00 -0.19886803040E+03  0.19886803040E+03  0.00000000000E+00 0. -1.
         23    2    1    2    0    0 -0.10209328156E+02 -0.10229329320E+03 -0.11438885440E+00  0.13853277114E+03  0.92861011085E+02 0.  0.
         23    2    1    2    0    0  0.10209328156E+02  0.10229329320E+03 -0.82369387757E+02  0.17671951305E+03  0.11780034821E+03 0.  0.
          5    1    4    4  502    0 -0.37514430691E+01  0.77657628089E+02  0.11389232957E+02  0.78689056119E+02  0.41800000000E+01 0. -1.
         -5    1    4    4    0  502  0.13960771225E+02  0.24635665114E+02 -0.93758620714E+02  0.98030456936E+02  0.41800000000E+01 0.  1.
        -11    1    3    3    0    0  0.15828784319E+02  0.12532645261E+02  0.45629553248E+01  0.20698748067E+02  0.00000000000E+00 0. -1.
         11    1    3    3    0    0 -0.26038112475E+02 -0.11482593846E+03 -0.46773441792E+01  0.11783402307E+03  0.00000000000E+00 0.  1.
</event>
<event>
 8    1  0.5900800E-006  0.1219723E+03  0.7561462E-02  0.1239878E+00
          1   -1    0    0  501    0  0.00000000000E+00  0.00000000000E+00  0.74159880188E+03  0.74159880188E+03  0.00000000000E+00 0. -1.
         -1   -1    0    0    0  501 -0.00000000000E+00 -0.00000000000E+00 -0.27493324983E+02  0.27493324983E+02  0.00000000000E+00 0.  1.
         23    2    1    2    0    0 -0.20480668531E+02 -0.85662379005E+02  0.29109001822E+03  0.31926292432E+03  0.97148932967E+02 0.  0.
         23    2    1    2    0    0  0.20480668531E+02  0.85662379005E+02  0.42301545867E+03  0.44982920254E+03  0.12508689868E+03 0.  0.
          5    1    4    4  502    0  0.45878444591E+02 -0.26793000962E+01  0.24637489573E+03  0.25065927466E+03  0.41800000000E+01 0. -1.
         -5    1    4    4    0  502 -0.25397776060E+02  0.88341679101E+02  0.17664056294E+03  0.19916992788E+03  0.41800000000E+01 0. -1.
        -11    1    3    3    0    0  0.20684225565E+02 -0.32904562259E+02  0.21258151130E+03  0.21610517428E+03  0.00000000000E+00 0. -1.
         11    1    3    3    0    0 -0.41164894096E+02 -0.52757816747E+02  0.78508506919E+02  0.10315775004E+03  0.00000000000E+00 0.  1.
</event>
<event>
 8    1  0.5900800E-006  0.6827353E+02  0.7561462E-02  0.1366064E+00
          2   -1    0    0  501    0  0.00000000000E+00  0.00000000000E+00  0.98633060114E+03  0.98633060114E+03  0.00000000000E+00 0.  1.
         -2   -1    0    0    0  501 -0.00000000000E+00 -0.00000000000E+00 -0.25216970209E+02  0.25216970209E+02  0.00000000000E+00 0. -1.
         23    2    1    2    0    0 -0.45529565305E+02  0.32718704462E+02  0.87927694692E+02  0.12766751570E+03  0.73649576594E+02 0.  0.
         23    2    1    2    0    0  0.45529565305E+02 -0.32718704462E+02  0.87318593624E+03  0.88388005565E+03  0.12508724392E+03 0.  0.
          5    1    4    4  502    0  0.51863274579E+02 -0.37772467967E+02  0.18907290131E+03  0.19970626679E+03  0.41800000000E+01 0. -1.
         -5    1    4    4    0  502 -0.63337092738E+01  0.50537635056E+01  0.68411303493E+03  0.68417378886E+03  0.41800000000E+01 0. -1.
        -11    1    3    3    0    0 -0.36485364547E+02  0.87572218264E+01  0.94115336222E+02  0.10131913577E+03  0.00000000000E+00 0.  1.
         11    1    3    3    0    0 -0.90442007576E+01  0.23961482635E+02 -0.61876415294E+01  0.26348379934E+02  0.00000000000E+00 0. -1.
</event>
<event>
 8    1  0.5900800E-006  0.1361963E+03  0.7561462E-02  0.1218541E+00
         -2   -1    0    0    0  501 -0.00000000000E+00  0.00000000000E+00  0.28543968813E+03  0.28543968813E+03  0.00000000000E+00 0.  1.
          2   -1    0    0  501    0  0.00000000000E+00 -0.00000000000E+00 -0.10294855748E+03  0.10294855748E+03  0.00000000000E+00 0. -1.
         23    2    1    2    0    0 -0.12101244133E+02 -0.13119127077E+03  0.10902818913E+03  0.19242515698E+03  0.88219642823E+02 0.  0.
         23    2    1    2    0    0  0.12101244133E+02  0.13119127077E+03  0.73462941514E+02  0.19596308863E+03  0.12508852343E+03 0.  0.
          5    1    4    4  502    0 -0.37085841017E+01  0.72479141315E+02  0.10471210511E+03  0.12747186701E+03  0.41800000000E+01 0. -1.
         -5    1    4    4    0  502  0.15809828234E+02  0.58712129451E+02 -0.31249163596E+02  0.68491221620E+02  0.41800000000E+01 0. -1.
        -11    1    3    3    0    0  0.10373936247E+02 -0.98703381529E+02  0.29357303597E+02  0.10349795821E+03  0.00000000000E+00 0. -1.
         11    1    3    3    0    0 -0.22475180380E+02 -0.32487889237E+02  0.79670885536E+02  0.88927198776E+02  0.00000000000E+00 0.  1.
</event>
<event>
 8    1  0.5900800E-006  0.8451401E+02  0.7561462E-02  0.1316708E+00
         -2   -1    0    0    0  501 -0.00000000000E+00  0.00000000000E+00  0.30652740586E+02  0.30652740586E+02  0.00000000000E+00 0.  1.
          2   -1    0    0  501    0  0.00000000000E+00 -0.00000000000E+00 -0.56885939711E+03  0.56885939711E+03  0.00000000000E+00 0. -1.
         23    2    1    2    0    0  0.29649673430E+02 -0.48071157428E+02 -0.14477189902E+03  0.18282339622E+03  0.96309668001E+02 0.  0.
         23    2    1    2    0    0 -0.29649673430E+02  0.48071157428E+02 -0.39343475751E+03  0.41668874148E+03  0.12509460238E+03 0.  0.
          5    1    4    4  502    0 -0.19614063856E+02  0.22970145442E+02 -0.38750043032E+03  0.38869833417E+03  0.41800000000E+01 0. -1.
         -5    1    4    4    0  502 -0.10035609574E+02  0.25101011986E+02 -0.59343271856E+01  0.27990407310E+02  0.41800000000E+01 0. -1.
        -11    1    3    3    0    0  0.59412053799E+02 -0.54623082624E+02 -0.11228186262E+03  0.13827758302E+03  0.00000000000E+00 0.  1.
         11    1    3    3    0    0 -0.29762380368E+02  0.65519251962E+01 -0.32490036392E+02  0.44545813201E+02  0.00000000000E+00 0. -1.
</event>
<event>
 8    1  0.5900800E-006  0.8880852E+02  0.7561462E-02  0.1305763E+00
         -1   -1    0    0    0  501 -0.00000000000E+00  0.00000000000E+00  0.17994645071E+03  0.17994645071E+03  0.00000000000E+00 0.  1.
          1   -1    0    0  501    0  0.00000000000E+00 -0.00000000000E+00 -0.80017133597E+02  0.80017133597E+02  0.00000000000E+00 0. -1.
         23    2    1    2    0    0 -0.43743533807E+02  0.26723253578E+02  0.31211514812E+02  0.10831582217E+03  0.90169449610E+02 0.  0.
         23    2    1    2    0    0  0.43743533807E+02 -0.26723253578E+02  0.68717802299E+02  0.15164776214E+03  0.12508908177E+03 0.  0.
          5    1    4    4  502    0  0.83069408618E+02 -0.23566890348E+02  0.19841506833E+02  0.88696576948E+02  0.41800000000E+01 0.  1.
         -5    1    4    4    0  502 -0.39325874811E+02 -0.31563632303E+01  0.48876295466E+02  0.62951185191E+02  0.41800000000E+01 0.  1.
        -11    1    3    3    0    0 -0.31336414285E+02  0.16478584468E+02 -0.29140977739E+02  0.45855328915E+02  0.00000000000E+00 0. -1.
         11    1    3    3    0    0 -0.12407119522E+02  0.10244669111E+02  0.60352492551E+02  0.62460493251E+02  0.00000000000E+00 0.  1.
</event>
<event>
 8    1  0.5900800E-006  0.1757008E+03  0.7561462E-02  0.1172030E+00
         -2   -1    0    0    0  501 -0.00000000000E+00  0.00000000000E+00  0.30596821194E+02  0.30596821194E+02  0.00000000000E+00 0.  1.
          2   -1    0    0  501    0  0.00000000000E+00 -0.00000000000E+00 -0.15539053280E+04  0.15539053280E+04  0.00000000000E+00 0. -1.
         23    2    1    2    0    0  0.56058093193E+02 -0.15740004484E+03 -0.41056313728E+03  0.45235087993E+03  0.90232726612E+02 0.  0.
         23    2    1    2    0    0 -0.56058093193E+02  0.15740004484E+03 -0.11127453695E+04  0.11321512692E+04  0.12508778982E+03 0.  0.
          5    1    4    4  502    0 -0.32048687752E+02  0.41471736003E+02 -0.10461357625E+03  0.11708328664E+03  0.41800000000E+01 0. -1.
         -5    1    4    4    0  502 -0.24009405442E+02  0.11592830884E+03 -0.10081317932E+04  0.10150679826E+04  0.41800000000E+01 0. -1.
        -11    1    3    3    0    0  0.10933263426E+02 -0.12334281184E+03 -0.20820940711E+03  0.24224810152E+03  0.00000000000E+00 0. -1.
         11    1    3    3    0    0  0.45124829767E+02 -0.34057233002E+02 -0.20235373017E+03  0.21010277841E+03  0.00000000000E+00 0.  1.
</event>
<event>
 8    1  0.5900800E-006  0.8472519E+02  0.7561462E-02  0.1316153E+00
          1   -1    0    0  501    0  0.00000000000E+00  0.00000000000E+00  0.36870856602E+03  0.36870856602E+03  0.00000000000E+00 0. -1.
         -1   -1    0    0    0  501 -0.00000000000E+00 -0.00000000000E+00 -0.50427041271E+02  0.50427041271E+02  0.00000000000E+00 0.  1.
         23    2    1    2    0    0  0.21828297345E+02  0.17250775387E+02  0.25433245164E+02  0.99476885692E+02  0.92058334826E+02 0.  0.
         23    2    1    2    0    0 -0.21828297345E+02 -0.17250775387E+02  0.29284827958E+03  0.31965872160E+03  0.12509004605E+03 0.  0.
          5    1    4    4  502    0  0.41991227193E+02 -0.29788080512E+02  0.19765311589E+03  0.20429101675E+03  0.41800000000E+01 0. -1.
         -5    1    4    4    0  502 -0.63819524538E+02  0.12537305125E+02  0.95195163692E+02  0.11536770485E+03  0.41800000000E+01 0. -1.
        -11    1    3    3    0    0  0.26128066397E+02 -0.77519564765E+01 -0.28770598372E+02  0.39629736481E+02  0.00000000000E+00 0.  1.
         11    1    3    3    0    0 -0.42997690525E+01  0.25002731864E+02  0.54203843536E+02  0.59847149211E+02  0.00000000000E+00 0. -1.
</event>
<event>
 8    1  0.5900800E-006  0.1147330E+03  0.7561462E-02  0.1252048E+00
          2   -1    0    0  501    0  0.00000000000E+00  0.00000000000E+00  0.92428941790E+03  0.92428941790E+03  0.00000000000E+00 0. -1.
         -2   -1    0    0    0  501 -0.00000000000E+00 -0.00000000000E+00 -0.20336553188E+02  0.20336553188E+02  0.00000000000E+00 0.  1.
         23    2    1    2    0    0  0.12039497806E+02 -0.82201809544E+02  0.36676328135E+03  0.38684228968E+03  0.90716952844E+02 0.  0.
         23    2    1    2    0    0 -0.12039497806E+02  0.82201809544E+02  0.53718958336E+03  0.55778368141E+03  0.12509156558E+03 0.  0.
          5    1    4    4  502    0  0.40838340468E+02  0.20506390058E+02  0.35871500740E+03  0.36163823224E+03  0.41800000000E+01 0.  1.
         -5    1    4    4    0  502 -0.52877838275E+02  0.61695419486E+02  0.17847457596E+03  0.19614544917E+03  0.41800000000E+01 0.  1.
        -11    1    3    3    0    0 -0.22023433073E+02 -0.52832463042E+02  0.30564755404E+03  0.31096097512E+03  0.00000000000E+00 0.  1.
         11    1    3    3    0    0  0.34062930880E+02 -0.29369346503E+02  0.61115727311E+02  0.75881314557E+02  0.00000000000E+00 0. -1.
</event>
<event>
 8    1  0.5900800E-006  0.9104337E+02  0.7561462E-02  0.1300345E+00
         -3   -1    0    0    0  501 -0.00000000000E+00  0.00000000000E+00  0.10170845011E+03  0.10170845011E+03  0.00000000000E+00 0.  1.
          3   -1    0    0  501    0  0.00000000000E+00 -0.00000000000E+00 -0.19227478984E+03  0.19227478984E+03  0.00000000000E+00 0. -1.
         23    2    1    2    0    0 -0.37350684279E+02 -0.55214516476E+02  0.16599121150E+02  0.11628734278E+03  0.93826962132E+02 0.  0.
         23    2    1    2    0    0  0.37350684279E+02  0.55214516476E+02 -0.10716546087E+03  0.17769589717E+03  0.12509068479E+03 0.  0.
          5    1    4    4  502    0 -0.84269871091E+01  0.11043023217E+02  0.26159910155E+02  0.29912802824E+02  0.41800000000E+01 0. -1.
         -5    1    4    4    0  502  0.45777671388E+02  0.44171493260E+02 -0.13332537103E+03  0.14778309435E+03  0.41800000000E+01 0. -1.
        -11    1    3    3    0    0 -0.11253648887E+02 -0.71951627899E+02 -0.12354470296E+02  0.73866868804E+02  0.00000000000E+00 0.  1.
         11    1    3    3    0    0 -0.26097035392E+02  0.16737111423E+02  0.28953591446E+02  0.42420473980E+02  0.00000000000E+00 0. -1.
</event>
<event>
 8    1  0.5900800E-006  0.9415484E+02  0.7561462E-02  0.1293091E+00
         -2   -1    0    0    0  501 -0.00000000000E+00  0.00000000000E+00  0.95960386449E+02  0.95960386449E+02  0.00000000000E+00 0.  1.
          2   -1    0    0  501    0  0.00000000000E+00 -0.00000000000E+00 -0.28617393569E+03  0.28617393569E+03  0.00000000000E+00 0. -1.
         23    2    1    2    0    0  0.33864658018E+01 -0.79950249579E+02  0.21951517195E+02  0.12316681927E+03  0.91020248861E+02 0.  0.
         23    2    1    2    0    0 -0.33864658018E+01  0.79950249579E+02 -0.21216506643E+03  0.25896750287E+03  0.12508653632E+03 0.  0.
          5    1    4    4  502    0 -0.14702823739E+02  0.27834464679E+02 -0.20204447208E+03  0.20452474557E+03  0.41800000000E+01 0. -1.
         -5    1    4    4    0  502  0.11316357937E+02  0.52115784900E+02 -0.10120594350E+02  0.54442757302E+02  0.41800000000E+01 0. -1.
        -11    1    3    3    0    0 -0.46254214864E+01  0.10908802271E+02  0.29354086384E+02  0.31655313588E+02  0.00000000000E+00 0.  1.
         11    1    3    3    0    0  0.80118872882E+01 -0.90859051850E+02 -0.74025691886E+01  0.91511505678E+02  0.00000000000E+00 0. -1.
</event>
<event>
 8    1  0.5900800E-006  0.8401252E+02  0.7561462E-02  0.1318035E+00
         -1   -1    0    0    0  501 -0.00000000000E+00  0.00000000000E+00  0.45250705729E+02  0.45250705729E+02  0.00000000000E+00 0.  1.
          1   -1    0    0  501    0  0.00000000000E+00 -0.00000000000E+00 -0.26899073147E+03  0.26899073147E+03  0.00000000000E+00 0. -1.
         23    2    1    2    0    0 -0.20877505890E+02  0.97802611659E+01 -0.78095805714E+02  0.12087176954E+03  0.89328080925E+02 0.  0.
         23    2    1    2    0    0  0.20877505890E+02 -0.97802611659E+01 -0.14564422002E+03  0.19336966765E+03  0.12509222910E+03 0.  0.
          5    1    4    4  502    0  0.51643193896E+02  0.32565759986E+02 -0.34032313127E+02  0.70022988625E+02  0.41800000000E+01 0.  1.
         -5    1    4    4    0  502 -0.30765688006E+02 -0.42346021152E+02 -0.11161190690E+03  0.12334667903E+03  0.41800000000E+01 0.  1.
        -11    1    3    3    0    0 -0.44334633696E+01  0.28821534749E+02  0.87580960067E+01  0.30447343207E+02  0.00000000000E+00 0.  1.
         11    1    3    3    0    0 -0.16444042520E+02 -0.19041273583E+02 -0.86853901720E+02  0.90424426336E+02  0.00000000000E+00 0. -1.
</event>
<event>
 8    1  0.5900800E-006  0.1027566E+03  0.7561462E-02  0.1274604E+00
         -2   -1    0    0    0  501 -0.00000000000E+00  0.00000000000E+00  0.18510308927E+02  0.18510308927E+02  0.00000000000E+00 0.  1.
          2   -1    0    0  501    0  0.00000000000E+00 -0.00000000000E+00 -0.13210292221E+04  0.13210292221E+04  0.00000000000E+00 0. -1.
         23    2    1    2    0    0  0.42797363614E+02 -0.41075800295E+02 -0.19710391502E+03  0.22548684864E+03  0.92062641135E+02 0.  0.
         23    2    1    2    0    0 -0.42797363614E+02  0.41075800295E+02 -0.11054149981E+04  0.11140526824E+04  0.12510885372E+03 0.  0.
          5    1    4    4  502    0 -0.55016105721E+02 -0.15018305758E+01 -0.19804868026E+03  0.20559615642E+03  0.41800000000E+01 0. -1.
         -5    1    4    4    0  502  0.12218742107E+02  0.42577630871E+02 -0.90736631787E+03  0.90845652594E+03  0.41800000000E+01 0. -1.
        -11    1    3    3    0    0  0.34805020198E+02 -0.68729344088E+02 -0.16657343498E+03  0.18352607828E+03  0.00000000000E+00 0. -1.
         11    1    3    3    0    0  0.79923434160E+01  0.27653543792E+02 -0.30530480039E+02  0.41960770357E+02  0.00000000000E+00 0.  1.
</event>
<event>
 8    1  0.5900800E-006  0.1232434E+03  0.7561462E-02  0.1237840E+00
         -2   -1    0    0    0  501 -0.00000000000E+00  0.00000000000E+00  0.24531374484E+02  0.24531374484E+02  0.00000000000E+00 0.  1.
          2   -1    0    0  501    0  0.00000000000E+00 -0.00000000000E+00 -0.11729268129E+04  0.11729268129E+04  0.00000000000E+00 0. -1.
         23    2    1    2    0    0  0.48913684799E+02  0.83526976782E+02 -0.23368341364E+03  0.26917253801E+03  0.92068523371E+02 0.  0.
         23    2    1    2    0    0 -0.48913684799E+02 -0.83526976782E+02 -0.91471202477E+03  0.92828564937E+03  0.12508738609E+03 0.  0.
          5    1    4    4  502    0 -0.18504644618E+02  0.55725228533E+01 -0.18324488380E+02  0.26958007304E+02  0.41800000000E+01 0. -1.
         -5    1    4    4    0  502 -0.30409040181E+02 -0.89099499636E+02 -0.89638753639E+03  0.90132764207E+03  0.41800000000E+01 0. -1.
        -11    1    3    3    0    0  0.45561414274E+02 -0.32098255463E+01 -0.64677136132E+02  0.79178768549E+02  0.00000000000E+00 0.  1.
         11    1    3    3    0    0  0.33522705252E+01  0.86736802329E+02 -0.16900627751E+03  0.18999376946E+03  0.00000000000E+00 0. -1.
</event>
<event>
 8    1  0.5900800E-006  0.1240181E+03  0.7561462E-02  0.1236612E+00
          2   -1    0    0  501    0  0.00000000000E+00  0.00000000000E+00  0.15707218407E+03  0.15707218407E+03  0.00000000000E+00 0. -1.
         -2   -1    0    0    0  501 -0.00000000000E+00 -0.00000000000E+00 -0.13285873321E+03  0.13285873321E+03  0.00000000000E+00 0.  1.
         23    2    1    2    0    0 -0.47232253651E+02  0.78036465099E+02 -0.16269723276E+02  0.12990830957E+03  0.91054320758E+02 0.  0.
         23    2    1    2    0    0  0.47232253651E+02 -0.78036465099E+02  0.40483174136E+02  0.16002260772E+03  0.12509105453E+03 0.  0.
          5    1    4    4  502    0  0.32839981339E+00  0.32137288115E+02  0.21039416441E+02  0.38639909135E+02  0.41800000000E+01 0. -1.
         -5    1    4    4    0  502  0.46903853838E+02 -0.11017375321E+03  0.19443757695E+02  0.12138269858E+03  0.41800000000E+01 0. -1.
        -11    1    3    3    0    0 -0.95957701442E+01  0.44106631239E+02  0.35530382826E+02  0.57444597898E+02  0.00000000000E+00 0. -1.
         11    1    3    3    0    0 -0.37636483507E+02  0.33929833860E+02 -0.51800106102E+02  0.72463711668E+02  0.00000000000E+00 0.  1.
</event>
<event>
 8    1  0.5900800E-006  0.9987754E+02  0.7561462E-02  0.1280554E+00
         -1   -1    0    0    0  501 -0.00000000000E+00  0.00000000000E+00  0.28926551811E+02  0.28926551811E+02  0.00000000000E+00 0.  1.
          1   -1    0    0  501    0  0.00000000000E+00 -0.00000000000E+00 -0.90710878636E+03  0.90710878636E+03  0.00000000000E+00 0. -1.
         23    2    1    2    0    0 -0.79337149106E+02 -0.14596862988E+02 -0.15404248538E+03  0.19675655245E+03  0.92068463628E+02 0.  0.
         23    2    1    2    0    0  0.79337149106E+02  0.14596862988E+02 -0.72413974917E+03  0.73927878572E+03  0.12508914838E+03 0.  0.
          5    1    4    4  502    0  0.27184155986E+01  0.27202885239E+02 -0.30022004311E+02  0.40818866858E+02  0.41800000000E+01 0.  1.
         -5    1    4    4    0  502  0.76618733508E+02 -0.12606022251E+02 -0.69411774486E+03  0.69845991886E+03  0.41800000000E+01 0.  1.
        -11    1    3    3    0    0 -0.61052185653E+01  0.14348131096E+02  0.73047309077E+01  0.17219223365E+02  0.00000000000E+00 0.  1.
         11    1    3    3    0    0 -0.73231930541E+02 -0.28944994084E+02 -0.16134721628E+03  0.17953732909E+03  0.00000000000E+00 0. -1.
</event>
<event>
 8    1  0.5900800E-006  0.1047388E+03  0.7561462E-02  0.1270635E+00
         -1   -1    0    0    0  501 -0.00000000000E+00  0.00000000000E+00  0.25749275175E+03  0.25749275175E+03  0.00000000000E+00 0.  1.
          1   -1    0    0  501    0  0.00000000000E+00 -0.00000000000E+00 -0.66563712316E+02  0.66563712316E+02  0.00000000000E+00 0. -1.
         23    2    1    2    0    0 -0.29437961535E+02 -0.65859567307E+02  0.95229391671E+02  0.15082199015E+03  0.92057370643E+02 0.  0.
         23    2    1    2    0    0  0.29437961535E+02  0.65859567307E+02  0.95699647767E+02  0.17323447392E+03  0.12509070384E+03 0.  0.
          5    1    4    4  502    0  0.46422825188E+02  0.40536194355E+02  0.11937125244E+03  0.13440695689E+03  0.41800000000E+01 0. -1.
         -5    1    4    4    0  502 -0.16984863653E+02  0.25323372952E+02 -0.23671604673E+02  0.38827517031E+02  0.41800000000E+01 0. -1.
        -11    1    3    3    0    0 -0.19754373745E+01 -0.83995239207E+02  0.66963327481E+02  0.10743923766E+03  0.00000000000E+00 0. -1.
         11    1    3    3    0    0 -0.27462524161E+02  0.18135671900E+02  0.28266064191E+02  0.43382752488E+02  0.00000000000E+00 0.  1.
</event>
<event>
 8    1  0.5900800E-006  0.1452033E+03  0.7561462E-02  0.1206494E+00
         -2   -1    0    0    0  501 -0.00000000000E+00  0.00000000000E+00  0.13506202330E+02  0.13506202330E+02  0.00000000000E+00 0.  1.
          2   -1    0    0  501    0  0.00000000000E+00 -0.00000000000E+00 -0.26462602060E+04  0.26462602060E+04  0.00000000000E+00 0. -1.
         23    2    1    2    0    0  0.38030344052E+02 -0.13145820998E+03 -0.74277510117E+03  0.76071438020E+03  0.90796196362E+02 0.  0.
         23    2    1    2    0    0 -0.38030344052E+02  0.13145820998E+03 -0.18899789025E+04  0.18990520281E+04  0.12510310005E+03 0.  0.
          5    1    4    4  502    0 -0.43867715335E+02  0.87851434517E+02 -0.17380311023E+04  0.17408078113E+04  0.41800000000E+01 0. -1.
         -5    1    4    4    0  502  0.58373712829E+01  0.43606775461E+02 -0.15194780014E+03  0.15824421675E+03  0.41800000000E+01 0. -1.
        -11    1    3    3    0    0 -0.12850208808E+02 -0.10126876794E+02 -0.18979117634E+02  0.25057701534E+02  0.00000000000E+00 0.  1.
         11    1    3    3    0    0  0.50880552860E+02 -0.12133133318E+03 -0.72379598354E+03  0.73565667866E+03  0.00000000000E+00 0. -1.
</event>
<event>
 8    1  0.5900800E-006  0.8808331E+02  0.7561462E-02  0.1307561E+00
         -1   -1    0    0    0  501 -0.00000000000E+00  0.00000000000E+00  0.26287958000E+02  0.26287958000E+02  0.00000000000E+00 0.  1.
          1   -1    0    0  501    0  0.00000000000E+00 -0.00000000000E+00 -0.47034186573E+03  0.47034186573E+03  0.00000000000E+00 0. -1.
         23    2    1    2    0    0 -0.14141104674E+01 -0.42283394258E+01 -0.12557001607E+03  0.15443197115E+03  0.89786002346E+02 0.  0.
         23    2    1    2    0    0  0.14141104674E+01  0.42283394258E+01 -0.31848389166E+03  0.34219785258E+03  0.12508997760E+03 0.  0.
          5    1    4    4  502    0  0.36771414927E+02  0.26364367742E+02 -0.28484555263E+03  0.28844701090E+03  0.41800000000E+01 0. -1.
         -5    1    4    4    0  502 -0.35357304459E+02 -0.22136028316E+02 -0.33638339035E+02  0.53750841679E+02  0.41800000000E+01 0. -1.
        -11    1    3    3    0    0 -0.39938731972E+02  0.18563498087E+02 -0.74291269589E+02  0.86364914809E+02  0.00000000000E+00 0. -1.
         11    1    3    3    0    0  0.38524621505E+02 -0.22791837513E+02 -0.51278746477E+02  0.68067056346E+02  0.00000000000E+00 0.  1.
</event>
<event>
 8    1  0.5900800E-006  0.5374883E+02  0.7561462E-02  0.1426110E+00
          1   -1    0    0  501    0  0.00000000000E+00  0.00000000000E+00  0.38375031584E+02  0.38375031584E+02  0.00000000000E+00 0. -1.
         -1   -1    0    0    0  501 -0.00000000000E+00 -0.00000000000E+00 -0.31602730265E+03  0.31602730265E+03  0.00000000000E+00 0.  1.
         23    2    1    2    0    0  0.11940086315E+00 -0.25103145255E+02 -0.12569304010E+03  0.15598596289E+03  0.88897121061E+02 0.  0.
         23    2    1    2    0    0 -0.11940086315E+00  0.25103145255E+02 -0.15195923097E+03  0.19841637134E+03  0.12508903382E+03 0.  0.
          5    1    4    4  502    0 -0.62767416774E+01  0.36530900092E+02 -0.17098580128E+03  0.17500720210E+03  0.41800000000E+01 0. -1.
         -5    1    4    4    0  502  0.61573408143E+01 -0.11427754836E+02  0.19026570313E+02  0.23409169238E+02  0.41800000000E+01 0. -1.
        -11    1    3    3    0    0 -0.12484202509E+02 -0.37108849526E+02 -0.13183626560E+03  0.13752717169E+03  0.00000000000E+00 0.  1.
         11    1    3    3    0    0  0.12603603373E+02  0.12005704271E+02  0.61432255066E+01  0.18458791202E+02  0.00000000000E+00 0. -1.
</event>
<event>
 8    1  0.5900800E-006  0.8092880E+02  0.7561462E-02  0.1326436E+00
          1   -1    0    0  501    0  0.00000000000E+00  0.00000000000E+00  0.66390100802E+03  0.66390100802E+03  0.00000000000E+00 0. -1.
         -1   -1    0    0    0  501 -0.00000000000E+00 -0.00000000000E+00 -0.19399733241E+02  0.19399733241E+02  0.00000000000E+00 0.  1.
         23    2    1    2    0    0 -0.18024471087E+01  0.26900100907E+02  0.20802197599E+03  0.22845089609E+03  0.90497542414E+02 0.  0.
         23    2    1    2    0    0  0.18024471087E+01 -0.26900100907E+02  0.43647929878E+03  0.45484984517E+03  0.12508932465E+03 0.  0.
          5    1    4    4  502    0 -0.26897983950E+02  0.75612508539E+01  0.17026400490E+02  0.32985523623E+02  0.41800000000E+01 0.  1.
         -5    1    4    4    0  502  0.28700431058E+02 -0.34461351761E+02  0.41945289829E+03  0.42186432155E+03  0.41800000000E+01 0.  1.
        -11    1    3    3    0    0  0.74373930818E+01  0.56791961682E+02  0.16895506108E+03  0.17839970401E+03  0.00000000000E+00 0. -1.
         11    1    3    3    0    0 -0.92398401905E+01 -0.29891860775E+02  0.39066914917E+02  0.50051192078E+02  0.00000000000E+00 0.  1.
</event>
<event>
 8    1  0.5900800E-006  0.2503979E+03  0.7561462E-02  0.1113054E+00
         -2   -1    0    0    0  501 -0.00000000000E+00  0.00000000000E+00  0.38206020905E+02  0.38206020905E+02  0.00000000000E+00 0. -1.
          2   -1    0    0  501    0  0.00000000000E+00 -0.00000000000E+00 -0.23329937972E+04  0.23329937972E+04  0.00000000000E+00 0.  1.
         23    2    1    2    0    0 -0.22098398027E+03  0.64906259485E+02 -0.50612190020E+03  0.56343312212E+03  0.90833711720E+02 0.  0.
         23    2    1    2    0    0  0.22098398027E+03 -0.64906259485E+02 -0.17886658761E+04  0.18077666960E+04  0.12509224096E+03 0.  0.
          5    1    4    4  502    0  0.19151355454E+03 -0.99874176949E+02 -0.14516679985E+04  0.14676545040E+04  0.41800000000E+01 0.  1.
         -5    1    4    4    0  502  0.29470425726E+02  0.34967917464E+02 -0.33699787759E+03  0.34011219200E+03  0.41800000000E+01 0.  1.
        -11    1    3    3    0    0 -0.59138565304E+02  0.47905456732E+02 -0.23714448863E+03  0.24905784705E+03  0.00000000000E+00 0.  1.
         11    1    3    3    0    0 -0.16184541496E+03  0.17000802753E+02 -0.26897741157E+03  0.31437527507E+03  0.00000000000E+00 0. -1.
</event>
<event>
 8    1  0.5900800E-006  0.7286442E+02  0.7561462E-02  0.1350615E+00
          2   -1    0    0  501    0  0.00000000000E+00  0.00000000000E+00  0.56858918360E+03  0.56858918360E+03  0.00000000000E+00 0. -1.
         -2   -1    0    0    0  501 -0.00000000000E+00 -0.00000000000E+00 -0.25069812723E+02  0.25069812723E+02  0.00000000000E+00 0.  1.
         23    2    1    2    0    0  0.20399012225E+02  0.46902346792E+02  0.23787405661E+03  0.25946914421E+03  0.90134455980E+02 0.  0.
         23    2    1    2    0    0 -0.20399012225E+02 -0.46902346792E+02  0.30564531428E+03  0.33418985212E+03  0.12509136376E+03 0.  0.
          5    1    4    4  502    0 -0.22582154736E+02 -0.19633473291E+02  0.30501624645E+03  0.30650906999E+03  0.41800000000E+01 0. -1.
         -5    1    4    4    0  502  0.21831425112E+01 -0.27268873501E+02  0.62906782619E+00  0.27680782134E+02  0.41800000000E+01 0. -1.
        -11    1    3    3    0    0 -0.21045523429E+02  0.40855779323E+02  0.54112098134E+02  0.70994562644E+02  0.00000000000E+00 0.  1.
         11    1    3    3    0    0  0.41444535654E+02  0.60465674685E+01  0.18376195847E+03  0.18847458156E+03  0.00000000000E+00 0. -1.
</event>
<event>
 8    1  0.5900800E-006  0.1005455E+03  0.7561462E-02  0.1279153E+00
          2   -1    0    0  501    0  0.00000000000E+00  0.00000000000E+00  0.36445789567E+03  0.36445789567E+03  0.00000000000E+00 0. -1.
         -2   -1    0    0    0  501 -0.00000000000E+00 -0.00000000000E+00 -0.84782169277E+02  0.84782169277E+02  0.00000000000E+00 0.  1.
         23    2    1    2    0    0 -0.38640143011E+01 -0.99784610758E+02  0.10860011717E+02  0.13638074444E+03  0.92248948230E+02 0.  0.
         23    2    1    2    0    0  0.38640143011E+01  0.99784610758E+02  0.26881571468E+03  0.31285932051E+03  0.12508863585E+03 0.  0.
          5    1    4    4  502    0 -0.46843301197E+01  0.59792002214E+02  0.24192049590E+02  0.64805510111E+02  0.41800000000E+01 0. -1.
         -5    1    4    4    0  502  0.85483444208E+01  0.39992608545E+02  0.24462366509E+03  0.24805381040E+03  0.41800000000E+01 0. -1.
        -11    1    3    3    0    0 -0.24251173894E+01 -0.69896786213E+02 -0.37616407397E+02  0.79413072115E+02  0.00000000000E+00 0.  1.
         11    1    3    3    0    0 -0.14388969117E+01 -0.29887824545E+02  0.48476419114E+02  0.56967672328E+02  0.00000000000E+00 0. -1.
</event>
<event>
 8    1  0.5900800E-006  0.1188847E+03  0.7561462E-02  0.1244948E+00
         -2   -1    0    0    0  501 -0.00000000000E+00  0.00000000000E+00  0.22626167681E+02  0.22626167681E+02  0.00000000000E+00 0. -1.
          2   -1    0    0  501    0  0.00000000000E+00 -0.00000000000E+00 -0.84170050546E+03  0.84170050546E+03  0.00000000000E+00 0.  1.
         23    2    1    2    0    0  0.62645035941E+02  0.29533043692E+02 -0.20733671491E+03  0.23610127908E+03  0.89211543167E+02 0.  0.
         23    2    1    2    0    0 -0.62645035941E+02 -0.29533043692E+02 -0.61173762287E+03  0.62822539407E+03  0.12509046852E+03 0.  0.
          5    1    4    4  502    0 -0.60038223208E+02 -0.74194768258E+02 -0.46708021639E+03  0.47675030448E+03  0.41800000000E+01 0. -1.
         -5    1    4    4    0  502 -0.26068127330E+01  0.44661724567E+02 -0.14465740648E+03  0.15147508958E+03  0.41800000000E+01 0. -1.
        -11    1    3    3    0    0  0.77650702915E+02  0.25977552714E+02 -0.20468341666E+03  0.22045354605E+03  0.00000000000E+00 0.  1.
         11    1    3    3    0    0 -0.15005666973E+02  0.35554909780E+01 -0.26532982486E+01  0.15647733031E+02  0.00000000000E+00 0. -1.
</event>
<event>
 8    1  0.5900800E-006  0.1839451E+03  0.7561462E-02  0.1164039E+00
         -3   -1    0    0    0  501 -0.00000000000E+00  0.00000000000E+00  0.93355935021E+02  0.93355935021E+02  0.00000000000E+00 0.  1.
          3   -1    0    0  501    0  0.00000000000E+00 -0.00000000000E+00 -0.38542375395E+03  0.38542375395E+03  0.00000000000E+00 0. -1.
         23    2    1    2    0    0  0.10565831837E+03  0.10549601733E+03 -0.79683303083E+02  0.19060113874E+03  0.87671405741E+02 0.  0.
         23    2    1    2    0    0 -0.10565831837E+03 -0.10549601733E+03 -0.21238451585E+03  0.28817855024E+03  0.12508638747E+03 0.  0.
          5    1    4    4  502    0  0.22597540089E+02 -0.49859012168E+02 -0.58275562187E+02  0.80062996825E+02  0.41800000000E+01 0.  1.
         -5    1    4    4    0  502 -0.12825585846E+03 -0.55637005165E+02 -0.15410895366E+03  0.20811555341E+03  0.41800000000E+01 0.  1.
        -11    1    3    3    0    0  0.98201723926E+01  0.70369216554E+02 -0.31221776288E+02  0.77608387040E+02  0.00000000000E+00 0. -1.
         11    1    3    3    0    0  0.95838145977E+02  0.35126800778E+02 -0.48461526795E+02  0.11299275170E+03  0.00000000000E+00 0.  1.
</event>
<event>
 8    1  0.5900800E-006  0.1485282E+03  0.7561462E-02  0.1202293E+00
         -2   -1    0    0    0  501 -0.00000000000E+00  0.00000000000E+00  0.28200047311E+02  0.28200047311E+02  0.00000000000E+00 0.  1.
          2   -1    0    0  501    0  0.00000000000E+00 -0.00000000000E+00 -0.89242245682E+03  0.89242245682E+03  0.00000000000E+00 0. -1.
         23    2    1    2    0    0  0.87510170200E+02 -0.73917599147E+02 -0.38643874720E+03  0.41362800131E+03  0.92905203206E+02 0.  0.
         23    2    1    2    0    0 -0.87510170200E+02  0.73917599147E+02 -0.47778366231E+03  0.50699450282E+03  0.12507740229E+03 0.  0.
          5    1    4    4  502    0  0.40823294357E+01  0.62559861177E+02 -0.10018692231E+03  0.11825943280E+03  0.41800000000E+01 0. -1.
         -5    1    4    4    0  502 -0.91592499635E+02  0.11357737969E+02 -0.37759674001E+03  0.38873507002E+03  0.41800000000E+01 0. -1.
        -11    1    3    3    0    0  0.85229719613E+02 -0.19579460838E+02 -0.17960381391E+03  0.19976233469E+03  0.00000000000E+00 0.  1.
         11    1    3    3    0    0  0.22804505870E+01 -0.54338138309E+02 -0.20683493329E+03  0.21386566662E+03  0.00000000000E+00 0. -1.
</event>
<event>
 8    1  0.5900800E-006  0.1086055E+03  0.7561462E-02  0.1263174E+00
          2   -1    0    0  501    0  0.00000000000E+00  0.00000000000E+00  0.61647203298E+03  0.61647203298E+03  0.00000000000E+00 0. -1.
         -2   -1    0    0    0  501 -0.00000000000E+00 -0.00000000000E+00 -0.23000600869E+02  0.23000600869E+02  0.00000000000E+00 0.  1.
         23    2    1    2    0    0  0.20522270872E+02  0.44200594107E+02  0.27055902765E+03  0.28976698220E+03  0.91585263073E+02 0.  0.
         23    2    1    2    0    0 -0.20522270872E+02 -0.44200594107E+02  0.32291240446E+03  0.34970565164E+03  0.12508703256E+03 0.  0.
          5    1    4    4  502    0  0.21105093682E+02  0.32797645637E+02  0.15980778189E+03  0.16455123849E+03  0.41800000000E+01 0. -1.
         -5    1    4    4    0  502 -0.41627364553E+02 -0.76998239743E+02  0.16310462257E+03  0.18515441315E+03  0.41800000000E+01 0. -1.
        -11    1    3    3    0    0  0.48439668707E+02  0.38468161342E+02  0.24057242805E+03  0.24839745183E+03  0.00000000000E+00 0. -1.
         11    1    3    3    0    0 -0.27917397835E+02  0.57324327643E+01  0.29986599601E+02  0.41369530369E+02  0.00000000000E+00 0.  1.
</event>
<event>
 8    1  0.5900800E-006  0.1244481E+03  0.7561462E-02  0.1235934E+00
         -2   -1    0    0    0  501 -0.00000000000E+00  0.00000000000E+00  0.19495375439E+02  0.19495375439E+02  0.00000000000E+00 0. -1.
          2   -1    0    0  501    0  0.00000000000E+00 -0.00000000000E+00 -0.83170593271E+03  0.83170593271E+03  0.00000000000E+00 0.  1.
         23    2    1    2    0    0  0.61521513941E+02 -0.16725464164E+02 -0.29855766271E+03  0.31870409362E+03  0.91493078954E+02 0.  0.
         23    2    1    2    0    0 -0.61521513941E+02  0.16725464164E+02 -0.51365289457E+03  0.53249721454E+03  0.12509736034E+03 0.  0.
          5    1    4    4  502    0  0.25767230609E+00  0.62140164644E+02 -0.26698394192E+03  0.27415208206E+03  0.41800000000E+01 0.  1.
         -5    1    4    4    0  502 -0.61779186247E+02 -0.45414700480E+02 -0.24666895265E+03  0.25834513248E+03  0.41800000000E+01 0.  1.
        -11    1    3    3    0    0  0.84532374671E+02 -0.19189350429E+02 -0.21033845648E+03  0.22749993365E+03  0.00000000000E+00 0.  1.
         11    1    3    3    0    0 -0.23010860730E+02  0.24638862649E+01 -0.88219206231E+02  0.91204159966E+02  0.00000000000E+00 0. -1.
</event>
<event>
 8    1  0.5900800E-006  0.3071018E+03  0.7561462E-02  0.1081743E+00
         -3   -1    0    0    0  501 -0.00000000000E+00  0.00000000000E+00  0.38273238629E+03  0.38273238629E+03  0.00000000000E+00 0.  1.
          3   -1    0    0  501    0  0.00000000000E+00 -0.00000000000E+00 -0.31775614196E+03  0.31775614196E+03  0.00000000000E+00 0. -1.
         23    2    1    2    0    0  0.26515499391E+03  0.11828136095E+03  0.19221395973E+03  0.35970317011E+03  0.90235874968E+02 0.  0.
         23    2    1    2    0    0 -0.26515499391E+03 -0.11828136095E+03 -0.12723771540E+03  0.34078535814E+03  0.12509025925E+03 0.  0.
          5    1    4    4  502    0 -0.95354470373E+02  0.13824140089E+02 -0.13454744756E+02  0.97375995121E+02  0.41800000000E+01 0.  1.
         -5    1    4    4    0  502 -0.16980052354E+03 -0.13210550104E+03 -0.11378297064E+03  0.24340936302E+03  0.41800000000E+01 0.  1.
        -11    1    3    3    0    0  0.20499106394E+03  0.48886730551E+02  0.11732962030E+03  0.24120010058E+03  0.00000000000E+00 0.  1.
         11    1    3    3    0    0  0.60163929973E+02  0.69394630397E+02  0.74884339432E+02  0.11850306954E+03  0.00000000000E+00 0. -1.
</event>
<event>
 8    1  0.5900800E-006  0.1126635E+03  0.7561462E-02  0.1255715E+00
          1   -1    0    0  501    0  0.00000000000E+00  0.00000000000E+00  0.14207790687E+03  0.14207790687E+03  0.00000000000E+00 0. -1.
         -1   -1    0    0    0  501 -0.00000000000E+00 -0.00000000000E+00 -0.14807395959E+03  0.14807395959E+03  0.00000000000E+00 0.  1.
         23    2    1    2    0    0 -0.19231135820E+02  0.64620457381E+02 -0.70933363059E+02  0.13391211519E+03  0.91407179711E+02 0.  0.
         23    2    1    2    0    0  0.19231135820E+02 -0.64620457381E+02  0.64937310339E+02  0.15623975128E+03  0.12509342712E+03 0.  0.
          5    1    4    4  502    0  0.35651667066E+02 -0.86121896576E+02  0.87181520411E+01  0.93709663372E+02  0.41800000000E+01 0.  1.
         -5    1    4    4    0  502 -0.16420531245E+02  0.21501439195E+02  0.56219158298E+02  0.62530087906E+02  0.41800000000E+01 0.  1.
        -11    1    3    3    0    0  0.15356022226E+02 -0.12711151165E+02 -0.38210491070E+02  0.43097823731E+02  0.00000000000E+00 0.  1.
         11    1    3    3    0    0 -0.34587158046E+02  0.77331608546E+02 -0.32722871988E+02  0.90814291459E+02  0.00000000000E+00 0. -1.
</event>
<event>
 8    1  0.5900800E-006  0.1298392E+03  0.7561462E-02  0.1227695E+00
         -3   -1    0    0    0  501 -0.00000000000E+00  0.00000000000E+00  0.54040632014E+03  0.54040632014E+03  0.00000000000E+00 0.  1.
          3   -1    0    0  501    0  0.00000000000E+00 -0.00000000000E+00 -0.32658246675E+02  0.32658246675E+02  0.00000000000E+00 0. -1.
         23    2    1    2    0    0 -0.39724233519E+01  0.72823780337E+02  0.18959148653E+03  0.22350740693E+03  0.93228461634E+02 0.  0.
         23    2    1    2    0    0  0.39724233519E+01 -0.72823780337E+02  0.31815658693E+03  0.34955715988E+03  0.12509001193E+03 0.  0.
          5    1    4    4  502    0  0.16092276145E+01 -0.10725929444E+03  0.20840025732E+03  0.23442543699E+03  0.41800000000E+01 0. -1.
         -5    1    4    4    0  502  0.23631957373E+01  0.34435514103E+02  0.10975632961E+03  0.11513172289E+03  0.41800000000E+01 0. -1.
        -11    1    3    3    0    0  0.26043613615E+02  0.82106710645E+02  0.12674835292E+03  0.15324792563E+03  0.00000000000E+00 0. -1.
         11    1    3    3    0    0 -0.30016036966E+02 -0.92829303085E+01  0.62843133607E+02  0.70259481295E+02  0.00000000000E+00 0.  1.
</event>
<event>
 7    1  0.5900800E-006  0.5930139E+02  0.7561462E-02  0.1400787E+00
         -1   -1    0    0    0  501 -0.00000000000E+00  0.00000000000E+00  0.15254056001E+03  0.15254056001E+03  0.00000000000E+00 0.  1.
          1   -1    0    0  501    0  0.00000000000E+00 -0.00000000000E+00 -0.52800553344E+02  0.52800553344E+02  0.00000000000E+00 0. -1.
         23    2    1    2    0    0  0.23468244133E+02  0.20333092270E+02  0.55144511032E+02  0.14018617771E+03  0.12508818569E+03 0.  0.
          5    1    3    3  502    0 -0.19862200716E+02  0.35860495458E+02 -0.24618520217E+02  0.48000271765E+02  0.41800000000E+01 0. -1.
         -5    1    3    3    0  502  0.43330444850E+02 -0.15527403188E+02  0.79763031249E+02  0.92185905944E+02  0.41800000000E+01 0. -1.
        -11    1    1    2    0    0 -0.11423892178E+02 -0.11755940771E+02 -0.17711454823E+01  0.16487704881E+02  0.00000000000E+00 0. -1.
         11    1    1    2    0    0 -0.12044351955E+02 -0.85771514995E+01  0.46366641114E+02  0.48667230762E+02  0.00000000000E+00 0.  1.
</event>
<event>
 8    1  0.5900800E-006  0.1010749E+03  0.7561462E-02  0.1278052E+00
         -2   -1    0    0    0  501 -0.00000000000E+00  0.00000000000E+00  0.34145974870E+02  0.34145974870E+02  0.00000000000E+00 0. -1.
          2   -1    0    0  501    0  0.00000000000E+00 -0.00000000000E+00 -0.65150388455E+03  0.65150388455E+03  0.00000000000E+00 0.  1.
         23    2    1    2    0    0 -0.34109428720E+02  0.84143579256E+02 -0.39028141620E+03  0.41095831728E+03  0.91233544587E+02 0.  0.
         23    2    1    2    0    0  0.34109428720E+02 -0.84143579256E+02 -0.22707649349E+03  0.27469154214E+03  0.12509242332E+03 0.  0.
          5    1    4    4  502    0  0.35062002764E+02 -0.83742542612E+02 -0.24234596087E+03  0.25882657250E+03  0.41800000000E+01 0. -1.
         -5    1    4    4    0  502 -0.95257404469E+00 -0.40103664427E+00  0.15269467382E+02  0.15864969645E+02  0.41800000000E+01 0. -1.
        -11    1    3    3    0    0  0.73605958976E+01  0.56830026297E+02 -0.31887522774E+03  0.32398339637E+03  0.00000000000E+00 0.  1.
         11    1    3    3    0    0 -0.41470024617E+02  0.27313552959E+02 -0.71406188460E+02  0.86974920911E+02  0.00000000000E+00 0. -1.
</event>
<event>
 8    1  0.5900800E-006  0.1003951E+03  0.7561462E-02  0.1279467E+00
          1   -1    0    0  501    0  0.00000000000E+00  0.00000000000E+00  0.51281240788E+02  0.51281240788E+02  0.00000000000E+00 0. -1.
         -1   -1    0    0    0  501 -0.00000000000E+00 -0.00000000000E+00 -0.36680957399E+03  0.36680957399E+03  0.00000000000E+00 0.  1.
         23    2    1    2    0    0  0.56120912191E+02 -0.98395232576E+01 -0.24167329934E+03  0.26205014754E+03  0.83773045827E+02 0.  0.
         23    2    1    2    0    0 -0.56120912191E+02  0.98395232576E+01 -0.73855033861E+02  0.15604066724E+03  0.12509097011E+03 0.  0.
          5    1    4    4  502    0 -0.83948400233E+02 -0.12673846432E+02 -0.13961846116E+02  0.86141545331E+02  0.41800000000E+01 0. -1.
         -5    1    4    4    0  502  0.27827488042E+02  0.22513369690E+02 -0.59893187746E+02  0.69899121910E+02  0.41800000000E+01 0. -1.
        -11    1    3    3    0    0  0.62674848132E+02 -0.21595244892E+02 -0.23938950798E+03  0.24839852601E+03  0.00000000000E+00 0.  1.
         11    1    3    3    0    0 -0.65539359412E+01  0.11755721634E+02 -0.22837913589E+01  0.13651621531E+02  0.00000000000E+00 0. -1.
</event>
<event>
 8    1  0.5900800E-006  0.1066630E+03  0.7561462E-02  0.1266877E+00
          3   -1    0    0  501    0  0.00000000000E+00  0.00000000000E+00  0.11261448127E+03  0.11261448127E+03  0.00000000000E+00 0. -1.
         -3   -1    0    0    0  501 -0.00000000000E+00 -0.00000000000E+00 -0.17089163848E+03  0.17089163848E+03  0.00000000000E+00 0.  1.
         23    2    1    2    0    0 -0.72229080982E+02  0.10185294663E+02 -0.73463784508E+02  0.13792610562E+03  0.91136724813E+02 0.  0.
         23    2    1    2    0    0  0.72229080982E+02 -0.10185294663E+02  0.15186627296E+02  0.14558001413E+03  0.12506848723E+03 0.  0.
          5    1    4    4  502    0  0.94907503593E+02  0.21240624776E+02  0.32914190362E+02  0.10275901277E+03  0.41800000000E+01 0.  1.
         -5    1    4    4    0  502 -0.22678422611E+02 -0.31425919439E+02 -0.17727563066E+02  0.42821001354E+02  0.41800000000E+01 0.  1.
        -11    1    3    3    0    0 -0.89813153906E+01  0.10416067862E+02 -0.73400465657E+02  0.74677887320E+02  0.00000000000E+00 0.  1.
         11    1    3    3    0    0 -0.63247765591E+02 -0.23077319891E+00 -0.63318850625E-01  0.63248218298E+02  0.00000000000E+00 0. -1.
</event>
<event>
 8    1  0.5900800E-006  0.1006270E+03  0.7561462E-02  0.1278983E+00
          1   -1    0    0  501    0  0.00000000000E+00  0.00000000000E+00  0.72038085996E+03  0.72038085996E+03  0.00000000000E+00 0. -1.
         -1   -1    0    0    0  501 -0.00000000000E+00 -0.00000000000E+00 -0.17230842648E+02  0.17230842648E+02  0.00000000000E+00 0.  1.
         23    2    1    2    0    0 -0.16900609967E+02  0.12021251120E+02  0.35608434128E+03  0.36810925661E+03  0.90984754769E+02 0.  0.
         23    2    1    2    0    0  0.16900609967E+02 -0.12021251120E+02  0.34706567603E+03  0.36950244600E+03  0.12508930020E+03 0.  0.
          5    1    4    4  502    0 -0.49529739001E+02  0.71758950835E+01  0.87872192960E+02  0.10121108245E+03  0.41800000000E+01 0. -1.
         -5    1    4    4    0  502  0.66430348967E+02 -0.19197146204E+02  0.25919348307E+03  0.26829136355E+03  0.41800000000E+01 0. -1.
        -11    1    3    3    0    0  0.28072483801E+02 -0.12278200020E+02  0.57243144287E+02  0.64927622091E+02  0.00000000000E+00 0.  1.
         11    1    3    3    0    0 -0.44973093767E+02  0.24299451140E+02  0.29884119699E+03  0.30318163451E+03  0.00000000000E+00 0. -1.
</event>
<event>
 8    1  0.5900800E-006  0.1319774E+03  0.7561462E-02  0.1224551E+00
         -3   -1    0    0    0  501 -0.00000000000E+00  0.00000000000E+00  0.38244404471E+03  0.38244404471E+03  0.00000000000E+00 0.  1.
          3   -1    0    0  501    0  0.00000000000E+00 -0.00000000000E+00 -0.69579629117E+02  0.69579629117E+02  0.00000000000E+00 0. -1.
         23    2    1    2    0    0 -0.11729151869E+03 -0.17462270293E+02  0.18222133192E+03  0.23574429412E+03  0.91151122673E+02 0.  0.
         23    2    1    2    0    0  0.11729151869E+03  0.17462270293E+02  0.13064308368E+03  0.21627937971E+03  0.12508766340E+03 0.  0.
          5    1    4    4  502    0 -0.10613835635E+02  0.86022991129E+01 -0.15997146083E+02  0.21448406460E+02  0.41800000000E+01 0. -1.
         -5    1    4    4    0  502  0.12790535432E+03  0.88599711800E+01  0.14664022976E+03  0.19483097325E+03  0.41800000000E+01 0. -1.
        -11    1    3    3    0    0 -0.89619667002E+02 -0.18996703495E+01  0.18322865031E+03  0.20398046905E+03  0.00000000000E+00 0.  1.
         11    1    3    3    0    0 -0.27671851683E+02 -0.15562599943E+02 -0.10073183901E+01  0.31763825067E+02  0.00000000000E+00 0. -1.
</event>
<event>
 7    1  0.5900800E-006  0.2071354E+03  0.7561462E-02  0.1143855E+00
          2   -1    0    0  501    0  0.00000000000E+00  0.00000000000E+00  0.86989599498E+03  0.86989599498E+03  0.00000000000E+00 0. -1.
         -2   -1    0    0    0  501 -0.00000000000E+00 -0.00000000000E+00 -0.63052381893E+02  0.63052381893E+02  0.00000000000E+00 0.  1.
         23    2    1    2    0    0  0.12397515545E+03 -0.15064438004E+03  0.61155648272E+03  0.65399598686E+03  0.12508337566E+03 0.  0.
          5    1    3    3  502    0  0.13660293984E+03 -0.11392845885E+03  0.56930878584E+03  0.59646460326E+03  0.41800000000E+01 0. -1.
         -5    1    3    3    0  502 -0.12627784382E+02 -0.36715921194E+02  0.42247696882E+02  0.57531383604E+02  0.41800000000E+01 0. -1.
        -11    1    1    2    0    0 -0.26171332761E+01  0.15244168230E+02  0.27435064733E+02  0.31494711120E+02  0.00000000000E+00 0.  1.
         11    1    1    2    0    0 -0.12135802218E+03  0.13540021181E+03  0.16785206563E+03  0.24745767889E+03  0.00000000000E+00 0. -1.
</event>
<event>
 8    1  0.5900800E-006  0.2050929E+03  0.7561462E-02  0.1145512E+00
         -2   -1    0    0    0  501 -0.00000000000E+00  0.00000000000E+00  0.69625922828E+02  0.69625922828E+02  0.00000000000E+00 0.  1.
          2   -1    0    0  501    0  0.00000000000E+00 -0.00000000000E+00 -0.64251578519E+03  0.64251578519E+03  0.00000000000E+00 0. -1.
         23    2    1    2    0    0  0.16198826700E+03 -0.64662849163E+02 -0.20301087366E+03  0.28449548611E+03  0.96450941350E+02 0.  0.
         23    2    1    2    0    0 -0.16198826700E+03  0.64662849163E+02 -0.36987898870E+03  0.42764622191E+03  0.12509733059E+03 0.  0.
          5    1    4    4  502    0 -0.13916426558E+02  0.62454087364E+02 -0.14251031110E+03  0.15627169010E+03  0.41800000000E+01 0.  1.
         -5    1    4    4    0  502 -0.14807184044E+03  0.22087617994E+01 -0.22736867760E+03  0.27137453181E+03  0.41800000000E+01 0.  1.
        -11    1    3    3    0    0  0.19332246355E+02 -0.51079148291E+02 -0.41619460158E+02  0.68665818303E+02  0.00000000000E+00 0.  1.
         11    1    3    3    0    0  0.14265602064E+03 -0.13583700872E+02 -0.16139141350E+03  0.21582966781E+03  0.00000000000E+00 0. -1.
</event>
<event>
 7    1  0.5900800E-006  0.1068774E+03  0.7561462E-02  0.1266464E+00
          1   -1    0    0  501    0  0.00000000000E+00  0.00000000000E+00  0.34458600954E+03  0.34458600954E+03  0.00000000000E+00 0. -1.
         -1   -1    0    0    0  501 -0.00000000000E+00 -0.00000000000E+00 -0.93960903072E+02  0.93960903072E+02  0.00000000000E+00 0.  1.
         23    2    1    2    0    0 -0.36728360710E+02 -0.27498084170E+02 -0.37060175027E+02  0.10884707483E+03  0.91482850921E+02 0.  0.
          5    1    1    2  502    0  0.75693890484E+02  0.59095773256E+02  0.11528379882E+03  0.15009897450E+03  0.41800000000E+01 0. -1.
         -5    1    1    2    0  502 -0.38965529774E+02 -0.31597689086E+02  0.17240148267E+03  0.17960086328E+03  0.41800000000E+01 0.  1.
        -11    1    3    3    0    0 -0.19734808518E+02  0.12824133940E+02 -0.56319429144E+02  0.61039324846E+02  0.00000000000E+00 0.  1.
         11    1    3    3    0    0 -0.16993552193E+02 -0.40322218110E+02  0.19259254117E+02  0.47807749984E+02  0.00000000000E+00 0. -1.
</event>
<event>
 8    1  0.5900800E-006  0.5991599E+02  0.7561462E-02  0.1398185E+00
         -2   -1    0    0    0  501 -0.00000000000E+00  0.00000000000E+00  0.51512342273E+02  0.51512342273E+02  0.00000000000E+00 0.  1.
          2   -1    0    0  501    0  0.00000000000E+00 -0.00000000000E+00 -0.22203427398E+03  0.22203427398E+03  0.00000000000E+00 0. -1.
         23    2    1    2    0    0  0.29110479874E+02  0.12642210887E+02 -0.64193860921E+02  0.10633202435E+03  0.78602812211E+02 0.  0.
         23    2    1    2    0    0 -0.29110479874E+02 -0.12642210887E+02 -0.10632807078E+03  0.16721459190E+03  0.12509122901E+03 0.  0.
          5    1    4    4  502    0 -0.18088100578E+02  0.33745798347E+01  0.26707591485E+02  0.32700688288E+02  0.41800000000E+01 0.  1.
         -5    1    4    4    0  502 -0.11022379295E+02 -0.16016790721E+02 -0.13303566227E+03  0.13451390362E+03  0.41800000000E+01 0.  1.
        -11    1    3    3    0    0 -0.22856861659E+02  0.17634877107E+02 -0.87243900818E+01  0.30158580832E+02  0.00000000000E+00 0.  1.
         11    1    3    3    0    0  0.51967341533E+02 -0.49926662200E+01 -0.55469470840E+02  0.76173443517E+02  0.00000000000E+00 0. -1.
</event>
<event>
 8    1  0.5900800E-006  0.1166825E+03  0.7561462E-02  0.1248672E+00
         -2   -1    0    0    0  501 -0.00000000000E+00  0.00000000000E+00  0.20129130727E+03  0.20129130727E+03  0.00000000000E+00 0. -1.
          2   -1    0    0  501    0  0.00000000000E+00 -0.00000000000E+00 -0.96972629370E+02  0.96972629370E+02  0.00000000000E+00 0.  1.
         23    2    1    2    0    0  0.35823635602E+02  0.70021245750E+02  0.79712325393E+02  0.14846381649E+03  0.97473802966E+02 0.  0.
         23    2    1    2    0    0 -0.35823635602E+02 -0.70021245750E+02  0.24606352503E+02  0.14980012014E+03  0.12509314804E+03 0.  0.
          5    1    4    4  502    0  0.45609498336E+01 -0.70088136869E+02 -0.34285419375E+02  0.78269480482E+02  0.41800000000E+01 0.  1.
         -5    1    4    4    0  502 -0.40384585435E+02  0.66891119319E-01  0.58891771878E+02  0.71530639660E+02  0.41800000000E+01 0.  1.
        -11    1    3    3    0    0  0.45570960282E+02 -0.58180838643E+01  0.15105254028E+02  0.48360430313E+02  0.00000000000E+00 0.  1.
         11    1    3    3    0    0 -0.97473246799E+01  0.75839329614E+02  0.64607071365E+02  0.10010338618E+03  0.00000000000E+00 0. -1.
</event>
<event>
 8    1  0.5900800E-006  0.6539304E+02  0.7561462E-02  0.1376499E+00
          2   -1    0    0  501    0  0.00000000000E+00  0.00000000000E+00  0.62968115275E+03  0.62968115275E+03  0.00000000000E+00 0. -1.
         -2   -1    0    0    0  501 -0.00000000000E+00 -0.00000000000E+00 -0.21169035841E+02  0.21169035841E+02  0.00000000000E+00 0.  1.
         23    2    1    2    0    0 -0.33003971384E+01 -0.15471306726E+02  0.16080948651E+03  0.18573308545E+03  0.91579659991E+02 0.  0.
         23    2    1    2    0    0  0.33003971384E+01  0.15471306726E+02  0.44770263040E+03  0.46511710315E+03  0.12508405342E+03 0.  0.
          5    1    4    4  502    0  0.12243414609E+02  0.23126321849E+02  0.45133147887E+03  0.45210873049E+03  0.41800000000E+01 0. -1.
         -5    1    4    4    0  502 -0.89430174701E+01 -0.76550151224E+01 -0.36288484725E+01  0.13008372659E+02  0.41800000000E+01 0. -1.
        -11    1    3    3    0    0  0.34081400587E+02  0.20619978065E+02  0.84423774366E+02  0.93349338721E+02  0.00000000000E+00 0. -1.
         11    1    3    3    0    0 -0.37381797725E+02 -0.36091284792E+02  0.76385712145E+02  0.92383746725E+02  0.00000000000E+00 0.  1.
</event>
<event>
 8    1  0.5900800E-006  0.9616611E+02  0.7561462E-02  0.1288571E+00
          2   -1    0    0  501    0  0.00000000000E+00  0.00000000000E+00  0.11438402623E+04  0.11438402623E+04  0.00000000000E+00 0. -1.
         -2   -1    0    0    0  501 -0.00000000000E+00 -0.00000000000E+00 -0.12289526506E+02  0.12289526506E+02  0.00000000000E+00 0.  1.
         23    2    1    2    0    0  0.30004429231E+02  0.20477921173E+02  0.33041214091E+03  0.34447152366E+03  0.90381617167E+02 0.  0.
         23    2    1    2    0    0 -0.30004429231E+02 -0.20477921173E+02  0.80113859484E+03  0.81165826511E+03  0.12508589105E+03 0.  0.
          5    1    4    4  502    0  0.31877127949E+02 -0.17239243872E+02  0.60096364148E+03  0.60206985774E+03  0.41800000000E+01 0.  1.
         -5    1    4    4    0  502 -0.61881557180E+02 -0.32386773004E+01  0.20017495337E+03  0.20958840737E+03  0.41800000000E+01 0.  1.
        -11    1    3    3    0    0  0.40071456884E+02 -0.24957138601E+02  0.21309348269E+03  0.21825996607E+03  0.00000000000E+00 0.  1.
         11    1    3    3    0    0 -0.10067027653E+02  0.45435059773E+02  0.11731865822E+03  0.12621155759E+03  0.00000000000E+00 0. -1.
</event>
<event>
 8    1  0.5900800E-006  0.9412476E+02  0.7561462E-02  0.1293160E+00
         -1   -1    0    0    0  501 -0.00000000000E+00  0.00000000000E+00  0.38460533514E+02  0.38460533514E+02  0.00000000000E+00 0.  1.
          1   -1    0    0  501    0  0.00000000000E+00 -0.00000000000E+00 -0.36547736226E+03  0.36547736226E+03  0.00000000000E+00 0. -1.
         23    2    1    2    0    0 -0.40049960856E+02  0.31230837039E+02 -0.13175399863E+03  0.16661180273E+03  0.88436486294E+02 0.  0.
         23    2    1    2    0    0  0.40049960856E+02 -0.31230837039E+02 -0.19526283011E+03  0.23732609304E+03  0.12496694390E+03 0.  0.
          5    1    4    4  502    0 -0.31996447971E+02 -0.19424492077E+01 -0.13509236633E+03  0.13890631963E+03  0.41800000000E+01 0.  1.
         -5    1    4    4    0  502  0.72046408827E+02 -0.29288387832E+02 -0.60170463783E+02  0.98419773412E+02  0.41800000000E+01 0.  1.
        -11    1    3    3    0    0 -0.32486677755E+02 -0.11637380058E+02 -0.79974826819E+01  0.35422769167E+02  0.00000000000E+00 0.  1.
         11    1    3    3    0    0 -0.75632831006E+01  0.42868217097E+02 -0.12375651595E+03  0.13118903357E+03  0.00000000000E+00 0. -1.
</event>
<event>
 8    1  0.5900800E-006  0.6145550E+02  0.7561462E-02  0.1391823E+00
          1   -1    0    0  501    0  0.00000000000E+00  0.00000000000E+00  0.33878711002E+03  0.33878711002E+03  0.00000000000E+00 0.  1.
         -1   -1    0    0    0  501 -0.00000000000E+00 -0.00000000000E+00 -0.39581451325E+02  0.39581451325E+02  0.00000000000E+00 0. -1.
         23    2    1    2    0    0  0.13901276112E+02 -0.18036805763E+02  0.74513500425E+02  0.12019866653E+03  0.91525329012E+02 0.  0.
         23    2    1    2    0    0 -0.13901276112E+02  0.18036805763E+02  0.22469215827E+03  0.25816989482E+03  0.12508619732E+03 0.  0.
          5    1    4    4  502    0  0.17607071942E+02 -0.13304335093E+00  0.22058814073E+03  0.22132922742E+03  0.41800000000E+01 0.  1.
         -5    1    4    4    0  502 -0.31508348054E+02  0.18169849114E+02  0.41040175455E+01  0.36840667393E+02  0.41800000000E+01 0.  1.
        -11    1    3    3    0    0 -0.23278482717E+02 -0.20393859847E+02  0.76873725792E+02  0.82869578219E+02  0.00000000000E+00 0.  1.
         11    1    3    3    0    0  0.37179758829E+02  0.23570540835E+01 -0.23602253663E+01  0.37329088313E+02  0.00000000000E+00 0. -1.
</event>
<event>
 8    1  0.5900800E-006  0.1814171E+03  0.7561462E-02  0.1166439E+00
          2   -1    0    0  501    0  0.00000000000E+00  0.00000000000E+00  0.40132473344E+03  0.40132473344E+03  0.00000000000E+00 0.  1.
         -2   -1    0    0    0  501 -0.00000000000E+00 -0.00000000000E+00 -0.93630155434E+02  0.93630155434E+02  0.00000000000E+00 0. -1.
         23    2    1    2    0    0 -0.16682606405E+02 -0.15433639521E+03  0.91482971112E+02  0.20085814466E+03  0.88751495937E+02 0.  0.
         23    2    1    2    0    0  0.16682606405E+02  0.15433639521E+03  0.21621160690E+03  0.29409674422E+03  0.12508958294E+03 0.  0.
          5    1    4    4  502    0  0.42051826136E+02  0.15277925027E+03  0.13278121041E+03  0.20678050593E+03  0.41800000000E+01 0.  1.
         -5    1    4    4    0  502 -0.25369219731E+02  0.15571449344E+01  0.83430396486E+02  0.87316238283E+02  0.41800000000E+01 0.  1.
        -11    1    3    3    0    0  0.32267445048E+02 -0.26777398704E+02  0.17001110044E+02  0.45246600248E+02  0.00000000000E+00 0. -1.
         11    1    3    3    0    0 -0.48950051454E+02 -0.12755899650E+03  0.74481861068E+02  0.15561154441E+03  0.00000000000E+00 0.  1.
</event>
<event>
 8    1  0.5900800E-006  0.1198521E+03  0.7561462E-02  0.1243341E+00
          1   -1    0    0  501    0  0.00000000000E+00  0.00000000000E+00  0.62617383172E+03  0.62617383172E+03  0.00000000000E+00 0. -1.
         -1   -1    0    0    0  501 -0.00000000000E+00 -0.00000000000E+00 -0.32772208576E+02  0.32772208576E+02  0.00000000000E+00 0.  1.
         23    2    1    2    0    0 -0.65317427555E+02  0.23534631964E+02  0.12892272507E+03  0.17293276243E+03  0.92002315397E+02 0.  0.
         23    2    1    2    0    0  0.65317427555E+02 -0.23534631964E+02  0.46447889807E+03  0.48601327786E+03  0.12509202317E+03 0.  0.
          5    1    4    4  502    0 -0.30052336751E+02  0.10536639202E+02  0.50834597359E+02  0.60131459308E+02  0.41800000000E+01 0. -1.
         -5    1    4    4    0  502  0.95369764306E+02 -0.34071271166E+02  0.41364430071E+03  0.42588181855E+03  0.41800000000E+01 0. -1.
        -11    1    3    3    0    0 -0.76806655001E+02 -0.34634656796E+01  0.11953534873E+03  0.14212655432E+03  0.00000000000E+00 0. -1.
         11    1    3    3    0    0  0.11489227446E+02  0.26998097644E+02  0.93873763423E+01  0.30806208113E+02  0.00000000000E+00 0.  1.
</event>
<event>
 8    1  0.5900800E-006  0.1222820E+03  0.7561462E-02  0.1239379E+00
          1   -1    0    0  501    0  0.00000000000E+00  0.00000000000E+00  0.53676362748E+03  0.53676362748E+03  0.00000000000E+00 0. -1.
         -1   -1    0    0    0  501 -0.00000000000E+00 -0.00000000000E+00 -0.44266624788E+02  0.44266624788E+02  0.00000000000E+00 0.  1.
         23    2    1    2    0    0  0.85160707198E+02  0.66297404352E+02  0.19566067688E+03  0.24131654188E+03  0.91120146135E+02 0.  0.
         23    2    1    2    0    0 -0.85160707198E+02 -0.66297404352E+02  0.29683632581E+03  0.33971371039E+03  0.12508360737E+03 0.  0.
          5    1    4    4  502    0 -0.82465156715E+02 -0.83836817885E+02  0.14478097195E+03  0.18656933388E+03  0.41800000000E+01 0.  1.
         -5    1    4    4    0  502 -0.26955504836E+01  0.17539413533E+02  0.15205535386E+03  0.15314437651E+03  0.41800000000E+01 0.  1.
        -11    1    3    3    0    0  0.35528942491E+02  0.35642749908E+02  0.16600153438E+02  0.52993173803E+02  0.00000000000E+00 0.  1.
         11    1    3    3    0    0  0.49631764708E+02  0.30654654444E+02  0.17906052344E+03  0.18832336808E+03  0.00000000000E+00 0. -1.
</event>
<event>
 8    1  0.5900800E-006  0.1347141E+03  0.7561462E-02  0.1220624E+00
          2   -1    0    0  501    0  0.00000000000E+00  0.00000000000E+00  0.19050572128E+04  0.19050572128E+04  0.00000000000E+00 0.  1.
         -2   -1    0    0    0  501 -0.00000000000E+00 -0.00000000000E+00 -0.17188502890E+02  0.17188502890E+02  0.00000000000E+00 0. -1.
         23    2    1    2    0    0 -0.42660584227E+02 -0.71210184075E+02  0.25963419526E+03  0.28710363997E+03  0.90154140093E+02 0.  0.
         23    2    1    2    0    0  0.42660584227E+02  0.71210184075E+02  0.16282345147E+04  0.16351420757E+04  0.12510458549E+03 0.  0.
          5    1    4    4  502    0  0.51075296685E+02 -0.20479943702E+02  0.46544541819E+03  0.46870568989E+03  0.41800000000E+01 0.  1.
         -5    1    4    4    0  502 -0.84147124574E+01  0.91690127776E+02  0.11627890965E+04  0.11664363858E+04  0.41800000000E+01 0.  1.
        -11    1    3    3    0    0 -0.28773489526E+02  0.16567002666E+02  0.59780277214E+02  0.68381728704E+02  0.00000000000E+00 0.  1.
         11    1    3    3    0    0 -0.13887094701E+02 -0.87777186741E+02  0.19985391804E+03  0.21872191127E+03  0.00000000000E+00 0. -1.
</event>
<event>
 8    1  0.5900800E-006  0.2614652E+03  0.7561462E-02  0.1106266E+00
         -1   -1    0    0    0  501 -0.00000000000E+00  0.00000000000E+00  0.63398264370E+02  0.63398264370E+02  0.00000000000E+00 0.  1.
          1   -1    0    0  501    0  0.00000000000E+00 -0.00000000000E+00 -0.11395695081E+04  0.11395695081E+04  0.00000000000E+00 0. -1.
         23    2    1    2    0    0 -0.17363012314E+03  0.17237801402E+03 -0.47710149332E+03  0.54388236797E+03  0.91217300314E+02 0.  0.
         23    2    1    2    0    0  0.17363012314E+03 -0.17237801402E+03 -0.59906975037E+03  0.65908540447E+03  0.12508958866E+03 0.  0.
          5    1    4    4  502    0  0.12040163677E+03 -0.32541251842E+02 -0.28812105602E+03  0.31398519477E+03  0.41800000000E+01 0. -1.
         -5    1    4    4    0  502  0.53228486362E+02 -0.13983676218E+03 -0.31094869435E+03  0.34510020970E+03  0.41800000000E+01 0. -1.
        -11    1    3    3    0    0 -0.58982039171E+02  0.88691188767E+02 -0.29063364391E+03  0.30953662608E+03  0.00000000000E+00 0. -1.
         11    1    3    3    0    0 -0.11464808397E+03  0.83686825254E+02 -0.18646784941E+03  0.23434574189E+03  0.00000000000E+00 0.  1.
</event>
<event>
 8    1  0.5900800E-006  0.8178771E+02  0.7561462E-02  0.1324053E+00
         -1   -1    0    0    0  501 -0.00000000000E+00  0.00000000000E+00  0.12813382456E+03  0.12813382456E+03  0.00000000000E+00 0.  1.
          1   -1    0    0  501    0  0.00000000000E+00 -0.00000000000E+00 -0.15975110622E+03  0.15975110622E+03  0.00000000000E+00 0. -1.
         23    2    1    2    0    0 -0.56546136714E+02 -0.13402977192E+02  0.59677802658E+02  0.12247829739E+03  0.89790800348E+02 0.  0.
         23    2    1    2    0    0  0.56546136714E+02  0.13402977192E+02 -0.91295084322E+02  0.16540663339E+03  0.12508979404E+03 0.  0.
          5    1    4    4  502    0  0.31305206943E+02 -0.42161397151E+01  0.27825105825E+02  0.42302490825E+02  0.41800000000E+01 0.  1.
         -5    1    4    4    0  502  0.25240929771E+02  0.17619116907E+02 -0.11912019015E+03  0.12310414257E+03  0.41800000000E+01 0.  1.
        -11    1    3    3    0    0 -0.76152206547E+02  0.12637531299E+01  0.25265085279E+02  0.80243879319E+02  0.00000000000E+00 0. -1.
         11    1    3    3    0    0  0.19606069833E+02 -0.14666730322E+02  0.34412717379E+02  0.42234418074E+02  0.00000000000E+00 0.  1.
</event>
<event>
 7    1  0.5900800E-006  0.1017493E+03  0.7561462E-02  0.1276660E+00
          2   -1    0    0  501    0  0.00000000000E+00  0.00000000000E+00  0.14989050273E+04  0.14989050273E+04  0.00000000000E+00 0. -1.
         -2   -1    0    0    0  501 -0.00000000000E+00 -0.00000000000E+00 -0.48181178395E+02  0.48181178395E+02  0.00000000000E+00 0.  1.
         23    2    1    2    0    0 -0.20711990199E+02 -0.65132204011E+01 -0.70895278598E+00  0.89576761654E+02  0.86902733193E+02 0.  0.
          5    1    1    2  502    0 -0.97223781004E+01  0.55807907298E+02  0.10864456516E+04  0.10879295351E+04  0.41800000000E+01 0. -1.
         -5    1    1    2    0  502  0.30434368300E+02 -0.49294686897E+02  0.36498715012E+03  0.36957990893E+03  0.41800000000E+01 0.  1.
        -11    1    3    3    0    0  0.14312949762E+02 -0.38565217283E+02 -0.68571679348E+01  0.41703204518E+02  0.00000000000E+00 0.  1.
         11    1    3    3    0    0 -0.35024939962E+02  0.32051996881E+02  0.61482151489E+01  0.47873557137E+02  0.00000000000E+00 0. -1.
</event>
<event>
 8    1  0.5900800E-006  0.1144466E+03  0.7561462E-02  0.1252550E+00
         -1   -1    0    0    0  501 -0.00000000000E+00  0.00000000000E+00  0.19706125472E+02  0.19706125472E+02  0.00000000000E+00 0.  1.
          1   -1    0    0  501    0  0.00000000000E+00 -0.00000000000E+00 -0.94671204616E+03  0.94671204616E+03  0.00000000000E+00 0. -1.
         23    2    1    2    0    0 -0.58453898144E+02 -0.37228951058E+02 -0.25132612563E+03  0.27577088992E+03  0.89899439904E+02 0.  0.
         23    2    1    2    0    0  0.58453898144E+02  0.37228951058E+02 -0.67567979505E+03  0.69064728171E+03  0.12509048441E+03 0.  0.
          5    1    4    4  502    0  0.76886273915E+01  0.76889847263E+02 -0.32608288717E+03  0.33513979965E+03  0.41800000000E+01 0.  1.
         -5    1    4    4    0  502  0.50765270752E+02 -0.39660896205E+02 -0.34959690788E+03  0.35550748206E+03  0.41800000000E+01 0.  1.
        -11    1    3    3    0    0 -0.68185262974E+02 -0.28586757343E+02 -0.25211456232E+03  0.26273215508E+03  0.00000000000E+00 0. -1.
         11    1    3    3    0    0  0.97313648307E+01 -0.86421937147E+01  0.78843668420E+00  0.13038734834E+02  0.00000000000E+00 0.  1.
</event>
<event>
 8    1  0.5900800E-006  0.2978267E+03  0.7561462E-02  0.1086332E+00
         -2   -1    0    0    0  501 -0.00000000000E+00  0.00000000000E+00  0.39016432521E+02  0.39016432521E+02  0.00000000000E+00 0.  1.
          2   -1    0    0  501    0  0.00000000000E+00 -0.00000000000E+00 -0.30041313874E+04  0.30041313874E+04  0.00000000000E+00 0. -1.
         23    2    1    2    0    0  0.24237189871E+03 -0.16532602722E+03 -0.84330812651E+03  0.89750826761E+03  0.90970663564E+02 0.  0.
         23    2    1    2    0    0 -0.24237189871E+03  0.16532602722E+03 -0.21218068284E+04  0.21456395524E+04  0.12501215530E+03 0.  0.
          5    1    4    4  502    0 -0.98722416025E+02  0.84504955969E+02 -0.54768155624E+03  0.56290297783E+03  0.41800000000E+01 0.  1.
         -5    1    4    4    0  502 -0.14364948268E+03  0.80821071254E+02 -0.15741252722E+04  0.15827365745E+04  0.41800000000E+01 0.  1.
        -11    1    3    3    0    0  0.88587578132E+02 -0.23721554254E+02 -0.17965323929E+03  0.20170710826E+03  0.00000000000E+00 0.  1.
         11    1    3    3    0    0  0.15378432057E+03 -0.14160447297E+03 -0.66365488722E+03  0.69580115935E+03  0.00000000000E+00 0. -1.
</event>
<event>
 8    1  0.5900800E-006  0.9786469E+02  0.7561462E-02  0.1284851E+00
          2   -1    0    0  501    0  0.00000000000E+00  0.00000000000E+00  0.12142763868E+04  0.12142763868E+04  0.00000000000E+00 0. -1.
         -2   -1    0    0    0  501 -0.00000000000E+00 -0.00000000000E+00 -0.99232567157E+01  0.99232567157E+01  0.00000000000E+00 0.  1.
         23    2    1    2    0    0 -0.12728109395E+02  0.51167297874E+00  0.41553561146E+03  0.42542329374E+03  0.90293232818E+02 0.  0.
         23    2    1    2    0    0  0.12728109395E+02 -0.51167297874E+00  0.78881751860E+03  0.79877634975E+03  0.12509321598E+03 0.  0.
          5    1    4    4  502    0  0.18589020139E+02 -0.50817499000E+02  0.18425141520E+03  0.19207817751E+03  0.41800000000E+01 0.  1.
         -5    1    4    4    0  502 -0.58609107445E+01  0.50305826021E+02  0.60456610340E+03  0.60669817223E+03  0.41800000000E+01 0.  1.
        -11    1    3    3    0    0  0.31260706666E+02 -0.24786210358E+02  0.20631940753E+03  0.21014110956E+03  0.00000000000E+00 0. -1.
         11    1    3    3    0    0 -0.43988816060E+02  0.25297883337E+02  0.20921620393E+03  0.21528218418E+03  0.00000000000E+00 0.  1.
</event>
<event>
 8    1  0.5900800E-006  0.2567518E+03  0.7561462E-02  0.1109111E+00
          1   -1    0    0  501    0  0.00000000000E+00  0.00000000000E+00  0.28335925169E+03  0.28335925169E+03  0.00000000000E+00 0. -1.
         -1   -1    0    0    0  501 -0.00000000000E+00 -0.00000000000E+00 -0.38859834365E+03  0.38859834365E+03  0.00000000000E+00 0.  1.
         23    2    1    2    0    0 -0.20940441651E+03  0.12766263796E+03 -0.24962289235E+03  0.36108462767E+03  0.89008770158E+02 0.  0.
         23    2    1    2    0    0  0.20940441651E+03 -0.12766263796E+03  0.14438380039E+03  0.31087296768E+03  0.12508941375E+03 0.  0.
          5    1    4    4  502    0  0.21418333467E+03 -0.13792141062E+03  0.11583298470E+03  0.27987777529E+03  0.41800000000E+01 0.  1.
         -5    1    4    4    0  502 -0.47789181510E+01  0.10258772657E+02  0.28550815683E+02  0.30995192390E+02  0.41800000000E+01 0.  1.
        -11    1    3    3    0    0 -0.76938219744E+02  0.32344385163E+02 -0.14477946374E+03  0.16711296188E+03  0.00000000000E+00 0.  1.
         11    1    3    3    0    0 -0.13246619677E+03  0.95318252800E+02 -0.10484342861E+03  0.19397166578E+03  0.00000000000E+00 0. -1.
</event>
<event>
 7    1  0.6612334E-006  0.1316661E+03  0.7561462E-02  0.1225004E+00
          1   -1    0    0  501    0  0.00000000000E+00  0.00000000000E+00  0.17811553290E+03  0.17811553290E+03  0.00000000000E+00 0. -1.
         -1   -1    0    0    0  501 -0.00000000000E+00 -0.00000000000E+00 -0.17986966585E+03  0.17986966585E+03  0.00000000000E+00 0.  1.
         23    2    1    2    0    0 -0.67449140033E+01 -0.11197144834E+03  0.10384548327E+03  0.19752043526E+03  0.12508932345E+03 0.  0.
          5    1    3    3  502    0 -0.49061830942E+02 -0.27874099215E+02 -0.94438826473E+00  0.56589689269E+02  0.41800000000E+01 0. -1.
         -5    1    3    3    0  502  0.42316916938E+02 -0.84097349124E+02  0.10478987154E+03  0.14093074599E+03  0.41800000000E+01 0. -1.
        -11    1    1    2    0    0  0.58098977585E+01  0.31176302234E+02 -0.59537749500E+02  0.67457100060E+02  0.00000000000E+00 0.  1.
         11    1    1    2    0    0  0.93501624481E+00  0.80795146105E+02 -0.46061866728E+02  0.93007663426E+02  0.00000000000E+00 0. -1.
</event>
<event>
 8    1  0.5900800E-006  0.1361412E+03  0.7561462E-02  0.1218618E+00
          2   -1    0    0  501    0  0.00000000000E+00  0.00000000000E+00  0.10224121626E+03  0.10224121626E+03  0.00000000000E+00 0. -1.
         -2   -1    0    0    0  501 -0.00000000000E+00 -0.00000000000E+00 -0.24939917688E+03  0.24939917688E+03  0.00000000000E+00 0.  1.
         23    2    1    2    0    0  0.28569675339E+02  0.10872624360E+03 -0.98911382554E+02  0.17667824516E+03  0.93776960479E+02 0.  0.
         23    2    1    2    0    0 -0.28569675339E+02 -0.10872624360E+03 -0.48246578069E+02  0.17496214798E+03  0.12508556486E+03 0.  0.
          5    1    4    4  502    0 -0.54465327207E+02 -0.76001100500E+02 -0.79383794410E+02  0.12272692598E+03  0.41800000000E+01 0.  1.
         -5    1    4    4    0  502  0.25895651868E+02 -0.32725143097E+02  0.31137216340E+02  0.52235222004E+02  0.41800000000E+01 0.  1.
        -11    1    3    3    0    0  0.13079114839E+01  0.10946689205E+03 -0.10149439692E+03  0.14928437190E+03  0.00000000000E+00 0.  1.
         11    1    3    3    0    0  0.27261763855E+02 -0.74064845488E+00  0.25830143658E+01  0.27393873254E+02  0.00000000000E+00 0. -1.
</event>
<event>
 8    1  0.5900800E-006  0.8807221E+02  0.7561462E-02  0.1307588E+00
         -1   -1    0    0    0  501 -0.00000000000E+00  0.00000000000E+00  0.16247554133E+02  0.16247554133E+02  0.00000000000E+00 0.  1.
          1   -1    0    0  501    0  0.00000000000E+00 -0.00000000000E+00 -0.12019173367E+04  0.12019173367E+04  0.00000000000E+00 0. -1.
         23    2    1    2    0    0  0.41247489366E+02 -0.57726348796E+02 -0.33605760258E+03  0.35646792733E+03  0.95399078824E+02 0.  0.
         23    2    1    2    0    0 -0.41247489366E+02  0.57726348796E+02 -0.84961217997E+03  0.86169696348E+03  0.12508842392E+03 0.  0.
          5    1    4    4  502    0 -0.19187364690E+02  0.49561574273E+02 -0.11564499070E+03  0.12734104163E+03  0.41800000000E+01 0.  1.
         -5    1    4    4    0  502 -0.22060124675E+02  0.81647745233E+01 -0.73396718927E+03  0.73435592186E+03  0.41800000000E+01 0.  1.
        -11    1    3    3    0    0 -0.19545085008E+02 -0.15006864925E+02 -0.19833506004E+02  0.31632013898E+02  0.00000000000E+00 0. -1.
         11    1    3    3    0    0  0.60792574374E+02 -0.42719483871E+02 -0.31622409658E+03  0.32483591343E+03  0.00000000000E+00 0.  1.
</event>
<event>
 8    1  0.5900800E-006  0.1151573E+03  0.7561462E-02  0.1251307E+00
         -3   -1    0    0    0  501 -0.00000000000E+00  0.00000000000E+00  0.40820323054E+03  0.40820323054E+03  0.00000000000E+00 0.  1.
          3   -1    0    0  501    0  0.00000000000E+00 -0.00000000000E+00 -0.58404509541E+02  0.58404509541E+02  0.00000000000E+00 0. -1.
         23    2    1    2    0    0 -0.33495425247E+01  0.66108486332E+02  0.29029746011E+03  0.31308334650E+03  0.96783341088E+02 0.  0.
         23    2    1    2    0    0  0.33495425247E+01 -0.66108486332E+02  0.59501260893E+02  0.15352439358E+03  0.12509111869E+03 0.  0.
          5    1    4    4  502    0 -0.52175301905E+02 -0.12588605137E+02  0.53756240024E+02  0.76078517662E+02  0.41800000000E+01 0.  1.
         -5    1    4    4    0  502  0.55524844429E+02 -0.53519881195E+02  0.57450208692E+01  0.77445875919E+02  0.41800000000E+01 0.  1.
        -11    1    3    3    0    0  0.87061841420E+01 -0.14948186462E+02  0.78656733635E+01  0.19003019188E+02  0.00000000000E+00 0.  1.
         11    1    3    3    0    0 -0.12055726667E+02  0.81056672794E+02  0.28243178675E+03  0.29408032732E+03  0.00000000000E+00 0. -1.
</event>
<event>
 8    1  0.5900800E-006  0.8445367E+02  0.7561462E-02  0.1316867E+00
          4   -1    0    0  501    0  0.00000000000E+00  0.00000000000E+00  0.16017221440E+03  0.16017221440E+03  0.00000000000E+00 0. -1.
         -4   -1    0    0    0  501 -0.00000000000E+00 -0.00000000000E+00 -0.73461593329E+02  0.73461593329E+02  0.00000000000E+00 0.  1.
         23    2    1    2    0    0  0.18751635037E+01  0.54576761493E+01  0.25823948799E+02  0.94409018377E+02  0.90624963184E+02 0.  0.
         23    2    1    2    0    0 -0.18751635037E+01 -0.54576761493E+01  0.60886672276E+02  0.13922478936E+03  0.12507218973E+03 0.  0.
          5    1    4    4  502    0  0.49572615907E+02 -0.62979869170E+01 -0.10395987809E+02  0.51211891682E+02  0.41800000000E+01 0. -1.
         -5    1    4    4    0  502 -0.51447779411E+02  0.84031076774E+00  0.71282660084E+02  0.88012897675E+02  0.41800000000E+01 0. -1.
        -11    1    3    3    0    0  0.34372517650E+02  0.15677985443E+01 -0.18690862201E+02  0.39157072052E+02  0.00000000000E+00 0.  1.
         11    1    3    3    0    0 -0.32497354146E+02  0.38898776050E+01  0.44514811000E+02  0.55251946325E+02  0.00000000000E+00 0. -1.
</event>
<event>
 7    1  0.5900800E-006  0.1223181E+03  0.7561462E-02  0.1239321E+00
         -1   -1    0    0    0  501 -0.00000000000E+00  0.00000000000E+00  0.18513288212E+02  0.18513288212E+02  0.00000000000E+00 0.  1.
          1   -1    0    0  501    0  0.00000000000E+00 -0.00000000000E+00 -0.10899056412E+04  0.10899056412E+04  0.00000000000E+00 0. -1.
         23    2    1    2    0    0 -0.53492331215E+02  0.28189436039E+02 -0.24238407247E+03  0.26605882672E+03  0.91548822415E+02 0.  0.
          5    1    1    2  502    0 -0.46074300798E+02 -0.12142602592E+02 -0.23203171500E+03  0.23691026394E+03  0.41800000000E+01 0. -1.
         -5    1    1    2    0  502  0.99566632013E+02 -0.16046833447E+02 -0.59697656553E+03  0.60544983877E+03  0.41800000000E+01 0.  1.
        -11    1    3    3    0    0  0.34227540813E+01 -0.20612486570E+02 -0.12708001353E+02  0.24455738518E+02  0.00000000000E+00 0.  1.
         11    1    3    3    0    0 -0.56915085297E+02  0.48801922609E+02 -0.22967607112E+03  0.24160308820E+03  0.00000000000E+00 0. -1.
</event>
<event>
 8    1  0.5900800E-006  0.9555198E+02  0.7561462E-02  0.1289938E+00
          1   -1    0    0  501    0  0.00000000000E+00  0.00000000000E+00  0.25826902656E+03  0.25826902656E+03  0.00000000000E+00 0. -1.
         -1   -1    0    0    0  501 -0.00000000000E+00 -0.00000000000E+00 -0.52482250687E+02  0.52482250687E+02  0.00000000000E+00 0.  1.
         23    2    1    2    0    0 -0.61606135351E+01  0.27212025052E+02  0.10686015177E+03  0.14886192444E+03  0.99811487536E+02 0.  0.
         23    2    1    2    0    0  0.61606135351E+01 -0.27212025052E+02  0.98926624105E+02  0.16188935281E+03  0.12507293125E+03 0.  0.
          5    1    4    4  502    0  0.59794153829E+02 -0.37230231797E+02  0.72329889267E+02  0.10104709928E+03  0.41800000000E+01 0. -1.
         -5    1    4    4    0  502 -0.53633540294E+02  0.10018206744E+02  0.26596734839E+02  0.60842253532E+02  0.41800000000E+01 0. -1.
        -11    1    3    3    0    0  0.25069857322E+02  0.10680704994E+01 -0.85235862142E+01  0.26500755511E+02  0.00000000000E+00 0.  1.
         11    1    3    3    0    0 -0.31230470857E+02  0.26143954553E+02  0.11538373798E+03  0.12236116893E+03  0.00000000000E+00 0. -1.
</event>
<event>
 8    1  0.5900800E-006  0.1026105E+03  0.7561462E-02  0.1274900E+00
          1   -1    0    0  501    0  0.00000000000E+00  0.00000000000E+00  0.52900732404E+03  0.52900732404E+03  0.00000000000E+00 0. -1.
         -1   -1    0    0    0  501 -0.00000000000E+00 -0.00000000000E+00 -0.33577513748E+02  0.33577513748E+02  0.00000000000E+00 0.  1.
         23    2    1    2    0    0  0.47893136309E+02  0.54416126594E+02  0.18022993054E+03  0.21580919109E+03  0.93999530611E+02 0.  0.
         23    2    1    2    0    0 -0.47893136309E+02 -0.54416126594E+02  0.31519987975E+03  0.34677564670E+03  0.12509003802E+03 0.  0.
          5    1    4    4  502    0 -0.47818933304E+02 -0.77682641565E+02  0.12333961385E+03  0.15346457548E+03  0.41800000000E+01 0.  1.
         -5    1    4    4    0  502 -0.74203004129E-01  0.23266514971E+02  0.19186026591E+03  0.19331107123E+03  0.41800000000E+01 0.  1.
        -11    1    3    3    0    0  0.53934229139E+02  0.23615547309E+02  0.17415615422E+03  0.18383949847E+03  0.00000000000E+00 0.  1.
         11    1    3    3    0    0 -0.60410928305E+01  0.30800579285E+02  0.60737763253E+01  0.31969692612E+02  0.00000000000E+00 0. -1.
</event>
<event>
 8    1  0.5900800E-006  0.1881045E+03  0.7561462E-02  0.1160182E+00
         -1   -1    0    0    0  501 -0.00000000000E+00  0.00000000000E+00  0.45646948374E+02  0.45646948374E+02  0.00000000000E+00 0.  1.
          1   -1    0    0  501    0  0.00000000000E+00 -0.00000000000E+00 -0.89021946794E+03  0.89021946794E+03  0.00000000000E+00 0. -1.
         23    2    1    2    0    0  0.91252357902E+02  0.13848205874E+03 -0.31705529131E+03  0.36891973467E+03  0.89852320347E+02 0.  0.
         23    2    1    2    0    0 -0.91252357902E+02 -0.13848205874E+03 -0.52751722826E+03  0.56694668164E+03  0.12509932173E+03 0.  0.
          5    1    4    4  502    0 -0.10756075747E+03 -0.12986846275E+03 -0.35108556920E+03  0.38950440750E+03  0.41800000000E+01 0. -1.
         -5    1    4    4    0  502  0.16308399565E+02 -0.86135959862E+01 -0.17643165906E+03  0.17744227414E+03  0.41800000000E+01 0. -1.
        -11    1    3    3    0    0 -0.18299303322E+02  0.23777527423E+02 -0.49863409317E+02  0.58194457650E+02  0.00000000000E+00 0. -1.
         11    1    3    3    0    0  0.10955166122E+03  0.11470453131E+03 -0.26719188199E+03  0.31072527702E+03  0.00000000000E+00 0.  1.
</event>
<event>
 8    1  0.5900800E-006  0.8449368E+02  0.7561462E-02  0.1316762E+00
          1   -1    0    0  501    0  0.00000000000E+00  0.00000000000E+00  0.17310091238E+03  0.17310091238E+03  0.00000000000E+00 0. -1.
         -1   -1    0    0    0  501 -0.00000000000E+00 -0.00000000000E+00 -0.91034423483E+02  0.91034423483E+02  0.00000000000E+00 0.  1.
         23    2    1    2    0    0 -0.11707436207E+02 -0.32781121749E+02 -0.17432579014E+02  0.10054478221E+03  0.92702170482E+02 0.  0.
         23    2    1    2    0    0  0.11707436207E+02  0.32781121749E+02  0.99499067912E+02  0.16359055366E+03  0.12510051449E+03 0.  0.
          5    1    4    4  502    0  0.40833518173E+02  0.57535127951E+02  0.17181223541E+02  0.72734682216E+02  0.41800000000E+01 0.  1.
         -5    1    4    4    0  502 -0.29126081966E+02 -0.24754006201E+02  0.82317844372E+02  0.90855871443E+02  0.41800000000E+01 0.  1.
        -11    1    3    3    0    0 -0.25968188379E+02 -0.21331895125E+01  0.31620376028E+02  0.40972496694E+02  0.00000000000E+00 0. -1.
         11    1    3    3    0    0  0.14260752172E+02 -0.30647932237E+02 -0.49052955041E+02  0.59572285513E+02  0.00000000000E+00 0.  1.
</event>
<event>
 8    1  0.5900800E-006  0.1226755E+03  0.7561462E-02  0.1238747E+00
         -2   -1    0    0    0  501 -0.00000000000E+00  0.00000000000E+00  0.21369153032E+02  0.21369153032E+02  0.00000000000E+00 0.  1.
          2   -1    0    0  501    0  0.00000000000E+00 -0.00000000000E+00 -0.10832517773E+04  0.10832517773E+04  0.00000000000E+00 0. -1.
         23    2    1    2    0    0 -0.62338499101E+02 -0.27386079994E+02 -0.19361653736E+03  0.22541822759E+03  0.93219783000E+02 0.  0.
         23    2    1    2    0    0  0.62338499101E+02  0.27386079994E+02 -0.86826608695E+03  0.87920270278E+03  0.12031337826E+03 0.  0.
          5    1    4    4  502    0 -0.29353917881E+02  0.24371129469E+02 -0.41213306372E+03  0.41391634307E+03  0.41800000000E+01 0. -1.
         -5    1    4    4    0  502  0.91692416982E+02  0.30149505252E+01 -0.45613302322E+03  0.46528635971E+03  0.41800000000E+01 0.  1.
        -11    1    3    3    0    0  0.61558723437E+01 -0.44182624553E+02 -0.67152554640E+02  0.80619257448E+02  0.00000000000E+00 0.  1.
         11    1    3    3    0    0 -0.68494371445E+02  0.16796544559E+02 -0.12646398272E+03  0.14479897014E+03  0.00000000000E+00 0. -1.
</event>
<event>
 8    1  0.5900800E-006  0.1235841E+03  0.7561462E-02  0.1237299E+00
          2   -1    0    0  501    0  0.00000000000E+00  0.00000000000E+00  0.49332846504E+02  0.49332846504E+02  0.00000000000E+00 0.  1.
         -2   -1    0    0    0  501 -0.00000000000E+00 -0.00000000000E+00 -0.35554163660E+03  0.35554163660E+03  0.00000000000E+00 0. -1.
         23    2    1    2    0    0 -0.70961193348E+02  0.20841480684E+02 -0.16664206394E+03  0.20338977417E+03  0.90155224381E+02 0.  0.
         23    2    1    2    0    0  0.70961193348E+02 -0.20841480684E+02 -0.13956672616E+03  0.20148470894E+03  0.12508940246E+03 0.  0.
          5    1    4    4  502    0  0.10098956034E+03 -0.60872432539E+01 -0.66862501494E+02  0.12134254132E+03  0.41800000000E+01 0.  1.
         -5    1    4    4    0  502 -0.30028366993E+02 -0.14754237430E+02 -0.72704224663E+02  0.80142167616E+02  0.41800000000E+01 0.  1.
        -11    1    3    3    0    0 -0.86696070437E+01 -0.30350020269E+02 -0.74745665432E+02  0.81136923269E+02  0.00000000000E+00 0. -1.
         11    1    3    3    0    0 -0.62291586305E+02  0.51191500953E+02 -0.91896398510E+02  0.12225285090E+03  0.00000000000E+00 0.  1.
</event>
<event>
 8    1  0.5900800E-006  0.9654804E+02  0.7561462E-02  0.1287727E+00
         -1   -1    0    0    0  501 -0.00000000000E+00  0.00000000000E+00  0.26029461580E+02  0.26029461580E+02  0.00000000000E+00 0.  1.
          1   -1    0    0  501    0  0.00000000000E+00 -0.00000000000E+00 -0.51758877544E+03  0.51758877544E+03  0.00000000000E+00 0. -1.
         23    2    1    2    0    0  0.14141467010E+02  0.13695954795E+02 -0.12132616840E+03  0.15233046833E+03  0.89983177176E+02 0.  0.
         23    2    1    2    0    0 -0.14141467010E+02 -0.13695954795E+02 -0.37023314546E+03  0.39128776869E+03  0.12508387452E+03 0.  0.
          5    1    4    4  502    0  0.40303277738E+02 -0.36753299488E+02 -0.93935761328E+02  0.10870399660E+03  0.41800000000E+01 0.  1.
         -5    1    4    4    0  502 -0.54444744748E+02  0.23057344693E+02 -0.27629738413E+03  0.28258377209E+03  0.41800000000E+01 0.  1.
        -11    1    3    3    0    0  0.28147719468E+01  0.45381376732E+02 -0.10602995808E+03  0.11536786514E+03  0.00000000000E+00 0. -1.
         11    1    3    3    0    0  0.11326695063E+02 -0.31685421937E+02 -0.15296210318E+02  0.36962603189E+02  0.00000000000E+00 0.  1.
</event>
<event>
 8    1  0.5900800E-006  0.8751589E+02  0.7561462E-02  0.1308981E+00
         -1   -1    0    0    0  501 -0.00000000000E+00  0.00000000000E+00  0.52447475666E+02  0.52447475666E+02  0.00000000000E+00 0.  1.
          1   -1    0    0  501    0  0.00000000000E+00 -0.00000000000E+00 -0.40008233610E+03  0.40008233610E+03  0.00000000000E+00 0. -1.
         23    2    1    2    0    0  0.62105509424E+02  0.27963908250E+02 -0.51846996795E+02  0.12423419690E+03  0.90038603590E+02 0.  0.
         23    2    1    2    0    0 -0.62105509424E+02 -0.27963908250E+02 -0.29578786364E+03  0.32829561487E+03  0.12509386876E+03 0.  0.
          5    1    4    4  502    0 -0.79281503575E+02 -0.29498868170E+02 -0.29855637464E+03  0.31033710908E+03  0.41800000000E+01 0.  1.
         -5    1    4    4    0  502  0.17175994151E+02  0.15349599200E+01  0.27685110026E+01  0.17958505790E+02  0.41800000000E+01 0.  1.
        -11    1    3    3    0    0  0.37238433212E+02  0.30029110055E+01  0.21327851665E+02  0.43018549944E+02  0.00000000000E+00 0.  1.
         11    1    3    3    0    0  0.24867076212E+02  0.24960997245E+02 -0.73174848461E+02  0.81215646953E+02  0.00000000000E+00 0. -1.
</event>
<event>
 8    1  0.5900800E-006  0.1748192E+03  0.7561462E-02  0.1172913E+00
          1   -1    0    0  501    0  0.00000000000E+00  0.00000000000E+00  0.20509249000E+03  0.20509249000E+03  0.00000000000E+00 0. -1.
         -1   -1    0    0    0  501 -0.00000000000E+00 -0.00000000000E+00 -0.19108725358E+03  0.19108725358E+03  0.00000000000E+00 0.  1.
         23    2    1    2    0    0 -0.13662128249E+03 -0.85770908776E+02 -0.29713868714E+02  0.18741883196E+03  0.90669073877E+02 0.  0.
         23    2    1    2    0    0  0.13662128249E+03  0.85770908776E+02  0.43719105133E+02  0.20876091163E+03  0.12509090475E+03 0.  0.
          5    1    4    4  502    0  0.14250802860E+03  0.97087113413E+02  0.64389971027E+02  0.18411405860E+03  0.41800000000E+01 0.  1.
         -5    1    4    4    0  502 -0.58867461150E+01 -0.11316204638E+02 -0.20670865893E+02  0.24646853025E+02  0.41800000000E+01 0.  1.
        -11    1    3    3    0    0 -0.62013549779E+02 -0.55467740783E+02 -0.58711209624E+02  0.10183003859E+03  0.00000000000E+00 0.  1.
         11    1    3    3    0    0 -0.74607732709E+02 -0.30303167993E+02  0.28997340910E+02  0.85588793368E+02  0.00000000000E+00 0. -1.
</event>
<event>
 8    1  0.5900800E-006  0.1086173E+03  0.7561462E-02  0.1263152E+00
         -2   -1    0    0    0  501 -0.00000000000E+00  0.00000000000E+00  0.26234202462E+03  0.26234202462E+03  0.00000000000E+00 0.  1.
          2   -1    0    0  501    0  0.00000000000E+00 -0.00000000000E+00 -0.46977505831E+02  0.46977505831E+02  0.00000000000E+00 0. -1.
         23    2    1    2    0    0 -0.67508728721E+00 -0.20932869408E+02  0.11704414635E+03  0.14884252019E+03  0.89532803245E+02 0.  0.
         23    2    1    2    0    0  0.67508728721E+00  0.20932869408E+02  0.98320372444E+02  0.16047701027E+03  0.12508930579E+03 0.  0.
          5    1    4    4  502    0 -0.52437881901E+02  0.44179143491E+02  0.54133826323E+02  0.87461258453E+02  0.41800000000E+01 0.  1.
         -5    1    4    4    0  502  0.53112969189E+02 -0.23246274083E+02  0.44186546121E+02  0.73015751814E+02  0.41800000000E+01 0.  1.
        -11    1    3    3    0    0 -0.13299191826E+02  0.32706379315E+02  0.59369698653E+02  0.69074864236E+02  0.00000000000E+00 0.  1.
         11    1    3    3    0    0  0.12624104539E+02 -0.53639248723E+02  0.57674447697E+02  0.79767655953E+02  0.00000000000E+00 0. -1.
</event>
<event>
 8    1  0.5900800E-006  0.9964087E+02  0.7561462E-02  0.1281053E+00
          2   -1    0    0  501    0  0.00000000000E+00  0.00000000000E+00  0.85488969658E+03  0.85488969658E+03  0.00000000000E+00 0. -1.
         -2   -1    0    0    0  501 -0.00000000000E+00 -0.00000000000E+00 -0.11474403845E+03  0.11474403845E+03  0.00000000000E+00 0.  1.
         23    2    1    2    0    0  0.64426573909E+02  0.53780560575E+02 -0.73027466844E+02  0.14449315817E+03  0.92206993886E+02 0.  0.
         23    2    1    2    0    0 -0.64426573909E+02 -0.53780560575E+02  0.81317312498E+03  0.82514057686E+03  0.11208616454E+03 0.  0.
          5    1    4    4  502    0 -0.19231072302E+01 -0.17077240048E+02  0.13684895305E+02  0.22362451310E+02  0.41800000000E+01 0.  1.
         -5    1    4    4    0  502 -0.62503466679E+02 -0.36703320527E+02  0.79948822967E+03  0.80277812555E+03  0.41800000000E+01 0. -1.
        -11    1    3    3    0    0  0.59546528132E+02  0.70089090248E+02 -0.83739044810E+02  0.12438045349E+03  0.00000000000E+00 0.  1.
         11    1    3    3    0    0  0.48800457774E+01 -0.16308529674E+02  0.10711577966E+02  0.20112704677E+02  0.00000000000E+00 0. -1.
</event>
<event>
 8    1  0.5900800E-006  0.1259302E+03  0.7561462E-02  0.1233623E+00
         -2   -1    0    0    0  501 -0.00000000000E+00  0.00000000000E+00  0.62575702664E+02  0.62575702664E+02  0.00000000000E+00 0.  1.
          2   -1    0    0  501    0  0.00000000000E+00 -0.00000000000E+00 -0.32713363001E+03  0.32713363001E+03  0.00000000000E+00 0. -1.
         23    2    1    2    0    0 -0.23749923782E+02  0.73291895980E+02 -0.51259546902E+02  0.13071220757E+03  0.92316732842E+02 0.  0.
         23    2    1    2    0    0  0.23749923782E+02 -0.73291895980E+02 -0.21329838044E+03  0.25899712511E+03  0.12509017075E+03 0.  0.
          5    1    4    4  502    0  0.69112162796E+02 -0.44850221772E+02 -0.17362897144E+03  0.19223039709E+03  0.41800000000E+01 0.  1.
         -5    1    4    4    0  502 -0.45362239014E+02 -0.28441674208E+02 -0.39669409000E+02  0.66766728020E+02  0.41800000000E+01 0.  1.
        -11    1    3    3    0    0 -0.56607409413E+02  0.47198008675E+02 -0.14903823352E+02  0.75194246946E+02  0.00000000000E+00 0.  1.
         11    1    3    3    0    0  0.32857485631E+02  0.26093887305E+02 -0.36355723550E+02  0.55517960621E+02  0.00000000000E+00 0. -1.
</event>
<event>
 8    1  0.5900800E-006  0.1521214E+03  0.7561462E-02  0.1197890E+00
          1   -1    0    0  501    0  0.00000000000E+00  0.00000000000E+00  0.92651489562E+03  0.92651489562E+03  0.00000000000E+00 0. -1.
         -1   -1    0    0    0  501 -0.00000000000E+00 -0.00000000000E+00 -0.42709051714E+02  0.42709051714E+02  0.00000000000E+00 0.  1.
         23    2    1    2    0    0 -0.12514991508E+02 -0.13028334999E+03  0.16831029755E+03  0.23117831286E+03  0.89357035425E+02 0.  0.
         23    2    1    2    0    0  0.12514991508E+02  0.13028334999E+03  0.71549554635E+03  0.73804563447E+03  0.12508839039E+03 0.  0.
          5    1    4    4  502    0  0.41102294682E+02  0.13645223603E+03  0.65950563406E+03  0.67473977584E+03  0.41800000000E+01 0.  1.
         -5    1    4    4    0  502 -0.28587303174E+02 -0.61688860444E+01  0.55989912298E+02  0.63305858630E+02  0.41800000000E+01 0.  1.
        -11    1    3    3    0    0 -0.22865526703E+01 -0.10248136716E+03  0.17309514759E+03  0.20117054719E+03  0.00000000000E+00 0. -1.
         11    1    3    3    0    0 -0.10228438837E+02 -0.27801982831E+02 -0.47848500462E+01  0.30007765668E+02  0.00000000000E+00 0.  1.
</event>
<event>
 8    1  0.5900800E-006  0.8599935E+02  0.7561462E-02  0.1312840E+00
         -1   -1    0    0    0  501 -0.00000000000E+00  0.00000000000E+00  0.15580388321E+02  0.15580388321E+02  0.00000000000E+00 0.  1.
          1   -1    0    0  501    0  0.00000000000E+00 -0.00000000000E+00 -0.11719555849E+04  0.11719555849E+04  0.00000000000E+00 0. -1.
         23    2    1    2    0    0  0.72181217455E+01  0.82945497319E+02 -0.29979512328E+03  0.31787601071E+03  0.65084448520E+02 0.  0.
         23    2    1    2    0    0 -0.72181217455E+01 -0.82945497319E+02 -0.85658007327E+03  0.86965996248E+03  0.12508785554E+03 0.  0.
          5    1    4    4  502    0 -0.79933072794E+01 -0.13461897305E+02 -0.67497880817E+03  0.67517329592E+03  0.41800000000E+01 0. -1.
         -5    1    4    4    0  502  0.77518553387E+00 -0.69483600014E+02 -0.18160126510E+03  0.19448666656E+03  0.41800000000E+01 0. -1.
        -11    1    3    3    0    0  0.15153554666E+02  0.60670632772E+02 -0.28041342035E+03  0.28730165717E+03  0.00000000000E+00 0. -1.
         11    1    3    3    0    0 -0.79354329200E+01  0.22274864548E+02 -0.19381702926E+02  0.30574353543E+02  0.00000000000E+00 0.  1.
</event>
<event>
 8    1  0.5900800E-006  0.1128989E+03  0.7561462E-02  0.1255294E+00
         -1   -1    0    0    0  501 -0.00000000000E+00  0.00000000000E+00  0.64644712146E+02  0.64644712146E+02  0.00000000000E+00 0.  1.
          1   -1    0    0  501    0  0.00000000000E+00 -0.00000000000E+00 -0.23985938039E+03  0.23985938039E+03  0.00000000000E+00 0. -1.
         23    2    1    2    0    0  0.30183950934E+02  0.39255888946E+02 -0.34643051324E+02  0.10992600978E+03  0.91823150182E+02 0.  0.
         23    2    1    2    0    0 -0.30183950934E+02 -0.39255888946E+02 -0.14057161692E+03  0.19457808276E+03  0.12509258610E+03 0.  0.
          5    1    4    4  502    0 -0.68799282732E+01  0.44738665963E+02 -0.63864495864E+02  0.78390228199E+02  0.41800000000E+01 0. -1.
         -5    1    4    4    0  502 -0.23304022661E+02 -0.83994554909E+02 -0.76707121053E+02  0.11618785456E+03  0.41800000000E+01 0. -1.
        -11    1    3    3    0    0  0.57051355104E+02  0.31192205299E+02  0.41978252661E+00  0.65022972925E+02  0.00000000000E+00 0.  1.
         11    1    3    3    0    0 -0.26867404170E+02  0.80636836480E+01 -0.35062833851E+02  0.44903036851E+02  0.00000000000E+00 0. -1.
</event>
<event>
 8    1  0.5900800E-006  0.3840238E+03  0.7561462E-02  0.1049456E+00
         -1   -1    0    0    0  501 -0.00000000000E+00  0.00000000000E+00  0.32197244913E+03  0.32197244913E+03  0.00000000000E+00 0.  1.
          1   -1    0    0  501    0  0.00000000000E+00 -0.00000000000E+00 -0.63386826023E+03  0.63386826023E+03  0.00000000000E+00 0. -1.
         23    2    1    2    0    0 -0.19381370702E+03 -0.31513155070E+03  0.95420301407E+02  0.39154833150E+03  0.85635358970E+02 0.  0.
         23    2    1    2    0    0  0.19381370702E+03  0.31513155070E+03 -0.40731611250E+03  0.56429237786E+03  0.12509126643E+03 0.  0.
          5    1    4    4  502    0  0.20113852773E+03  0.32087536438E+03 -0.40350553352E+03  0.55340030248E+03  0.41800000000E+01 0.  1.
         -5    1    4    4    0  502 -0.73248207086E+01 -0.57438136833E+01 -0.38105789865E+01  0.10892075388E+02  0.41800000000E+01 0.  1.
        -11    1    3    3    0    0 -0.17066268711E+03 -0.20578410030E+03  0.77490339837E+02  0.27834798630E+03  0.00000000000E+00 0.  1.
         11    1    3    3    0    0 -0.23151019904E+02 -0.10934745040E+03  0.17929961570E+02  0.11320034520E+03  0.00000000000E+00 0. -1.
</event>
<event>
 8    1  0.5900800E-006  0.1181778E+03  0.7561462E-02  0.1246134E+00
         -1   -1    0    0    0  501 -0.00000000000E+00  0.00000000000E+00  0.29227004580E+02  0.29227004580E+02  0.00000000000E+00 0.  1.
          1   -1    0    0  501    0  0.00000000000E+00 -0.00000000000E+00 -0.73154836728E+03  0.73154836728E+03  0.00000000000E+00 0. -1.
         23    2    1    2    0    0 -0.49025947437E+02  0.72313072854E+02 -0.19021950177E+03  0.22642687299E+03  0.86330446132E+02 0.  0.
         23    2    1    2    0    0  0.49025947437E+02 -0.72313072854E+02 -0.51210186093E+03  0.53434849888E+03  0.12508908127E+03 0.  0.
          5    1    4    4  502    0  0.62593457009E+02  0.10521756787E+02 -0.15613238883E+03  0.16859253681E+03  0.41800000000E+01 0.  1.
         -5    1    4    4    0  502 -0.13567509572E+02 -0.82834829641E+02 -0.35596947210E+03  0.36575596206E+03  0.41800000000E+01 0.  1.
        -11    1    3    3    0    0 -0.40017071315E+02  0.46416892297E+02 -0.18932142458E+03  0.19899370767E+03  0.00000000000E+00 0. -1.
         11    1    3    3    0    0 -0.90088761224E+01  0.25896180557E+02 -0.89807718476E+00  0.27433165312E+02  0.00000000000E+00 0.  1.
</event>
<event>
 8    1  0.5900800E-006  0.1045358E+03  0.7561462E-02  0.1271037E+00
         -1   -1    0    0    0  501 -0.00000000000E+00  0.00000000000E+00  0.85205918939E+02  0.85205918939E+02  0.00000000000E+00 0.  1.
          1   -1    0    0  501    0  0.00000000000E+00 -0.00000000000E+00 -0.25829270080E+03  0.25829270080E+03  0.00000000000E+00 0. -1.
         23    2    1    2    0    0 -0.18840745490E+02  0.26173985019E+01  0.34275404441E+02  0.10058292316E+03  0.92629890508E+02 0.  0.
         23    2    1    2    0    0  0.18840745490E+02 -0.26173985019E+01 -0.20736218630E+03  0.24291569658E+03  0.12508850816E+03 0.  0.
          5    1    4    4  502    0 -0.35397110287E+02  0.33791997157E+02 -0.40454543984E+02  0.63630943868E+02  0.41800000000E+01 0. -1.
         -5    1    4    4    0  502  0.54237855778E+02 -0.36409395659E+02 -0.16690764232E+03  0.17928475272E+03  0.41800000000E+01 0. -1.
        -11    1    3    3    0    0  0.37176509107E+02 -0.65073193085E+01  0.11860845157E+02  0.39561568242E+02  0.00000000000E+00 0.  1.
         11    1    3    3    0    0 -0.56017254597E+02  0.91247178104E+01  0.22414559284E+02  0.61021354914E+02  0.00000000000E+00 0. -1.
</event>
<event>
 8    1  0.5900800E-006  0.1164136E+03  0.7561462E-02  0.1249134E+00
          2   -1    0    0  501    0  0.00000000000E+00  0.00000000000E+00  0.28711327647E+02  0.28711327647E+02  0.00000000000E+00 0. -1.
         -2   -1    0    0    0  501 -0.00000000000E+00 -0.00000000000E+00 -0.59269011636E+03  0.59269011636E+03  0.00000000000E+00 0.  1.
         23    2    1    2    0    0 -0.53420908406E+02  0.46785092491E+02 -0.19998299308E+03  0.23001565969E+03  0.88720729523E+02 0.  0.
         23    2    1    2    0    0  0.53420908406E+02 -0.46785092491E+02 -0.36399579563E+03  0.39138578431E+03  0.12508898669E+03 0.  0.
          5    1    4    4  502    0  0.27351387445E+02  0.31311000484E+02 -0.23220925835E+03  0.23593874037E+03  0.41800000000E+01 0.  1.
         -5    1    4    4    0  502  0.26069520962E+02 -0.78096092975E+02 -0.13178653728E+03  0.15544704394E+03  0.41800000000E+01 0.  1.
        -11    1    3    3    0    0 -0.74863943355E+02  0.27470340509E+02 -0.17305391306E+03  0.19054366021E+03  0.00000000000E+00 0.  1.
         11    1    3    3    0    0  0.21443034948E+02  0.19314751982E+02 -0.26929080020E+02  0.39471999476E+02  0.00000000000E+00 0. -1.
</event>
<event>
 8    1  0.5900800E-006  0.1605901E+03  0.7561462E-02  0.1188032E+00
          1   -1    0    0  501    0  0.00000000000E+00  0.00000000000E+00  0.56438537372E+02  0.56438537372E+02  0.00000000000E+00 0. -1.
         -1   -1    0    0    0  501 -0.00000000000E+00 -0.00000000000E+00 -0.76305295660E+03  0.76305295660E+03  0.00000000000E+00 0.  1.
         23    2    1    2    0    0  0.29649040113E+02 -0.12321321717E+03 -0.58053568406E+03  0.60130773997E+03  0.92134441016E+02 0.  0.
         23    2    1    2    0    0 -0.29649040113E+02  0.12321321717E+03 -0.12607873517E+03  0.21818375400E+03  0.12509092926E+03 0.  0.
          5    1    4    4  502    0  0.59278789763E+00  0.13256259627E+03 -0.13036041787E+03  0.18596909495E+03  0.41800000000E+01 0.  1.
         -5    1    4    4    0  502 -0.30241828010E+02 -0.93493791047E+01  0.42816827016E+01  0.32214659052E+02  0.41800000000E+01 0.  1.
        -11    1    3    3    0    0 -0.18376515563E+02 -0.10281358777E+03 -0.37916357519E+03  0.39328532506E+03  0.00000000000E+00 0.  1.
         11    1    3    3    0    0  0.48025555676E+02 -0.20399629403E+02 -0.20137210887E+03  0.20802241492E+03  0.00000000000E+00 0. -1.
</event>
<event>
 8    1  0.5900800E-006  0.1508595E+03  0.7561462E-02  0.1199421E+00
          2   -1    0    0  501    0  0.00000000000E+00  0.00000000000E+00  0.24685222899E+04  0.24685222899E+04  0.00000000000E+00 0. -1.
         -2   -1    0    0    0  501 -0.00000000000E+00 -0.00000000000E+00 -0.11620028371E+02  0.11620028371E+02  0.00000000000E+00 0.  1.
         23    2    1    2    0    0  0.11519650060E+03 -0.97811284074E+01  0.73432284228E+03  0.74916241618E+03  0.92996692927E+02 0.  0.
         23    2    1    2    0    0 -0.11519650060E+03  0.97811284074E+01  0.17225794192E+04  0.17309799021E+04  0.12508261913E+03 0.  0.
          5    1    4    4  502    0 -0.95375434193E+02  0.58118351588E+02  0.13666401157E+04  0.13712027183E+04  0.41800000000E+01 0. -1.
         -5    1    4    4    0  502 -0.19821066402E+02 -0.48337223180E+02  0.35593930350E+03  0.35977718382E+03  0.41800000000E+01 0. -1.
        -11    1    3    3    0    0 -0.10912076097E+01 -0.20713358803E+02  0.39739610122E+02  0.44827118797E+02  0.00000000000E+00 0.  1.
         11    1    3    3    0    0  0.11628770821E+03  0.10932230395E+02  0.69458323216E+03  0.70433529738E+03  0.00000000000E+00 0. -1.
</event>
<event>
 8    1  0.5900800E-006  0.2366931E+03  0.7561462E-02  0.1122016E+00
         -1   -1    0    0    0  501 -0.00000000000E+00  0.00000000000E+00  0.35241048131E+02  0.35241048131E+02  0.00000000000E+00 0.  1.
          1   -1    0    0  501    0  0.00000000000E+00 -0.00000000000E+00 -0.17388873137E+04  0.17388873137E+04  0.00000000000E+00 0. -1.
         23    2    1    2    0    0  0.14393860851E+03  0.16714670874E+03 -0.91588929032E+03  0.94656280509E+03  0.92041330951E+02 0.  0.
         23    2    1    2    0    0 -0.14393860851E+03 -0.16714670874E+03 -0.78775697521E+03  0.82756555669E+03  0.12508938154E+03 0.  0.
          5    1    4    4  502    0 -0.12483119989E+02 -0.10742367731E+03 -0.30320076607E+03  0.32193765184E+03  0.41800000000E+01 0.  1.
         -5    1    4    4    0  502 -0.13145548852E+03 -0.59723031438E+02 -0.48455620914E+03  0.50562790485E+03  0.41800000000E+01 0.  1.
        -11    1    3    3    0    0  0.78415690648E+02  0.85253056056E+02 -0.65876526660E+03  0.66887127356E+03  0.00000000000E+00 0. -1.
         11    1    3    3    0    0  0.65522917862E+02  0.81893652689E+02 -0.25712402371E+03  0.27769153153E+03  0.00000000000E+00 0.  1.
</event>
<event>
 8    1  0.5900800E-006  0.9744499E+02  0.7561462E-02  0.1285762E+00
          1   -1    0    0  501    0  0.00000000000E+00  0.00000000000E+00  0.46561847796E+02  0.46561847796E+02  0.00000000000E+00 0. -1.
         -1   -1    0    0    0  501 -0.00000000000E+00 -0.00000000000E+00 -0.30998764560E+03  0.30998764560E+03  0.00000000000E+00 0.  1.
         23    2    1    2    0    0 -0.23917138419E+02  0.42358810059E+02 -0.10686910278E+03  0.15033878054E+03  0.93885278428E+02 0.  0.
         23    2    1    2    0    0  0.23917138419E+02 -0.42358810059E+02 -0.15655669503E+03  0.20621071286E+03  0.12508621443E+03 0.  0.
          5    1    4    4  502    0  0.13652954953E+02  0.24560904649E+02  0.69024491982E+01  0.29236234727E+02  0.41800000000E+01 0.  1.
         -5    1    4    4    0  502  0.10264183466E+02 -0.66919714708E+02 -0.16345914422E+03  0.17697447813E+03  0.41800000000E+01 0.  1.
        -11    1    3    3    0    0 -0.54569905165E+02  0.40468504984E+02 -0.96314788185E+02  0.11786480759E+03  0.00000000000E+00 0.  1.
         11    1    3    3    0    0  0.30652766746E+02  0.18903050755E+01 -0.10554314593E+02  0.32473972948E+02  0.00000000000E+00 0. -1.
</event>
<event>
 8    1  0.5900800E-006  0.1571335E+03  0.7561462E-02  0.1191971E+00
          1   -1    0    0  501    0  0.00000000000E+00  0.00000000000E+00  0.64022772559E+03  0.64022772559E+03  0.00000000000E+00 0. -1.
         -1   -1    0    0    0  501 -0.00000000000E+00 -0.00000000000E+00 -0.72116522674E+02  0.72116522674E+02  0.00000000000E+00 0.  1.
         23    2    1    2    0    0 -0.15261250707E+02  0.13766628494E+03  0.65142318349E+02  0.17857456048E+03  0.91980651389E+02 0.  0.
         23    2    1    2    0    0  0.15261250707E+02 -0.13766628494E+03  0.50296888457E+03  0.53376968778E+03  0.11290468977E+03 0.  0.
          5    1    4    4  502    0  0.39540632353E+02 -0.11877085786E+03  0.25750443902E+03  0.28634941382E+03  0.41800000000E+01 0. -1.
         -5    1    4    4    0  502 -0.24279381646E+02 -0.18895427081E+02  0.24546444555E+03  0.24742027396E+03  0.41800000000E+01 0.  1.
        -11    1    3    3    0    0 -0.17560714672E+02 -0.25405341380E+01  0.28614555677E+02  0.33669360108E+02  0.00000000000E+00 0. -1.
         11    1    3    3    0    0  0.22994639647E+01  0.14020681907E+03  0.36527762672E+02  0.14490520037E+03  0.00000000000E+00 0.  1.
</event>
<event>
 8    1  0.5900800E-006  0.7161837E+02  0.7561462E-02  0.1354675E+00
         -2   -1    0    0    0  501 -0.00000000000E+00  0.00000000000E+00  0.36327159514E+02  0.36327159514E+02  0.00000000000E+00 0.  1.
          2   -1    0    0  501    0  0.00000000000E+00 -0.00000000000E+00 -0.45704596375E+03  0.45704596375E+03  0.00000000000E+00 0. -1.
         23    2    1    2    0    0 -0.51780746095E+02 -0.24450948431E+02 -0.99262837479E+02  0.14372203266E+03  0.86739940179E+02 0.  0.
         23    2    1    2    0    0  0.51780746095E+02  0.24450948431E+02 -0.32145596676E+03  0.34965109061E+03  0.12507138782E+03 0.  0.
          5    1    4    4  502    0  0.19065642179E+02 -0.10427232158E+02  0.23982269757E+01  0.22258701103E+02  0.41800000000E+01 0. -1.
         -5    1    4    4    0  502  0.32715103916E+02  0.34878180589E+02 -0.32385419373E+03  0.32739238950E+03  0.41800000000E+01 0. -1.
        -11    1    3    3    0    0 -0.37391628758E+02 -0.38020926723E+02 -0.12551787327E+02  0.54783867471E+02  0.00000000000E+00 0.  1.
         11    1    3    3    0    0 -0.14389117338E+02  0.13569978292E+02 -0.86711050153E+02  0.88938165189E+02  0.00000000000E+00 0. -1.
</event>
<event>
 8    1  0.5900800E-006  0.8587857E+02  0.7561462E-02  0.1313151E+00
         -2   -1    0    0    0  501 -0.00000000000E+00  0.00000000000E+00  0.17346858916E+02  0.17346858916E+02  0.00000000000E+00 0.  1.
          2   -1    0    0  501    0  0.00000000000E+00 -0.00000000000E+00 -0.10597355664E+04  0.10597355664E+04  0.00000000000E+00 0. -1.
         23    2    1    2    0    0  0.78021830360E+02 -0.20495359563E+02 -0.39451670538E+03  0.41232757626E+03  0.88674311653E+02 0.  0.
         23    2    1    2    0    0 -0.78021830360E+02  0.20495359563E+02 -0.64787200215E+03  0.66475484910E+03  0.12511359820E+03 0.  0.
          5    1    4    4  502    0 -0.54294062962E+02  0.67848091868E+01 -0.84837740480E+02  0.10103857441E+03  0.41800000000E+01 0.  1.
         -5    1    4    4    0  502 -0.23727767399E+02  0.13710550377E+02 -0.56303426167E+03  0.56371627469E+03  0.41800000000E+01 0.  1.
        -11    1    3    3    0    0  0.56241589197E+02 -0.31812357197E+02 -0.37618130151E+03  0.38169033788E+03  0.00000000000E+00 0. -1.
         11    1    3    3    0    0  0.21780241163E+02  0.11316997634E+02 -0.18335403867E+02  0.30637238380E+02  0.00000000000E+00 0.  1.
</event>
<event>
 8    1  0.5900800E-006  0.1873790E+03  0.7561462E-02  0.1160847E+00
          2   -1    0    0  501    0  0.00000000000E+00  0.00000000000E+00  0.51625340493E+03  0.51625340493E+03  0.00000000000E+00 0. -1.
         -2   -1    0    0    0  501 -0.00000000000E+00 -0.00000000000E+00 -0.94828013187E+02  0.94828013187E+02  0.00000000000E+00 0.  1.
         23    2    1    2    0    0 -0.13850436144E+03 -0.10172776776E+03  0.82083269281E+02  0.21066601215E+03  0.90058362780E+02 0.  0.
         23    2    1    2    0    0  0.13850436144E+03  0.10172776776E+03  0.33934212247E+03  0.40041540597E+03  0.12508966539E+03 0.  0.
          5    1    4    4  502    0  0.13111647300E+03  0.37592284691E+02  0.16300983359E+03  0.21258971661E+03  0.41800000000E+01 0. -1.
         -5    1    4    4    0  502  0.73878884398E+01  0.64135483069E+02  0.17633228888E+03  0.18782568937E+03  0.41800000000E+01 0. -1.
        -11    1    3    3    0    0 -0.11525884852E+03 -0.72141209955E+02  0.19112903737E+02  0.13731081322E+03  0.00000000000E+00 0.  1.
         11    1    3    3    0    0 -0.23245512918E+02 -0.29586557806E+02  0.62970365544E+02  0.73355198932E+02  0.00000000000E+00 0. -1.
</event>
<event>
 8    1  0.5900800E-006  0.9478722E+02  0.7561462E-02  0.1291656E+00
          1   -1    0    0  501    0  0.00000000000E+00  0.00000000000E+00  0.42142272468E+03  0.42142272468E+03  0.00000000000E+00 0. -1.
         -1   -1    0    0    0  501 -0.00000000000E+00 -0.00000000000E+00 -0.46538241765E+02  0.46538241765E+02  0.00000000000E+00 0.  1.
         23    2    1    2    0    0 -0.24422845087E+02 -0.32227103080E+02  0.40604916662E+02  0.10875887975E+03  0.92437401154E+02 0.  0.
         23    2    1    2    0    0  0.24422845087E+02  0.32227103080E+02  0.33427956625E+03  0.35920208670E+03  0.12509296198E+03 0.  0.
          5    1    4    4  502    0  0.38310263321E+02  0.57728393437E+02  0.92482695737E+02  0.11563202452E+03  0.41800000000E+01 0.  1.
         -5    1    4    4    0  502 -0.13887418234E+02 -0.25501290356E+02  0.24179687052E+03  0.24357006217E+03  0.41800000000E+01 0.  1.
        -11    1    3    3    0    0  0.29505060210E+02 -0.19659774357E+02 -0.65178506989E+01  0.36049101008E+02  0.00000000000E+00 0. -1.
         11    1    3    3    0    0 -0.53927905296E+02 -0.12567328723E+02  0.47122767361E+02  0.72709778742E+02  0.00000000000E+00 0.  1.
</event>
<event>
 8    1  0.5900800E-006  0.1072042E+03  0.7561462E-02  0.1265837E+00
          2   -1    0    0  501    0  0.00000000000E+00  0.00000000000E+00  0.10241361738E+04  0.10241361738E+04  0.00000000000E+00 0.  1.
         -2   -1    0    0    0  501 -0.00000000000E+00 -0.00000000000E+00 -0.16160613513E+02  0.16160613513E+02  0.00000000000E+00 0. -1.
         23    2    1    2    0    0 -0.27872017951E+01  0.36696813152E+02  0.20170796408E+03  0.22355426884E+03  0.89084138604E+02 0.  0.
         23    2    1    2    0    0  0.27872017951E+01 -0.36696813152E+02  0.80626759616E+03  0.81674251844E+03  0.12508589133E+03 0.  0.
          5    1    4    4  502    0 -0.27692887473E+02 -0.68934035228E+02  0.32463201503E+03  0.33304986835E+03  0.41800000000E+01 0. -1.
         -5    1    4    4    0  502  0.30480089268E+02  0.32237222076E+02  0.48163558114E+03  0.48369265008E+03  0.41800000000E+01 0. -1.
        -11    1    3    3    0    0  0.42436066800E+02  0.22554189215E+02  0.11717661260E+03  0.12664860740E+03  0.00000000000E+00 0.  1.
         11    1    3    3    0    0 -0.45223268595E+02  0.14142623937E+02  0.84531351483E+02  0.96905661433E+02  0.00000000000E+00 0. -1.
</event>
<event>
 8    1  0.5900800E-006  0.1666613E+03  0.7561462E-02  0.1181375E+00
         -2   -1    0    0    0  501 -0.00000000000E+00  0.00000000000E+00  0.12248924270E+03  0.12248924270E+03  0.00000000000E+00 0. -1.
          2   -1    0    0  501    0  0.00000000000E+00 -0.00000000000E+00 -0.29169777524E+03  0.29169777524E+03  0.00000000000E+00 0.  1.
         23    2    1    2    0    0 -0.92537524954E+02 -0.11710818020E+03 -0.12273406298E+03  0.21397546664E+03  0.91893039536E+02 0.  0.
         23    2    1    2    0    0  0.92537524954E+02  0.11710818020E+03 -0.46474469554E+02  0.20021155130E+03  0.12508904652E+03 0.  0.
          5    1    4    4  502    0 -0.77310951976E+01 -0.16836711483E+01 -0.43774719522E+02  0.44680007282E+02  0.41800000000E+01 0. -1.
         -5    1    4    4    0  502  0.10026862015E+03  0.11879185135E+03 -0.26997500315E+01  0.15553154402E+03  0.41800000000E+01 0. -1.
        -11    1    3    3    0    0 -0.92308184097E+02 -0.56436342186E+02 -0.10499269682E+03  0.15076248856E+03  0.00000000000E+00 0.  1.
         11    1    3    3    0    0 -0.22934085657E+00 -0.60671838013E+02 -0.17741366159E+02  0.63212978084E+02  0.00000000000E+00 0. -1.
</event>
<event>
 8    1  0.5900800E-006  0.9794434E+02  0.7561462E-02  0.1284679E+00
         -4   -1    0    0    0  501 -0.00000000000E+00  0.00000000000E+00  0.18101442740E+03  0.18101442740E+03  0.00000000000E+00 0.  1.
          4   -1    0    0  501    0  0.00000000000E+00 -0.00000000000E+00 -0.10966603311E+03  0.10966603311E+03  0.00000000000E+00 0. -1.
         23    2    1    2    0    0 -0.14254661965E+02  0.75699817552E+02  0.79076030515E+02  0.14357214421E+03  0.91794794111E+02 0.  0.
         23    2    1    2    0    0  0.14254661965E+02 -0.75699817552E+02 -0.77276362210E+01  0.14710831630E+03  0.12508989807E+03 0.  0.
          5    1    4    4  502    0  0.23181779293E+02 -0.34237479531E+02 -0.64128210386E+02  0.76416619025E+02  0.41800000000E+01 0.  1.
         -5    1    4    4    0  502 -0.89271173274E+01 -0.41462338021E+02  0.56400574165E+02  0.70691697278E+02  0.41800000000E+01 0.  1.
        -11    1    3    3    0    0 -0.15831238831E+02  0.93001483401E+02  0.83121290750E+02  0.12573405670E+03  0.00000000000E+00 0.  1.
         11    1    3    3    0    0  0.15765768655E+01 -0.17301665848E+02 -0.40452602347E+01  0.17838087513E+02  0.00000000000E+00 0. -1.
</event>
<event>
 8    1  0.5900800E-006  0.1053241E+03  0.7561462E-02  0.1269482E+00
         -2   -1    0    0    0  501 -0.00000000000E+00  0.00000000000E+00  0.23018753099E+02  0.23018753099E+02  0.00000000000E+00 0. -1.
          2   -1    0    0  501    0  0.00000000000E+00 -0.00000000000E+00 -0.88806428792E+03  0.88806428792E+03  0.00000000000E+00 0.  1.
         23    2    1    2    0    0 -0.48138142693E+02 -0.38693247718E+02 -0.14974939908E+03  0.18230958757E+03  0.83650791959E+02 0.  0.
         23    2    1    2    0    0  0.48138142693E+02  0.38693247718E+02 -0.71529613574E+03  0.72877345345E+03  0.12509091270E+03 0.  0.
          5    1    4    4  502    0 -0.34845921597E+02 -0.16383496904E+02 -0.16171843541E+03  0.16629185781E+03  0.41800000000E+01 0.  1.
         -5    1    4    4    0  502  0.82984064290E+02  0.55076744622E+02 -0.55357770033E+03  0.56248159563E+03  0.41800000000E+01 0.  1.
        -11    1    3    3    0    0 -0.19878514046E+02  0.47188659021E+01 -0.12169988405E+03  0.12340293673E+03  0.00000000000E+00 0.  1.
         11    1    3    3    0    0 -0.28259628647E+02 -0.43412113620E+02 -0.28049515033E+02  0.58906650845E+02  0.00000000000E+00 0. -1.
</event>
<event>
 8    1  0.5900800E-006  0.1072822E+03  0.7561462E-02  0.1265687E+00
         -1   -1    0    0    0  501 -0.00000000000E+00  0.00000000000E+00  0.50343084944E+02  0.50343084944E+02  0.00000000000E+00 0.  1.
          1   -1    0    0  501    0  0.00000000000E+00 -0.00000000000E+00 -0.36780621364E+03  0.36780621364E+03  0.00000000000E+00 0. -1.
         23    2    1    2    0    0  0.31448088356E+00  0.31779880725E+01 -0.16450489021E+02  0.92164225230E+02  0.90627961010E+02 0.  0.
         23    2    1    2    0    0 -0.31448088356E+00 -0.31779880725E+01 -0.30101263967E+03  0.32598507335E+03  0.12508980893E+03 0.  0.
          5    1    4    4  502    0 -0.49311306036E+02 -0.39670881088E+02 -0.13904538379E+03  0.15282825283E+03  0.41800000000E+01 0. -1.
         -5    1    4    4    0  502  0.48996825153E+02  0.36492893015E+02 -0.16196725589E+03  0.17315682053E+03  0.41800000000E+01 0. -1.
        -11    1    3    3    0    0 -0.42249966447E+02  0.16415071754E+02 -0.14332176982E+02  0.47538674177E+02  0.00000000000E+00 0. -1.
         11    1    3    3    0    0  0.42564447330E+02 -0.13237083681E+02 -0.21183120391E+01  0.44625551053E+02  0.00000000000E+00 0.  1.
</event>
<event>
 8    1  0.5900800E-006  0.9650653E+02  0.7561462E-02  0.1287819E+00
         -1   -1    0    0    0  501 -0.00000000000E+00  0.00000000000E+00  0.16285487786E+02  0.16285487786E+02  0.00000000000E+00 0.  1.
          1   -1    0    0  501    0  0.00000000000E+00 -0.00000000000E+00 -0.84554604814E+03  0.84554604814E+03  0.00000000000E+00 0. -1.
         23    2    1    2    0    0 -0.10499265559E+02  0.42039760887E+01 -0.18187594266E+03  0.20237538422E+03  0.88028572781E+02 0.  0.
         23    2    1    2    0    0  0.10499265559E+02 -0.42039760887E+01 -0.64738461769E+03  0.65945615171E+03  0.12509062639E+03 0.  0.
          5    1    4    4  502    0  0.19611385655E+01  0.59425399141E+02 -0.25825630139E+03  0.26504530506E+03  0.41800000000E+01 0. -1.
         -5    1    4    4    0  502  0.85381269935E+01 -0.63629375229E+02 -0.38912831630E+03  0.39441084665E+03  0.41800000000E+01 0. -1.
        -11    1    3    3    0    0 -0.16779830390E+02  0.34376770717E+02 -0.33550339855E+02  0.50881729307E+02  0.00000000000E+00 0.  1.
         11    1    3    3    0    0  0.62805648307E+01 -0.30172794628E+02 -0.14832560281E+03  0.15149365491E+03  0.00000000000E+00 0. -1.
</event>
<event>
 8    1  0.5900800E-006  0.1100683E+03  0.7561462E-02  0.1260444E+00
         -1   -1    0    0    0  501 -0.00000000000E+00  0.00000000000E+00  0.10100353155E+03  0.10100353155E+03  0.00000000000E+00 0.  1.
          1   -1    0    0  501    0  0.00000000000E+00 -0.00000000000E+00 -0.15401590335E+03  0.15401590335E+03  0.00000000000E+00 0. -1.
         23    2    1    2    0    0 -0.50722246251E+02 -0.34714380030E+02 -0.26658939593E+02  0.11317533603E+03  0.91214709228E+02 0.  0.
         23    2    1    2    0    0  0.50722246251E+02  0.34714380030E+02 -0.26353432212E+02  0.14184409887E+03  0.12508961008E+03 0.  0.
          5    1    4    4  502    0 -0.33269093641E+02  0.24557653660E+02 -0.38031718150E+02  0.56336444070E+02  0.41800000000E+01 0. -1.
         -5    1    4    4    0  502  0.83991339893E+02  0.10156726370E+02  0.11678285939E+02  0.85507654804E+02  0.41800000000E+01 0. -1.
        -11    1    3    3    0    0 -0.56006115539E+01 -0.46817760464E+02  0.16120153048E+02  0.49831003190E+02  0.00000000000E+00 0.  1.
         11    1    3    3    0    0 -0.45121634698E+02  0.12103380434E+02 -0.42779092641E+02  0.63344332840E+02  0.00000000000E+00 0. -1.
</event>
<event>
 8    1  0.5900800E-006  0.7561522E+02  0.7561462E-02  0.1341976E+00
          2   -1    0    0  501    0  0.00000000000E+00  0.00000000000E+00  0.46272382428E+03  0.46272382428E+03  0.00000000000E+00 0. -1.
         -2   -1    0    0    0  501 -0.00000000000E+00 -0.00000000000E+00 -0.33104352497E+02  0.33104352497E+02  0.00000000000E+00 0.  1.
         23    2    1    2    0    0 -0.72902379517E+01 -0.35422603168E+02  0.88341815993E+02  0.13055270588E+03  0.89060789205E+02 0.  0.
         23    2    1    2    0    0  0.72902379517E+01  0.35422603168E+02  0.34127765579E+03  0.36527547090E+03  0.12509125836E+03 0.  0.
          5    1    4    4  502    0  0.41676261735E+02  0.29825819766E+02  0.49427173213E+02  0.71323265269E+02  0.41800000000E+01 0. -1.
         -5    1    4    4    0  502 -0.34386023783E+02  0.55967834021E+01  0.29185048258E+03  0.29395220563E+03  0.41800000000E+01 0. -1.
        -11    1    3    3    0    0 -0.30568898475E+02 -0.23567513937E+02  0.95884470719E+02  0.10336206747E+03  0.00000000000E+00 0. -1.
         11    1    3    3    0    0  0.23278660524E+02 -0.11855089231E+02 -0.75426547256E+01  0.27190638403E+02  0.00000000000E+00 0.  1.
</event>
<event>
 8    1  0.5900800E-006  0.1525123E+03  0.7561462E-02  0.1197419E+00
          2   -1    0    0  501    0  0.00000000000E+00  0.00000000000E+00  0.76445440302E+03  0.76445440302E+03  0.00000000000E+00 0. -1.
         -2   -1    0    0    0  501 -0.00000000000E+00 -0.00000000000E+00 -0.40785779698E+02  0.40785779698E+02  0.00000000000E+00 0.  1.
         23    2    1    2    0    0  0.68694319502E+02  0.11932955972E+03  0.31251668136E+03  0.35396211633E+03  0.93080880496E+02 0.  0.
         23    2    1    2    0    0 -0.68694319502E+02 -0.11932955972E+03  0.41115194197E+03  0.45127806639E+03  0.12509004944E+03 0.  0.
          5    1    4    4  502    0 -0.22252273219E+02  0.13018962139E+02  0.17221044660E+03  0.17417969846E+03  0.41800000000E+01 0. -1.
         -5    1    4    4    0  502 -0.46442046283E+02 -0.13234852186E+03  0.23894149537E+03  0.27709836793E+03  0.41800000000E+01 0. -1.
        -11    1    3    3    0    0  0.12691811713E+02  0.11725117494E+02 -0.14859445664E+01  0.17342678457E+02  0.00000000000E+00 0.  1.
         11    1    3    3    0    0  0.56002507789E+02  0.10760444223E+03  0.31400262592E+03  0.33661943787E+03  0.00000000000E+00 0. -1.
</event>
<event>
 8    1  0.5900800E-006  0.6085201E+02  0.7561462E-02  0.1394291E+00
         -1   -1    0    0    0  501 -0.00000000000E+00  0.00000000000E+00  0.63081010669E+02  0.63081010669E+02  0.00000000000E+00 0.  1.
          1   -1    0    0  501    0  0.00000000000E+00 -0.00000000000E+00 -0.22125655634E+03  0.22125655634E+03  0.00000000000E+00 0. -1.
         23    2    1    2    0    0 -0.14239087111E+02  0.45383951758E+02 -0.70283786706E+02  0.12424379678E+03  0.90742799633E+02 0.  0.
         23    2    1    2    0    0  0.14239087111E+02 -0.45383951758E+02 -0.87891758964E+02  0.16009377023E+03  0.12507037736E+03 0.  0.
          5    1    4    4  502    0  0.22624690402E+02 -0.35161067994E+02  0.23295510785E+02  0.48045088625E+02  0.41800000000E+01 0. -1.
         -5    1    4    4    0  502 -0.83856032910E+01 -0.10222883764E+02 -0.11118726975E+03  0.11204868160E+03  0.41800000000E+01 0. -1.
        -11    1    3    3    0    0 -0.21890926926E+02  0.22459453806E+01  0.16179928600E+02  0.27313861716E+02  0.00000000000E+00 0.  1.
         11    1    3    3    0    0  0.76518398146E+01  0.43138006377E+02 -0.86463715305E+02  0.96929935062E+02  0.00000000000E+00 0. -1.
</event>
<event>
 8    1  0.5900800E-006  0.1112258E+03  0.7561462E-02  0.1258317E+00
          3   -1    0    0  501    0  0.00000000000E+00  0.00000000000E+00  0.13739499779E+03  0.13739499779E+03  0.00000000000E+00 0. -1.
         -3   -1    0    0    0  501 -0.00000000000E+00 -0.00000000000E+00 -0.10544882321E+03  0.10544882321E+03  0.00000000000E+00 0.  1.
         23    2    1    2    0    0 -0.23269063940E+02 -0.30095807387E+02 -0.21740063515E+02  0.10150512627E+03  0.91561199957E+02 0.  0.
         23    2    1    2    0    0  0.23269063940E+02  0.30095807387E+02  0.53686238096E+02  0.14133869473E+03  0.12508879849E+03 0.  0.
          5    1    4    4  502    0 -0.32384031695E+01  0.75657828264E+02  0.19285415805E+02  0.78255951183E+02  0.41800000000E+01 0. -1.
         -5    1    4    4    0  502  0.26507467109E+02 -0.45562020877E+02  0.34400822291E+02  0.63082743546E+02  0.41800000000E+01 0. -1.
        -11    1    3    3    0    0 -0.55019728629E+02 -0.28446466538E+02 -0.29758090245E+02  0.68716198468E+02  0.00000000000E+00 0.  1.
         11    1    3    3    0    0  0.31750664689E+02 -0.16493408489E+01  0.80180267296E+01  0.32788927797E+02  0.00000000000E+00 0. -1.
</event>
<event>
 8    1  0.5900800E-006  0.9459110E+02  0.7561462E-02  0.1292100E+00
          2   -1    0    0  501    0  0.00000000000E+00  0.00000000000E+00  0.54898283478E+02  0.54898283478E+02  0.00000000000E+00 0.  1.
         -2   -1    0    0    0  501 -0.00000000000E+00 -0.00000000000E+00 -0.24048047210E+03  0.24048047210E+03  0.00000000000E+00 0. -1.
         23    2    1    2    0    0 -0.57016063989E+01 -0.17407447991E+02 -0.12596980088E+03  0.15560395337E+03  0.89491183966E+02 0.  0.
         23    2    1    2    0    0  0.57016063989E+01  0.17407447991E+02 -0.59612387738E+02  0.13977480221E+03  0.12509129066E+03 0.  0.
          5    1    4    4  502    0 -0.18599403093E+02  0.62152075925E+02 -0.60315910377E+02  0.88680887354E+02  0.41800000000E+01 0. -1.
         -5    1    4    4    0  502  0.24301009492E+02 -0.44744627934E+02  0.70352263943E+00  0.51093914857E+02  0.41800000000E+01 0. -1.
        -11    1    3    3    0    0  0.10221071151E+02 -0.42309029699E+02 -0.24565571815E+02  0.49979912046E+02  0.00000000000E+00 0.  1.
         11    1    3    3    0    0 -0.15922677550E+02  0.24901581708E+02 -0.10140422907E+03  0.10562404132E+03  0.00000000000E+00 0. -1.
</event>
<event>
 8    1  0.5900800E-006  0.1208981E+03  0.7561462E-02  0.1241623E+00
          2   -1    0    0  501    0  0.00000000000E+00  0.00000000000E+00  0.30253144049E+04  0.30253144049E+04  0.00000000000E+00 0. -1.
         -2   -1    0    0    0  501 -0.00000000000E+00 -0.00000000000E+00 -0.73128738423E+01  0.73128738423E+01  0.00000000000E+00 0.  1.
         23    2    1    2    0    0 -0.10621600920E+02 -0.66001807933E+02  0.60073958494E+03  0.61120787510E+03  0.90652968023E+02 0.  0.
         23    2    1    2    0    0  0.10621600920E+02  0.66001807933E+02  0.24172619461E+04  0.24214194036E+04  0.12509018802E+03 0.  0.
          5    1    4    4  502    0  0.55868678280E+02  0.61974497221E+02  0.19849388584E+04  0.19866962253E+04  0.41800000000E+01 0. -1.
         -5    1    4    4    0  502 -0.45247077360E+02  0.40273107116E+01  0.43232308765E+03  0.43472317831E+03  0.41800000000E+01 0. -1.
        -11    1    3    3    0    0  0.16516872915E+01 -0.87694609380E+02  0.46945161251E+03  0.47757500885E+03  0.00000000000E+00 0.  1.
         11    1    3    3    0    0 -0.12273288211E+02  0.21692801447E+02  0.13128797243E+03  0.13363286625E+03  0.00000000000E+00 0. -1.
</event>
<event>
 8    1  0.5900800E-006  0.1583527E+03  0.7561462E-02  0.1190569E+00
          1   -1    0    0  501    0  0.00000000000E+00  0.00000000000E+00  0.47559194923E+03  0.47559194923E+03  0.00000000000E+00 0.  1.
         -1   -1    0    0    0  501 -0.00000000000E+00 -0.00000000000E+00 -0.83357501597E+02  0.83357501597E+02  0.00000000000E+00 0. -1.
         23    2    1    2    0    0  0.12679096672E+03  0.39438886007E+02  0.47448365842E+02  0.16887692771E+03  0.92933816881E+02 0.  0.
         23    2    1    2    0    0 -0.12679096672E+03 -0.39438886007E+02  0.34478608179E+03  0.39007252311E+03  0.12509099136E+03 0.  0.
          5    1    4    4  502    0  0.11949222317E+02  0.90531595121E+01  0.12297626727E+03  0.12395716326E+03  0.41800000000E+01 0.  1.
         -5    1    4    4    0  502 -0.13874018904E+03 -0.48492045519E+02  0.22180981451E+03  0.26611535985E+03  0.41800000000E+01 0.  1.
        -11    1    3    3    0    0  0.11656532947E+03  0.33615967211E+01  0.57550308049E+02  0.13004158690E+03  0.00000000000E+00 0.  1.
         11    1    3    3    0    0  0.10225637251E+02  0.36077289286E+02 -0.10101942207E+02  0.38835340809E+02  0.00000000000E+00 0. -1.
</event>
<event>
 8    1  0.5900800E-006  0.1195145E+03  0.7561462E-02  0.1243900E+00
          2   -1    0    0  501    0  0.00000000000E+00  0.00000000000E+00  0.26585816272E+03  0.26585816272E+03  0.00000000000E+00 0. -1.
         -2   -1    0    0    0  501 -0.00000000000E+00 -0.00000000000E+00 -0.73835644554E+02  0.73835644554E+02  0.00000000000E+00 0.  1.
         23    2    1    2    0    0  0.71567228700E+02 -0.44829748629E+01  0.34252826964E+02  0.12596427246E+03  0.97733190335E+02 0.  0.
         23    2    1    2    0    0 -0.71567228700E+02  0.44829748629E+01  0.15776969120E+03  0.21372953481E+03  0.12508826205E+03 0.  0.
          5    1    4    4  502    0 -0.49702429092E+02 -0.57817276156E+02  0.68236087185E+02  0.10240510180E+03  0.41800000000E+01 0. -1.
         -5    1    4    4    0  502 -0.21864799608E+02  0.62300251019E+02  0.89533604013E+02  0.11132443302E+03  0.41800000000E+01 0. -1.
        -11    1    3    3    0    0  0.26190562637E+02  0.29776089282E+02  0.52912730275E+02  0.66123506330E+02  0.00000000000E+00 0.  1.
         11    1    3    3    0    0  0.45376666063E+02 -0.34259064145E+02 -0.18659903311E+02  0.59840766127E+02  0.00000000000E+00 0. -1.
</event>
<event>
 8    1  0.5900800E-006  0.5143546E+02  0.7561462E-02  0.1437749E+00
          2   -1    0    0  501    0  0.00000000000E+00  0.00000000000E+00  0.28371144225E+03  0.28371144225E+03  0.00000000000E+00 0. -1.
         -2   -1    0    0    0  501 -0.00000000000E+00 -0.00000000000E+00 -0.42637091789E+02  0.42637091789E+02  0.00000000000E+00 0.  1.
         23    2    1    2    0    0 -0.17093020873E+02 -0.83983613000E+00  0.91299868690E+02  0.13046028408E+03  0.91604273987E+02 0.  0.
         23    2    1    2    0    0  0.17093020873E+02  0.83983613000E+00  0.14977448177E+03  0.19588824996E+03  0.12508770681E+03 0.  0.
          5    1    4    4  502    0  0.12726396054E+02 -0.17009531435E+02  0.16816717588E+03  0.16955517320E+03  0.41800000000E+01 0. -1.
         -5    1    4    4    0  502  0.43666248181E+01  0.17849367565E+02 -0.18392694109E+02  0.26333076755E+02  0.41800000000E+01 0. -1.
        -11    1    3    3    0    0 -0.54724866067E+01  0.29438723121E+02 -0.36121466027E+01  0.30160141441E+02  0.00000000000E+00 0.  1.
         11    1    3    3    0    0 -0.11620534266E+02 -0.30278559251E+02  0.94912015293E+02  0.10030014264E+03  0.00000000000E+00 0. -1.
</event>
<event>
 8    1  0.5900800E-006  0.9021908E+02  0.7561462E-02  0.1302322E+00
          1   -1    0    0  501    0  0.00000000000E+00  0.00000000000E+00  0.10297690917E+04  0.10297690917E+04  0.00000000000E+00 0. -1.
         -1   -1    0    0    0  501 -0.00000000000E+00 -0.00000000000E+00 -0.19816272930E+02  0.19816272930E+02  0.00000000000E+00 0.  1.
         23    2    1    2    0    0  0.39376094445E+02 -0.44589806874E+02  0.20295836262E+03  0.23078859449E+03  0.92371806839E+02 0.  0.
         23    2    1    2    0    0 -0.39376094445E+02  0.44589806874E+02  0.80699445613E+03  0.81879677012E+03  0.12509744539E+03 0.  0.
          5    1    4    4  502    0 -0.43140384221E+02  0.25159868126E+01  0.83991113115E+02  0.94548413116E+02  0.41800000000E+01 0.  1.
         -5    1    4    4    0  502  0.37642897756E+01  0.42073820061E+02  0.72300334301E+03  0.72424835700E+03  0.41800000000E+01 0.  1.
        -11    1    3    3    0    0 -0.15316538725E+02 -0.36115730180E+02  0.14676178647E+03  0.15191433209E+03  0.00000000000E+00 0. -1.
         11    1    3    3    0    0  0.54692633170E+02 -0.84740766941E+01  0.56196576148E+02  0.78874262403E+02  0.00000000000E+00 0.  1.
</event>
<event>
 7    1  0.5900800E-006  0.1004395E+03  0.7561462E-02  0.1279374E+00
          2   -1    0    0  501    0  0.00000000000E+00  0.00000000000E+00  0.12868401095E+04  0.12868401095E+04  0.00000000000E+00 0. -1.
         -2   -1    0    0    0  501 -0.00000000000E+00 -0.00000000000E+00 -0.15150949208E+02  0.15150949208E+02  0.00000000000E+00 0.  1.
         23    2    1    2    0    0 -0.16556509725E+02 -0.34636558677E+01  0.25024201791E+03  0.26672320436E+03  0.90741860739E+02 0.  0.
          5    1    1    2  502    0  0.22243737850E+02 -0.51089492103E+02  0.12253813041E+03  0.13467733990E+03  0.41800000000E+01 0. -1.
         -5    1    1    2    0  502 -0.56872281247E+01  0.54553147971E+02  0.89890901201E+03  0.90059051449E+03  0.41800000000E+01 0.  1.
        -11    1    3    3    0    0 -0.40375297626E+02  0.29012639234E+02  0.10809476486E+03  0.11898057019E+03  0.00000000000E+00 0.  1.
         11    1    3    3    0    0  0.23818787901E+02 -0.32476295101E+02  0.14214725306E+03  0.14774263417E+03  0.00000000000E+00 0. -1.
</event>
<event>
 8    1  0.5900800E-006  0.1711912E+03  0.7561462E-02  0.1176611E+00
          2   -1    0    0  501    0  0.00000000000E+00  0.00000000000E+00  0.19446411293E+04  0.19446411293E+04  0.00000000000E+00 0. -1.
         -2   -1    0    0    0  501 -0.00000000000E+00 -0.00000000000E+00 -0.26541588607E+02  0.26541588607E+02  0.00000000000E+00 0.  1.
         23    2    1    2    0    0 -0.10654425657E+03 -0.13193242564E+03  0.48466474121E+03  0.52234190333E+03  0.95829583427E+02 0.  0.
         23    2    1    2    0    0  0.10654425657E+03  0.13193242564E+03  0.14334347995E+04  0.14488408146E+04  0.12508612260E+03 0.  0.
          5    1    4    4  502    0  0.75771691218E+02  0.78858047519E+02  0.12615379075E+04  0.12662761568E+04  0.41800000000E+01 0.  1.
         -5    1    4    4    0  502  0.30772565353E+02  0.53074378124E+02  0.17189689200E+03  0.18256465779E+03  0.41800000000E+01 0.  1.
        -11    1    3    3    0    0 -0.78087598649E+02 -0.11267338483E+03  0.46013863325E+03  0.48012553204E+03  0.00000000000E+00 0. -1.
         11    1    3    3    0    0 -0.28456657921E+02 -0.19259040811E+02  0.24526107962E+02  0.42216371289E+02  0.00000000000E+00 0.  1.
</event>
<event>
 8    1  0.5900800E-006  0.8417246E+02  0.7561462E-02  0.1317611E+00
         -3   -1    0    0    0  501 -0.00000000000E+00  0.00000000000E+00  0.15589570928E+03  0.15589570928E+03  0.00000000000E+00 0.  1.
          3   -1    0    0  501    0  0.00000000000E+00 -0.00000000000E+00 -0.85688382421E+02  0.85688382421E+02  0.00000000000E+00 0. -1.
         23    2    1    2    0    0  0.11929901051E+02  0.11992161071E+02  0.68349308104E+02  0.11533972436E+03  0.91353651432E+02 0.  0.
         23    2    1    2    0    0 -0.11929901051E+02 -0.11992161071E+02  0.18580187528E+01  0.12624436734E+03  0.12509218035E+03 0.  0.
          5    1    4    4  502    0  0.33099500410E+02  0.15316872191E+02  0.44973881876E+02  0.58054336205E+02  0.41800000000E+01 0.  1.
         -5    1    4    4    0  502 -0.45029401461E+02 -0.27309033262E+02 -0.43115863124E+02  0.68190031138E+02  0.41800000000E+01 0.  1.
        -11    1    3    3    0    0  0.26892400843E+02  0.39327546956E+02  0.69376532210E+02  0.84160325535E+02  0.00000000000E+00 0.  1.
         11    1    3    3    0    0 -0.14962499792E+02 -0.27335385884E+02 -0.10272241064E+01  0.31179398821E+02  0.00000000000E+00 0. -1.
</event>
<event>
 8    1  0.5900800E-006  0.1493193E+03  0.7561462E-02  0.1201312E+00
         -2   -1    0    0    0  501 -0.00000000000E+00  0.00000000000E+00  0.62480329804E+02  0.62480329804E+02  0.00000000000E+00 0.  1.
          2   -1    0    0  501    0  0.00000000000E+00 -0.00000000000E+00 -0.47890714742E+03  0.47890714742E+03  0.00000000000E+00 0. -1.
         23    2    1    2    0    0 -0.10422272574E+03 -0.68943258829E+02 -0.11747762501E+03  0.19406392375E+03  0.90797932929E+02 0.  0.
         23    2    1    2    0    0  0.10422272574E+03  0.68943258829E+02 -0.29894919261E+03  0.34732355348E+03  0.12508989385E+03 0.  0.
          5    1    4    4  502    0  0.23294239408E+02 -0.34690673555E+02 -0.10379436978E+03  0.11196788834E+03  0.41800000000E+01 0. -1.
         -5    1    4    4    0  502  0.80928486327E+02  0.10363393238E+03 -0.19515482283E+03  0.23535566514E+03  0.41800000000E+01 0. -1.
        -11    1    3    3    0    0 -0.71758691932E+02 -0.44310209307E+02 -0.17546270071E+02  0.86142765860E+02  0.00000000000E+00 0.  1.
         11    1    3    3    0    0 -0.32464033803E+02 -0.24633049522E+02 -0.99931354939E+02  0.10792115789E+03  0.00000000000E+00 0. -1.
</event>
<event>
 8    1  0.5900800E-006  0.9179888E+02  0.7561462E-02  0.1298553E+00
         -2   -1    0    0    0  501 -0.00000000000E+00  0.00000000000E+00  0.52252937763E+02  0.52252937763E+02  0.00000000000E+00 0.  1.
          2   -1    0    0  501    0  0.00000000000E+00 -0.00000000000E+00 -0.40121892738E+03  0.40121892738E+03  0.00000000000E+00 0. -1.
         23    2    1    2    0    0  0.25106181893E+02  0.69575182485E+01 -0.15418146658E+02  0.96287965760E+02  0.91405282530E+02 0.  0.
         23    2    1    2    0    0 -0.25106181893E+02 -0.69575182485E+01 -0.33354784296E+03  0.35718389939E+03  0.12508975580E+03 0.  0.
          5    1    4    4  502    0 -0.18569966958E+02 -0.45510521795E+02 -0.30404637828E+03  0.30802227811E+03  0.41800000000E+01 0.  1.
         -5    1    4    4    0  502 -0.65362149345E+01  0.38553003547E+02 -0.29501464682E+02  0.49161621276E+02  0.41800000000E+01 0.  1.
        -11    1    3    3    0    0  0.15347007385E+02 -0.42158435493E+02 -0.95399129440E+01  0.45868009090E+02  0.00000000000E+00 0. -1.
         11    1    3    3    0    0  0.97591745083E+01  0.49115953742E+02 -0.58782337137E+01  0.50419956670E+02  0.00000000000E+00 0.  1.
</event>
<event>
 8    1  0.5900800E-006  0.9283218E+02  0.7561462E-02  0.1296135E+00
          2   -1    0    0  501    0  0.00000000000E+00  0.00000000000E+00  0.49340607572E+03  0.49340607572E+03  0.00000000000E+00 0. -1.
         -2   -1    0    0    0  501 -0.00000000000E+00 -0.00000000000E+00 -0.25433366263E+02  0.25433366263E+02  0.00000000000E+00 0.  1.
         23    2    1    2    0    0 -0.25113996351E+02 -0.76424349957E+01  0.15791415558E+03  0.18347128828E+03  0.89642141133E+02 0.  0.
         23    2    1    2    0    0  0.25113996351E+02  0.76424349957E+01  0.31005855389E+03  0.33536815371E+03  0.12508545902E+03 0.  0.
          5    1    4    4  502    0 -0.50866663703E+02 -0.21009829339E+01  0.12166507486E+03  0.13195337982E+03  0.41800000000E+01 0. -1.
         -5    1    4    4    0  502  0.75980660055E+02  0.97434179296E+01  0.18839347903E+03  0.20341477389E+03  0.41800000000E+01 0. -1.
        -11    1    3    3    0    0 -0.14612761420E+02  0.22004388235E+02  0.14822608631E+03  0.15056127842E+03  0.00000000000E+00 0. -1.
         11    1    3    3    0    0 -0.10501234932E+02 -0.29646823231E+02  0.96880692672E+01  0.32910009859E+02  0.00000000000E+00 0.  1.
</event>
<event>
 8    1  0.5900800E-006  0.9662943E+02  0.7561462E-02  0.1287548E+00
          2   -1    0    0  501    0  0.00000000000E+00  0.00000000000E+00  0.48712277839E+03  0.48712277839E+03  0.00000000000E+00 0. -1.
         -2   -1    0    0    0  501 -0.00000000000E+00 -0.00000000000E+00 -0.26383259984E+02  0.26383259984E+02  0.00000000000E+00 0.  1.
         23    2    1    2    0    0 -0.24840515376E+02 -0.10437768290E+02  0.11536586061E+03  0.14519253826E+03  0.83938031675E+02 0.  0.
         23    2    1    2    0    0  0.24840515376E+02  0.10437768290E+02  0.34537365780E+03  0.36831350011E+03  0.12508346275E+03 0.  0.
          5    1    4    4  502    0 -0.46358200628E+02  0.13951512088E+02  0.80921245063E+02  0.94389871054E+02  0.41800000000E+01 0. -1.
         -5    1    4    4    0  502  0.71198716005E+02 -0.35137437980E+01  0.26445241273E+03  0.27392362906E+03  0.41800000000E+01 0. -1.
        -11    1    3    3    0    0 -0.46135527522E+02 -0.19536456575E+02  0.11078377116E+03  0.12158619982E+03  0.00000000000E+00 0. -1.
         11    1    3    3    0    0  0.21295012145E+02  0.90986882852E+01  0.45820894528E+01  0.23606338440E+02  0.00000000000E+00 0.  1.
</event>
<event>
 8    1  0.5900800E-006  0.2766357E+03  0.7561462E-02  0.1097541E+00
          1   -1    0    0  501    0  0.00000000000E+00  0.00000000000E+00  0.77320859220E+03  0.77320859220E+03  0.00000000000E+00 0. -1.
         -1   -1    0    0    0  501 -0.00000000000E+00 -0.00000000000E+00 -0.11814982456E+03  0.11814982456E+03  0.00000000000E+00 0.  1.
         23    2    1    2    0    0 -0.25906709471E+03 -0.37388305228E+02  0.16722660001E+03  0.32378337293E+03  0.91418225265E+02 0.  0.
         23    2    1    2    0    0  0.25906709471E+03  0.37388305228E+02  0.48783216762E+03  0.56757504383E+03  0.12509021417E+03 0.  0.
          5    1    4    4  502    0  0.22671705900E+03 -0.16164152166E+02  0.37716673709E+03  0.44037952340E+03  0.41800000000E+01 0. -1.
         -5    1    4    4    0  502  0.32350035702E+02  0.53552457394E+02  0.11066543053E+03  0.12719552043E+03  0.41800000000E+01 0. -1.
        -11    1    3    3    0    0 -0.20040675003E+03 -0.16972163692E+02  0.79436973730E+02  0.21624327178E+03  0.00000000000E+00 0.  1.
         11    1    3    3    0    0 -0.58660344680E+02 -0.20416141535E+02  0.87789626279E+02  0.10754010115E+03  0.00000000000E+00 0. -1.
</event>
<event>
 8    1  0.5900800E-006  0.1045054E+03  0.7561462E-02  0.1271097E+00
          2   -1    0    0  501    0  0.00000000000E+00  0.00000000000E+00  0.11751898731E+04  0.11751898731E+04  0.00000000000E+00 0. -1.
         -2   -1    0    0    0  501 -0.00000000000E+00 -0.00000000000E+00 -0.12399042752E+02  0.12399042752E+02  0.00000000000E+00 0.  1.
         23    2    1    2    0    0 -0.10823926918E+01  0.28474557839E+02  0.27717325738E+03  0.29272695578E+03  0.89733405228E+02 0.  0.
         23    2    1    2    0    0  0.10823926918E+01 -0.28474557839E+02  0.88561757301E+03  0.89486196012E+03  0.12508984780E+03 0.  0.
          5    1    4    4  502    0 -0.53651052088E+02 -0.18186437530E+01  0.22165930124E+03  0.22810537276E+03  0.41800000000E+01 0.  1.
         -5    1    4    4    0  502  0.54733444780E+02 -0.26655914086E+02  0.66395827177E+03  0.66675658735E+03  0.41800000000E+01 0.  1.
        -11    1    3    3    0    0  0.33977158182E+01 -0.32664503893E+02  0.95200366642E+02  0.10070563091E+03  0.00000000000E+00 0.  1.
         11    1    3    3    0    0 -0.44801085100E+01  0.61139061732E+02  0.18197289074E+03  0.19202132487E+03  0.00000000000E+00 0. -1.
</event>
<event>
 8    1  0.5900800E-006  0.2156671E+03  0.7561462E-02  0.1137155E+00
          1   -1    0    0  501    0  0.00000000000E+00  0.00000000000E+00  0.17537975865E+04  0.17537975865E+04  0.00000000000E+00 0. -1.
         -1   -1    0    0    0  501 -0.00000000000E+00 -0.00000000000E+00 -0.35874470683E+02  0.35874470683E+02  0.00000000000E+00 0.  1.
         23    2    1    2    0    0 -0.73671441001E+02 -0.18473360312E+03  0.45217879025E+03  0.50230683401E+03  0.91063229707E+02 0.  0.
         23    2    1    2    0    0  0.73671441001E+02  0.18473360312E+03  0.12657443256E+04  0.12873652232E+04  0.12508610945E+03 0.  0.
          5    1    4    4  502    0  0.10159857688E+03  0.16098150892E+03  0.90965283720E+03  0.92936702850E+03  0.41800000000E+01 0.  1.
         -5    1    4    4    0  502 -0.27927135884E+02  0.23752094201E+02  0.35609148838E+03  0.35799819468E+03  0.41800000000E+01 0.  1.
        -11    1    3    3    0    0 -0.53101605280E+01 -0.71937832936E+02  0.81371542796E+02  0.10874087359E+03  0.00000000000E+00 0.  1.
         11    1    3    3    0    0 -0.68361280473E+02 -0.11279577018E+03  0.37080724745E+03  0.39356596042E+03  0.00000000000E+00 0. -1.
</event>
<event>
 8    1  0.5900800E-006  0.1527332E+03  0.7561462E-02  0.1197154E+00
         -1   -1    0    0    0  501 -0.00000000000E+00  0.00000000000E+00  0.24594537749E+03  0.24594537749E+03  0.00000000000E+00 0.  1.
          1   -1    0    0  501    0  0.00000000000E+00 -0.00000000000E+00 -0.97185065464E+02  0.97185065464E+02  0.00000000000E+00 0. -1.
         23    2    1    2    0    0 -0.10493775489E+03  0.24689818817E+02  0.85266507505E+02  0.16621126529E+03  0.93457411969E+02 0.  0.
         23    2    1    2    0    0  0.10493775489E+03 -0.24689818817E+02  0.63493804522E+02  0.17691917767E+03  0.12508961851E+03 0.  0.
          5    1    4    4  502    0  0.11757335437E+03 -0.56553087635E+02  0.48136883435E+02  0.13912719837E+03  0.41800000000E+01 0.  1.
         -5    1    4    4    0  502 -0.12635599484E+02  0.31863268818E+02  0.15356921087E+02  0.37791979299E+02  0.41800000000E+01 0.  1.
        -11    1    3    3    0    0 -0.98541641322E+02  0.52645469427E+02  0.79067263872E+02  0.13687086155E+03  0.00000000000E+00 0.  1.
         11    1    3    3    0    0 -0.63961135659E+01 -0.27955650609E+02  0.61992436337E+01  0.29340403736E+02  0.00000000000E+00 0. -1.
</event>
<event>
 8    1  0.5900800E-006  0.1029772E+03  0.7561462E-02  0.1274157E+00
         -4   -1    0    0    0  501 -0.00000000000E+00  0.00000000000E+00  0.29767929448E+03  0.29767929448E+03  0.00000000000E+00 0.  1.
          4   -1    0    0  501    0  0.00000000000E+00 -0.00000000000E+00 -0.64383087571E+02  0.64383087571E+02  0.00000000000E+00 0. -1.
         23    2    1    2    0    0  0.18950475234E+02 -0.80997393459E+02  0.12554258346E+03  0.17719008598E+03  0.93357849423E+02 0.  0.
         23    2    1    2    0    0 -0.18950475234E+02  0.80997393459E+02  0.10775362345E+03  0.18487229607E+03  0.12508886533E+03 0.  0.
          5    1    4    4  502    0  0.19428762831E+02  0.59673191973E+02  0.12304888283E+03  0.13819141302E+03  0.41800000000E+01 0.  1.
         -5    1    4    4    0  502 -0.38379238065E+02  0.21324201486E+02 -0.15295259380E+02  0.46680883057E+02  0.41800000000E+01 0.  1.
        -11    1    3    3    0    0  0.30051026114E+02 -0.18090223734E+02  0.10403275843E+03  0.10978677148E+03  0.00000000000E+00 0.  1.
         11    1    3    3    0    0 -0.11100550880E+02 -0.62907169725E+02  0.21509825027E+02  0.67403314498E+02  0.00000000000E+00 0. -1.
</event>
<event>
 8    1  0.5900800E-006  0.2048003E+03  0.7561462E-02  0.1145751E+00
          2   -1    0    0  501    0  0.00000000000E+00  0.00000000000E+00  0.57209502006E+03  0.57209502006E+03  0.00000000000E+00 0. -1.
         -2   -1    0    0    0  501 -0.00000000000E+00 -0.00000000000E+00 -0.10738405593E+03  0.10738405593E+03  0.00000000000E+00 0.  1.
         23    2    1    2    0    0  0.42026970230E+02  0.19771228212E+03  0.97440183315E+02  0.24199540425E+03  0.90613319252E+02 0.  0.
         23    2    1    2    0    0 -0.42026970230E+02 -0.19771228212E+03  0.36727078082E+03  0.43748367175E+03  0.12509086248E+03 0.  0.
          5    1    4    4  502    0 -0.11978857545E+02 -0.33309487289E+02  0.19195126123E+03  0.19523261526E+03  0.41800000000E+01 0. -1.
         -5    1    4    4    0  502 -0.30048112685E+02 -0.16440279483E+03  0.17531951958E+03  0.24225105649E+03  0.41800000000E+01 0. -1.
        -11    1    3    3    0    0  0.85201012074E+01  0.13835121476E+03  0.22046563070E+02  0.14035562580E+03  0.00000000000E+00 0.  1.
         11    1    3    3    0    0  0.33506869023E+02  0.59361067356E+02  0.75393620245E+02  0.10163977845E+03  0.00000000000E+00 0. -1.
</event>
<event>
 8    1  0.5900800E-006  0.9722334E+02  0.7561462E-02  0.1286246E+00
          1   -1    0    0  501    0  0.00000000000E+00  0.00000000000E+00  0.10978264779E+03  0.10978264779E+03  0.00000000000E+00 0. -1.
         -1   -1    0    0    0  501 -0.00000000000E+00 -0.00000000000E+00 -0.17147197090E+03  0.17147197090E+03  0.00000000000E+00 0.  1.
         23    2    1    2    0    0  0.87840943189E+01  0.79905327560E+02 -0.23289947041E+02  0.12767611566E+03  0.96419641112E+02 0.  0.
         23    2    1    2    0    0 -0.87840943189E+01 -0.79905327560E+02 -0.38399376061E+02  0.15357850303E+03  0.12509925189E+03 0.  0.
          5    1    4    4  502    0  0.10075044893E+02 -0.44093460208E+02  0.43017789499E+02  0.62559910295E+02  0.41800000000E+01 0. -1.
         -5    1    4    4    0  502 -0.18859139212E+02 -0.35811867353E+02 -0.81417165560E+02  0.91018592732E+02  0.41800000000E+01 0. -1.
        -11    1    3    3    0    0  0.27844967231E+02  0.17624767984E+01 -0.36731797805E+02  0.46126711292E+02  0.00000000000E+00 0.  1.
         11    1    3    3    0    0 -0.19060872912E+02  0.78142850762E+02  0.13441850765E+02  0.81549404372E+02  0.00000000000E+00 0. -1.
</event>
<event>
 8    1  0.6174540E-006  0.1770861E+03  0.7561462E-02  0.1170653E+00
         -2   -1    0    0    0  501 -0.00000000000E+00  0.00000000000E+00  0.18781026693E+03  0.18781026693E+03  0.00000000000E+00 0.  1.
          2   -1    0    0  501    0  0.00000000000E+00 -0.00000000000E+00 -0.18982002040E+03  0.18982002040E+03  0.00000000000E+00 0. -1.
         23    2    1    2    0    0  0.86963203882E+02  0.12787288711E+03 -0.71145804888E+00  0.17872402915E+03  0.89597423723E+02 0.  0.
         23    2    1    2    0    0 -0.86963203882E+02 -0.12787288711E+03 -0.12982954177E+01  0.19890625817E+03  0.12509172588E+03 0.  0.
          5    1    4    4  502    0 -0.11875215488E+03 -0.89316457835E+02  0.18450625991E+01  0.14866196752E+03  0.41800000000E+01 0. -1.
         -5    1    4    4    0  502  0.31788951003E+02 -0.38556429272E+02 -0.31433580168E+01  0.50244290657E+02  0.41800000000E+01 0. -1.
        -11    1    3    3    0    0  0.47198488557E+02  0.56010632869E+02  0.43764501829E+02  0.85324204871E+02  0.00000000000E+00 0.  1.
         11    1    3    3    0    0  0.39764715324E+02  0.71862254237E+02 -0.44475959878E+02  0.93399824282E+02  0.00000000000E+00 0. -1.
</event>
<event>
 8    1  0.5900800E-006  0.1767426E+03  0.7561462E-02  0.1170993E+00
         -1   -1    0    0    0  501 -0.00000000000E+00  0.00000000000E+00  0.18050487973E+03  0.18050487973E+03  0.00000000000E+00 0.  1.
          1   -1    0    0  501    0  0.00000000000E+00 -0.00000000000E+00 -0.21657405846E+03  0.21657405846E+03  0.00000000000E+00 0. -1.
         23    2    1    2    0    0  0.40128744126E+02 -0.15934222711E+03 -0.29381494990E+02  0.19045817849E+03  0.91710326909E+02 0.  0.
         23    2    1    2    0    0 -0.40128744126E+02  0.15934222711E+03 -0.66876837382E+01  0.20662075969E+03  0.12508857572E+03 0.  0.
          5    1    4    4  502    0 -0.21284333789E+02  0.53653031168E+02  0.57408690927E+02  0.81516261030E+02  0.41800000000E+01 0.  1.
         -5    1    4    4    0  502 -0.18844410337E+02  0.10568919594E+03 -0.64096374665E+02  0.12510449866E+03  0.41800000000E+01 0.  1.
        -11    1    3    3    0    0 -0.19279573211E+02 -0.10784457468E+03 -0.17568169653E+02  0.11095402118E+03  0.00000000000E+00 0.  1.
         11    1    3    3    0    0  0.59408317337E+02 -0.51497652431E+02 -0.11813325337E+02  0.79504157314E+02  0.00000000000E+00 0. -1.
</event>
<event>
 8    1  0.5900800E-006  0.1109056E+03  0.7561462E-02  0.1258902E+00
          1   -1    0    0  501    0  0.00000000000E+00  0.00000000000E+00  0.18007617038E+03  0.18007617038E+03  0.00000000000E+00 0. -1.
         -1   -1    0    0    0  501 -0.00000000000E+00 -0.00000000000E+00 -0.73347568076E+02  0.73347568076E+02  0.00000000000E+00 0.  1.
         23    2    1    2    0    0  0.80547889332E+01  0.38730225784E+02  0.44277575599E+02  0.10811858435E+03  0.90356043329E+02 0.  0.
         23    2    1    2    0    0 -0.80547889332E+01 -0.38730225784E+02  0.62451026701E+02  0.14530515411E+03  0.12509415278E+03 0.  0.
          5    1    4    4  502    0 -0.56765396924E+01  0.42935157587E+02  0.43094742879E+02  0.61239530728E+02  0.41800000000E+01 0.  1.
         -5    1    4    4    0  502 -0.23782492408E+01 -0.81665383371E+02  0.19356283822E+02  0.84065623379E+02  0.41800000000E+01 0.  1.
        -11    1    3    3    0    0  0.47668043572E+02  0.28662032014E+02  0.36456345936E+02  0.66504282690E+02  0.00000000000E+00 0. -1.
         11    1    3    3    0    0 -0.39613254639E+02  0.10068193770E+02  0.78212296636E+01  0.41614301656E+02  0.00000000000E+00 0.  1.
</event>
<event>
 8    1  0.6607387E-006  0.1528316E+03  0.7561462E-02  0.1197036E+00
         -1   -1    0    0    0  501 -0.00000000000E+00  0.00000000000E+00  0.51047687666E+03  0.51047687666E+03  0.00000000000E+00 0.  1.
          1   -1    0    0  501    0  0.00000000000E+00 -0.00000000000E+00 -0.51038423083E+02  0.51038423083E+02  0.00000000000E+00 0. -1.
         23    2    1    2    0    0 -0.95665662265E+02  0.66340321006E+02  0.25971929103E+03  0.29866878268E+03  0.90531621492E+02 0.  0.
         23    2    1    2    0    0  0.95665662265E+02 -0.66340321006E+02  0.19971916255E+03  0.26284651706E+03  0.12509032941E+03 0.  0.
          5    1    4    4  502    0  0.79628199253E+02  0.97629231661E+01  0.15082407502E+03  0.17088399220E+03  0.41800000000E+01 0.  1.
         -5    1    4    4    0  502  0.16037463012E+02 -0.76103244172E+02  0.48895087524E+02  0.91962524853E+02  0.41800000000E+01 0.  1.
        -11    1    3    3    0    0 -0.10956343079E+03  0.38154134523E+02  0.20688601803E+03  0.23719550545E+03  0.00000000000E+00 0.  1.
         11    1    3    3    0    0  0.13897768527E+02  0.28186186483E+02  0.52833273000E+02  0.61473277238E+02  0.00000000000E+00 0. -1.
</event>
<event>
 8    1  0.5900800E-006  0.1168892E+03  0.7561462E-02  0.1248319E+00
          1   -1    0    0  501    0  0.00000000000E+00  0.00000000000E+00  0.80170092366E+03  0.80170092366E+03  0.00000000000E+00 0. -1.
         -1   -1    0    0    0  501 -0.00000000000E+00 -0.00000000000E+00 -0.30948176787E+02  0.30948176787E+02  0.00000000000E+00 0.  1.
         23    2    1    2    0    0 -0.48200064883E+02 -0.43312348584E+02  0.11225852074E+03  0.15922186861E+03  0.92468492841E+02 0.  0.
         23    2    1    2    0    0  0.48200064883E+02  0.43312348584E+02  0.65849422613E+03  0.67342723184E+03  0.12526126673E+03 0.  0.
          5    1    4    4  502    0  0.85290589834E+02  0.24713283256E+02  0.55103570908E+03  0.55816042153E+03  0.41800000000E+01 0. -1.
         -5    1    4    4    0  502 -0.37090524950E+02  0.18599065328E+02  0.10745851705E+03  0.11526681031E+03  0.41800000000E+01 0. -1.
        -11    1    3    3    0    0 -0.25490443105E+02 -0.66198898239E+02  0.10408684521E+03  0.12596081995E+03  0.00000000000E+00 0. -1.
         11    1    3    3    0    0 -0.22709621779E+02  0.22886549655E+02  0.81716755342E+01  0.33261048653E+02  0.00000000000E+00 0.  1.
</event>
<event>
 8    1  0.5900800E-006  0.9251465E+02  0.7561462E-02  0.1296874E+00
          2   -1    0    0  501    0  0.00000000000E+00  0.00000000000E+00  0.80385081676E+03  0.80385081676E+03  0.00000000000E+00 0. -1.
         -2   -1    0    0    0  501 -0.00000000000E+00 -0.00000000000E+00 -0.27904047450E+02  0.27904047450E+02  0.00000000000E+00 0.  1.
         23    2    1    2    0    0  0.54634441940E+02  0.41655220982E+02  0.14451677530E+03  0.18439727867E+03  0.91636119278E+02 0.  0.
         23    2    1    2    0    0 -0.54634441940E+02 -0.41655220982E+02  0.63142999401E+03  0.64735758554E+03  0.12509167254E+03 0.  0.
          5    1    4    4  502    0 -0.40200621392E+02 -0.49289547405E+02  0.62658669612E+03  0.62982053761E+03  0.41800000000E+01 0. -1.
         -5    1    4    4    0  502 -0.14433820548E+02  0.76343264233E+01  0.48432978895E+01  0.17537047927E+02  0.41800000000E+01 0. -1.
        -11    1    3    3    0    0  0.24962747048E+02 -0.22589717345E+02  0.86728494052E+02  0.93033680731E+02  0.00000000000E+00 0. -1.
         11    1    3    3    0    0  0.29671694892E+02  0.64244938327E+02  0.57788281244E+02  0.91363597934E+02  0.00000000000E+00 0.  1.
</event>
<event>
 8    1  0.5900800E-006  0.1195463E+03  0.7561462E-02  0.1243847E+00
         -2   -1    0    0    0  501 -0.00000000000E+00  0.00000000000E+00  0.62805326099E+03  0.62805326099E+03  0.00000000000E+00 0.  1.
          2   -1    0    0  501    0  0.00000000000E+00 -0.00000000000E+00 -0.27192659309E+02  0.27192659309E+02  0.00000000000E+00 0. -1.
         23    2    1    2    0    0 -0.95231316466E+01  0.48950839405E+02  0.39846599452E+03  0.41214594672E+03  0.92748357920E+02 0.  0.
         23    2    1    2    0    0  0.95231316466E+01 -0.48950839405E+02  0.20239460716E+03  0.24309997358E+03  0.12508855036E+03 0.  0.
          5    1    4    4  502    0  0.23059234539E+02 -0.88937013164E+02  0.14549023025E+03  0.17212321199E+03  0.41800000000E+01 0.  1.
         -5    1    4    4    0  502 -0.13536102893E+02  0.39986173760E+02  0.56904376914E+02  0.70976761588E+02  0.41800000000E+01 0.  1.
        -11    1    3    3    0    0  0.27366089400E+02  0.60203009622E+02  0.22976141334E+03  0.23908913040E+03  0.00000000000E+00 0.  1.
         11    1    3    3    0    0 -0.36889221047E+02 -0.11252170217E+02  0.16870458118E+03  0.17305681632E+03  0.00000000000E+00 0. -1.
</event>
<event>
 7    1  0.5900800E-006  0.1995970E+03  0.7561462E-02  0.1150079E+00
          3   -1    0    0  501    0  0.00000000000E+00  0.00000000000E+00  0.70837868957E+02  0.70837868957E+02  0.00000000000E+00 0. -1.
         -3   -1    0    0    0  501 -0.00000000000E+00 -0.00000000000E+00 -0.78670818876E+03  0.78670818876E+03  0.00000000000E+00 0.  1.
         23    2    1    2    0    0 -0.10961462271E+01 -0.45241350253E+02 -0.31883008042E+03  0.33481011811E+03  0.91636312112E+02 0.  0.
          5    1    1    2  502    0 -0.85631196268E+02  0.14403511275E+03 -0.93520560698E+02  0.19194369787E+03  0.41800000000E+01 0. -1.
         -5    1    1    2    0  502  0.86727342495E+02 -0.98793762498E+02 -0.30351967868E+03  0.33079224174E+03  0.41800000000E+01 0.  1.
        -11    1    3    3    0    0  0.19346239414E+02  0.22275564058E+02 -0.65438440633E+02  0.71782081650E+02  0.00000000000E+00 0. -1.
         11    1    3    3    0    0 -0.20442385641E+02 -0.67516914311E+02 -0.25339163979E+03  0.26302803646E+03  0.00000000000E+00 0.  1.
</event>
<event>
 8    1  0.5900800E-006  0.1339906E+03  0.7561462E-02  0.1221652E+00
          2   -1    0    0  501    0  0.00000000000E+00  0.00000000000E+00  0.46168259382E+03  0.46168259382E+03  0.00000000000E+00 0. -1.
         -2   -1    0    0    0  501 -0.00000000000E+00 -0.00000000000E+00 -0.47987098981E+02  0.47987098981E+02  0.00000000000E+00 0.  1.
         23    2    1    2    0    0 -0.94101331959E+02 -0.37328508328E+02  0.19169880441E+03  0.23548307688E+03  0.91953084092E+02 0.  0.
         23    2    1    2    0    0  0.94101331959E+02  0.37328508328E+02  0.22199669043E+03  0.27418661592E+03  0.12508913453E+03 0.  0.
          5    1    4    4  502    0  0.11332829399E+03  0.37994379211E+02  0.22447000408E+03  0.25434451086E+03  0.41800000000E+01 0. -1.
         -5    1    4    4    0  502 -0.19226962031E+02 -0.66587088325E+00 -0.24733136533E+01  0.19842105064E+02  0.41800000000E+01 0. -1.
        -11    1    3    3    0    0 -0.53353646593E+02 -0.61419046118E+02  0.79693629185E+02  0.11388584356E+03  0.00000000000E+00 0.  1.
         11    1    3    3    0    0 -0.40747685366E+02  0.24090537790E+02  0.11200517522E+03  0.12159723332E+03  0.00000000000E+00 0. -1.
</event>
<event>
 8    1  0.5900800E-006  0.6839852E+02  0.7561462E-02  0.1365625E+00
          1   -1    0    0  501    0  0.00000000000E+00  0.00000000000E+00  0.20983721433E+03  0.20983721433E+03  0.00000000000E+00 0. -1.
         -1   -1    0    0    0  501 -0.00000000000E+00 -0.00000000000E+00 -0.72229348988E+02  0.72229348988E+02  0.00000000000E+00 0.  1.
         23    2    1    2    0    0 -0.29526500963E+02 -0.35063696960E+02  0.24183524405E+02  0.10709892281E+03  0.93723312527E+02 0.  0.
         23    2    1    2    0    0  0.29526500963E+02  0.35063696960E+02  0.11342434094E+03  0.17496764051E+03  0.12508923616E+03 0.  0.
          5    1    4    4  502    0  0.10346992557E+02  0.66406979406E+01 -0.27211789988E+02  0.30151501429E+02  0.41800000000E+01 0.  1.
         -5    1    4    4    0  502  0.19179508406E+02  0.28422999020E+02  0.14063613092E+03  0.14481613908E+03  0.41800000000E+01 0.  1.
        -11    1    3    3    0    0  0.24818237861E+02 -0.22480519907E+02  0.36958461885E+02  0.49872303042E+02  0.00000000000E+00 0. -1.
         11    1    3    3    0    0 -0.54344738824E+02 -0.12583177054E+02 -0.12774937480E+02  0.57226619769E+02  0.00000000000E+00 0.  1.
</event>
<event>
 8    1  0.5900800E-006  0.1419699E+03  0.7561462E-02  0.1210703E+00
          1   -1    0    0  501    0  0.00000000000E+00  0.00000000000E+00  0.43943695425E+03  0.43943695425E+03  0.00000000000E+00 0. -1.
         -1   -1    0    0    0  501 -0.00000000000E+00 -0.00000000000E+00 -0.82402707290E+02  0.82402707290E+02  0.00000000000E+00 0.  1.
         23    2    1    2    0    0  0.11788981921E+03 -0.32228683765E+02  0.32113750586E+02  0.15284398417E+03  0.85984260136E+02 0.  0.
         23    2    1    2    0    0 -0.11788981921E+03  0.32228683765E+02  0.32492049638E+03  0.36899567737E+03  0.12509110049E+03 0.  0.
          5    1    4    4  502    0 -0.59924260767E+02 -0.37211987453E+02  0.74380976381E+02  0.10259459579E+03  0.41800000000E+01 0.  1.
         -5    1    4    4    0  502 -0.57965558443E+02  0.69440671218E+02  0.25053951999E+03  0.26640108157E+03  0.41800000000E+01 0.  1.
        -11    1    3    3    0    0  0.68456191917E+02 -0.12968839624E+02 -0.25805647096E+02  0.74299208845E+02  0.00000000000E+00 0. -1.
         11    1    3    3    0    0  0.49433627293E+02 -0.19259844141E+02  0.57919397682E+02  0.78544775329E+02  0.00000000000E+00 0.  1.
</event>
<event>
 8    1  0.5900800E-006  0.9054512E+02  0.7561462E-02  0.1301537E+00
         -2   -1    0    0    0  501 -0.00000000000E+00  0.00000000000E+00  0.25611865653E+02  0.25611865653E+02  0.00000000000E+00 0.  1.
          2   -1    0    0  501    0  0.00000000000E+00 -0.00000000000E+00 -0.61865782294E+03  0.61865782294E+03  0.00000000000E+00 0. -1.
         23    2    1    2    0    0 -0.71533556965E+01 -0.59881360572E+02 -0.32061139767E+03  0.33848385518E+03  0.90236932915E+02 0.  0.
         23    2    1    2    0    0  0.71533556965E+01  0.59881360572E+02 -0.27243455962E+03  0.30578583341E+03  0.12508972299E+03 0.  0.
          5    1    4    4  502    0  0.13460734264E+02  0.81131438048E+00  0.98971585337E+01  0.17241686258E+02  0.41800000000E+01 0.  1.
         -5    1    4    4    0  502 -0.63073785679E+01  0.59070046192E+02 -0.28233171815E+03  0.28854414715E+03  0.41800000000E+01 0.  1.
        -11    1    3    3    0    0  0.10037655270E+02  0.21772809434E+02 -0.53132954161E+02  0.58291685271E+02  0.00000000000E+00 0.  1.
         11    1    3    3    0    0 -0.17191010967E+02 -0.81654170006E+02 -0.26747844351E+03  0.28019216991E+03  0.00000000000E+00 0. -1.
</event>
<event>
 8    1  0.5900800E-006  0.1093953E+03  0.7561462E-02  0.1261694E+00
         -1   -1    0    0    0  501 -0.00000000000E+00  0.00000000000E+00  0.11647318692E+02  0.11647318692E+02  0.00000000000E+00 0.  1.
          1   -1    0    0  501    0  0.00000000000E+00 -0.00000000000E+00 -0.16133040778E+04  0.16133040778E+04  0.00000000000E+00 0. -1.
         23    2    1    2    0    0  0.63390540751E+02 -0.17679958778E+02 -0.41037102762E+03  0.42528569892E+03  0.90180950256E+02 0.  0.
         23    2    1    2    0    0 -0.63390540751E+02  0.17679958778E+02 -0.11912857315E+04  0.11996656976E+04  0.12532019115E+03 0.  0.
          5    1    4    4  502    0 -0.87900144792E+02  0.24417778010E+02 -0.52511519883E+03  0.53299728684E+03  0.41800000000E+01 0. -1.
         -5    1    4    4    0  502  0.24509604041E+02 -0.67378192318E+01 -0.66617053270E+03  0.66666841078E+03  0.41800000000E+01 0. -1.
        -11    1    3    3    0    0  0.24952827121E+01 -0.37563772478E+02 -0.75761836040E+02  0.84599759094E+02  0.00000000000E+00 0.  1.
         11    1    3    3    0    0  0.60895258039E+02  0.19883813700E+02 -0.33460919158E+03  0.34068593982E+03  0.00000000000E+00 0. -1.
</event>
<event>
 8    1  0.5900800E-006  0.6412184E+02  0.7561462E-02  0.1381306E+00
          1   -1    0    0  501    0  0.00000000000E+00  0.00000000000E+00  0.93330491934E+03  0.93330491934E+03  0.00000000000E+00 0. -1.
         -1   -1    0    0    0  501 -0.00000000000E+00 -0.00000000000E+00 -0.18073114509E+02  0.18073114509E+02  0.00000000000E+00 0.  1.
         23    2    1    2    0    0  0.33321355431E+02  0.10759553333E+02  0.18671564282E+03  0.21137167890E+03  0.92677800201E+02 0.  0.
         23    2    1    2    0    0 -0.33321355431E+02 -0.10759553333E+02  0.72851616202E+03  0.74000635496E+03  0.12509007292E+03 0.  0.
          5    1    4    4  502    0 -0.10070608237E+02 -0.21375344579E+01  0.70648721105E+03  0.70657458062E+03  0.41800000000E+01 0. -1.
         -5    1    4    4    0  502 -0.23250747194E+02 -0.86220188747E+01  0.22028950964E+02  0.33431774334E+02  0.41800000000E+01 0. -1.
        -11    1    3    3    0    0 -0.23308676644E+02 -0.17065390992E+02  0.10026812584E+03  0.10434662925E+03  0.00000000000E+00 0. -1.
         11    1    3    3    0    0  0.56630032075E+02  0.27824944324E+02  0.86447516977E+02  0.10702504964E+03  0.00000000000E+00 0.  1.
</event>
<event>
 8    1  0.5900800E-006  0.1080239E+03  0.7561462E-02  0.1264274E+00
          2   -1    0    0  501    0  0.00000000000E+00  0.00000000000E+00  0.68017073090E+02  0.68017073090E+02  0.00000000000E+00 0. -1.
         -2   -1    0    0    0  501 -0.00000000000E+00 -0.00000000000E+00 -0.19694760270E+03  0.19694760270E+03  0.00000000000E+00 0.  1.
         23    2    1    2    0    0  0.29771243426E+02 -0.23168360639E+02 -0.69786073746E+02  0.12154926752E+03  0.92092499567E+02 0.  0.
         23    2    1    2    0    0 -0.29771243426E+02  0.23168360639E+02 -0.59144455864E+02  0.14341540827E+03  0.12508722077E+03 0.  0.
          5    1    4    4  502    0  0.36164815948E+02 -0.20872030208E+02  0.37368399257E+01  0.42130415737E+02  0.41800000000E+01 0.  1.
         -5    1    4    4    0  502 -0.65936059374E+02  0.44040390847E+02 -0.62881295790E+02  0.10128499253E+03  0.41800000000E+01 0.  1.
        -11    1    3    3    0    0 -0.29337258468E+02  0.40359162733E+01 -0.40555996957E+02  0.50217051325E+02  0.00000000000E+00 0.  1.
         11    1    3    3    0    0  0.59108501894E+02 -0.27204276912E+02 -0.29230076788E+02  0.71332216197E+02  0.00000000000E+00 0. -1.
</event>
<event>
 8    1  0.5900800E-006  0.9840904E+02  0.7561462E-02  0.1283678E+00
          1   -1    0    0  501    0  0.00000000000E+00  0.00000000000E+00  0.68831574902E+03  0.68831574902E+03  0.00000000000E+00 0. -1.
         -1   -1    0    0    0  501 -0.00000000000E+00 -0.00000000000E+00 -0.21599385752E+02  0.21599385752E+02  0.00000000000E+00 0.  1.
         23    2    1    2    0    0 -0.96313566187E+01 -0.32987837230E+02  0.17652717269E+03  0.20285268318E+03  0.93842463415E+02 0.  0.
         23    2    1    2    0    0  0.96313566187E+01  0.32987837230E+02  0.49018919058E+03  0.50706245160E+03  0.12508367927E+03 0.  0.
          5    1    4    4  502    0 -0.55253048254E+02  0.12505022232E+02  0.15672360031E+03  0.16670043256E+03  0.41800000000E+01 0.  1.
         -5    1    4    4    0  502  0.64884404873E+02  0.20482814998E+02  0.33346559027E+03  0.34036201903E+03  0.41800000000E+01 0.  1.
        -11    1    3    3    0    0  0.25827866336E+02 -0.41920202350E+01  0.14501997156E+03  0.14736160920E+03  0.00000000000E+00 0. -1.
         11    1    3    3    0    0 -0.35459222955E+02 -0.28795816995E+02  0.31507201130E+02  0.55491073985E+02  0.00000000000E+00 0.  1.
</event>
<event>
 8    1  0.5900800E-006  0.1515870E+03  0.7561462E-02  0.1198536E+00
         -1   -1    0    0    0  501 -0.00000000000E+00  0.00000000000E+00  0.79015900703E+03  0.79015900703E+03  0.00000000000E+00 0.  1.
          1   -1    0    0  501    0  0.00000000000E+00 -0.00000000000E+00 -0.40958379343E+02  0.40958379343E+02  0.00000000000E+00 0. -1.
         23    2    1    2    0    0 -0.40337198812E+02  0.10688190301E+03  0.57078085104E+03  0.58921156645E+03  0.91261488766E+02 0.  0.
         23    2    1    2    0    0  0.40337198812E+02 -0.10688190301E+03  0.17841977665E+03  0.24190581992E+03  0.11676462740E+03 0.  0.
          5    1    4    4  502    0  0.79041168028E+01 -0.12468624939E+03  0.12492120160E+03  0.17672553539E+03  0.41800000000E+01 0. -1.
         -5    1    4    4    0  502  0.32433082010E+02  0.17804346381E+02  0.53498575055E+02  0.65180284531E+02  0.41800000000E+01 0.  1.
        -11    1    3    3    0    0 -0.48516776446E+02  0.18111531816E+02  0.13922996713E+03  0.14854928114E+03  0.00000000000E+00 0.  1.
         11    1    3    3    0    0  0.81795776333E+01  0.88770371197E+02  0.43155088391E+03  0.44066228531E+03  0.00000000000E+00 0. -1.
</event>
<event>
 8    1  0.5900800E-006  0.1083639E+03  0.7561462E-02  0.1263630E+00
          2   -1    0    0  501    0  0.00000000000E+00  0.00000000000E+00  0.10415063327E+03  0.10415063327E+03  0.00000000000E+00 0. -1.
         -2   -1    0    0    0  501 -0.00000000000E+00 -0.00000000000E+00 -0.20148607790E+03  0.20148607790E+03  0.00000000000E+00 0.  1.
         23    2    1    2    0    0  0.20861005062E+02  0.63653484634E+02 -0.11940564037E+03  0.16203451601E+03  0.86663312812E+02 0.  0.
         23    2    1    2    0    0 -0.20861005062E+02 -0.63653484634E+02  0.22070195740E+02  0.14360219516E+03  0.12509016459E+03 0.  0.
          5    1    4    4  502    0 -0.65467291160E+02 -0.30559362617E+01  0.23954752961E+01  0.65715414175E+02  0.41800000000E+01 0. -1.
         -5    1    4    4    0  502  0.44606286098E+02 -0.60597548372E+02  0.19674720444E+02  0.77886780989E+02  0.41800000000E+01 0. -1.
        -11    1    3    3    0    0  0.30754240155E+02  0.43873007503E+02 -0.12764440912E+03  0.13843323031E+03  0.00000000000E+00 0.  1.
         11    1    3    3    0    0 -0.98932350936E+01  0.19780477131E+02  0.82387687478E+01  0.23601285698E+02  0.00000000000E+00 0. -1.
</event>
<event>
 8    1  0.5900800E-006  0.1605814E+03  0.7561462E-02  0.1188042E+00
         -3   -1    0    0    0  501 -0.00000000000E+00  0.00000000000E+00  0.13188018163E+04  0.13188018163E+04  0.00000000000E+00 0.  1.
          3   -1    0    0  501    0  0.00000000000E+00 -0.00000000000E+00 -0.23091928798E+02  0.23091928798E+02  0.00000000000E+00 0. -1.
         23    2    1    2    0    0 -0.81158576817E+01 -0.12040313816E+03  0.85089723082E+03  0.86432530799E+03  0.92029113878E+02 0.  0.
         23    2    1    2    0    0  0.81158576817E+01  0.12040313816E+03  0.44481265669E+03  0.47756843711E+03  0.12510207730E+03 0.  0.
          5    1    4    4  502    0 -0.38182975868E+02 -0.26852222852E+01  0.64271231296E+02  0.74922717764E+02  0.41800000000E+01 0.  1.
         -5    1    4    4    0  502  0.46298833550E+02  0.12308836045E+03  0.38054142539E+03  0.40264571934E+03  0.41800000000E+01 0.  1.
        -11    1    3    3    0    0  0.36775041467E+02 -0.89001740060E+02  0.58061149380E+03  0.58854347345E+03  0.00000000000E+00 0. -1.
         11    1    3    3    0    0 -0.44890899148E+02 -0.31401398101E+02  0.27028573702E+03  0.27578183454E+03  0.00000000000E+00 0.  1.
</event>
<event>
 8    1  0.5900800E-006  0.7378383E+02  0.7561462E-02  0.1347679E+00
          2   -1    0    0  501    0  0.00000000000E+00  0.00000000000E+00  0.13214967649E+03  0.13214967649E+03  0.00000000000E+00 0. -1.
         -2   -1    0    0    0  501 -0.00000000000E+00 -0.00000000000E+00 -0.12250911294E+03  0.12250911294E+03  0.00000000000E+00 0.  1.
         23    2    1    2    0    0 -0.96608630035E+01  0.49063005442E+02 -0.46347171945E+02  0.10875839820E+03  0.84733807041E+02 0.  0.
         23    2    1    2    0    0  0.96608630035E+01 -0.49063005442E+02  0.55987735495E+02  0.14590039123E+03  0.12510710155E+03 0.  0.
          5    1    4    4  502    0 -0.31273717906E+02 -0.41834008318E+02  0.81542557234E+02  0.96926728635E+02  0.41800000000E+01 0. -1.
         -5    1    4    4    0  502  0.40934580909E+02 -0.72289971241E+01 -0.25554821739E+02  0.48973662593E+02  0.41800000000E+01 0. -1.
        -11    1    3    3    0    0  0.43552362551E+00  0.39444520204E+02 -0.70548044292E+02  0.80827510220E+02  0.00000000000E+00 0.  1.
         11    1    3    3    0    0 -0.10096386629E+02  0.96184852386E+01  0.24200872347E+02  0.27930887984E+02  0.00000000000E+00 0. -1.
</event>
<event>
 8    1  0.5900800E-006  0.1551534E+03  0.7561462E-02  0.1194280E+00
         -2   -1    0    0    0  501 -0.00000000000E+00  0.00000000000E+00  0.42866590861E+02  0.42866590861E+02  0.00000000000E+00 0.  1.
          2   -1    0    0  501    0  0.00000000000E+00 -0.00000000000E+00 -0.70625007138E+03  0.70625007138E+03  0.00000000000E+00 0. -1.
         23    2    1    2    0    0 -0.11799269053E+03  0.52184395138E+02 -0.21941458540E+03  0.27015037439E+03  0.90515072684E+02 0.  0.
         23    2    1    2    0    0  0.11799269053E+03 -0.52184395138E+02 -0.44396889512E+03  0.47896628785E+03  0.12511929886E+03 0.  0.
          5    1    4    4  502    0  0.72067241644E+02 -0.82655044784E+02 -0.37417998670E+03  0.38994060906E+03  0.41800000000E+01 0.  1.
         -5    1    4    4    0  502  0.45925448890E+02  0.30470649646E+02 -0.69788908420E+02  0.89025678790E+02  0.41800000000E+01 0.  1.
        -11    1    3    3    0    0 -0.99643916494E+02  0.11053327813E+02 -0.96126711493E+02  0.13889359529E+03  0.00000000000E+00 0.  1.
         11    1    3    3    0    0 -0.18348774040E+02  0.41131067325E+02 -0.12328787391E+03  0.13125677910E+03  0.00000000000E+00 0. -1.
</event>
<event>
 8    1  0.5900800E-006  0.1816229E+03  0.7561462E-02  0.1166242E+00
          2   -1    0    0  501    0  0.00000000000E+00  0.00000000000E+00  0.81480006519E+03  0.81480006519E+03  0.00000000000E+00 0. -1.
         -2   -1    0    0    0  501 -0.00000000000E+00 -0.00000000000E+00 -0.46851144840E+02  0.46851144840E+02  0.00000000000E+00 0.  1.
         23    2    1    2    0    0  0.10862461996E+03  0.11959051586E+03  0.37538545250E+03  0.41909595618E+03  0.92876170173E+02 0.  0.
         23    2    1    2    0    0 -0.10862461996E+03 -0.11959051586E+03  0.39256346785E+03  0.44255525385E+03  0.12509147406E+03 0.  0.
          5    1    4    4  502    0 -0.11677328392E+03 -0.43119746704E+02  0.20608479864E+03  0.24079810844E+03  0.41800000000E+01 0. -1.
         -5    1    4    4    0  502  0.81486639655E+01 -0.76470769158E+02  0.18647866920E+03  0.20175714542E+03  0.41800000000E+01 0. -1.
        -11    1    3    3    0    0  0.77144569772E+02  0.89043242860E+02  0.34795845584E+03  0.36736231535E+03  0.00000000000E+00 0. -1.
         11    1    3    3    0    0  0.31480050186E+02  0.30547273002E+02  0.27426996661E+02  0.51733640829E+02  0.00000000000E+00 0.  1.
</event>
<event>
 8    1  0.5900800E-006  0.1482094E+03  0.7561462E-02  0.1202691E+00
         -2   -1    0    0    0  501 -0.00000000000E+00  0.00000000000E+00  0.17246065556E+02  0.17246065556E+02  0.00000000000E+00 0.  1.
          2   -1    0    0  501    0  0.00000000000E+00 -0.00000000000E+00 -0.13971114637E+04  0.13971114637E+04  0.00000000000E+00 0. -1.
         23    2    1    2    0    0 -0.98216865238E+02  0.48239389875E+02 -0.54792717993E+03  0.56598614283E+03  0.90235957420E+02 0.  0.
         23    2    1    2    0    0  0.98216865238E+02 -0.48239389875E+02 -0.83193821823E+03  0.84837138644E+03  0.12505686322E+03 0.  0.
          5    1    4    4  502    0  0.11727452258E+03 -0.60192968878E+02 -0.78667111485E+03  0.79764993731E+03  0.41800000000E+01 0.  1.
         -5    1    4    4    0  502 -0.19057657340E+02  0.11953579003E+02 -0.45267103374E+02  0.50721449133E+02  0.41800000000E+01 0.  1.
        -11    1    3    3    0    0 -0.38837190315E+01 -0.23072302540E+02 -0.10156496237E+03  0.10422502578E+03  0.00000000000E+00 0. -1.
         11    1    3    3    0    0 -0.94333146206E+02  0.71311692415E+02 -0.44636221757E+03  0.46176111705E+03  0.00000000000E+00 0.  1.
</event>
<event>
 7    1  0.5900800E-006  0.1518281E+03  0.7561462E-02  0.1198244E+00
         -2   -1    0    0    0  501 -0.00000000000E+00  0.00000000000E+00  0.30906390681E+03  0.30906390681E+03  0.00000000000E+00 0.  1.
          2   -1    0    0  501    0  0.00000000000E+00 -0.00000000000E+00 -0.18243855463E+03  0.18243855463E+03  0.00000000000E+00 0. -1.
         23    2    1    2    0    0  0.13278424746E+03 -0.48860663396E+02  0.16254335968E+03  0.23408129069E+03  0.91403971869E+02 0.  0.
          5    1    1    2  502    0 -0.84341688964E+02  0.37655486562E+02 -0.12490280675E+03  0.15540154343E+03  0.41800000000E+01 0. -1.
         -5    1    1    2    0  502 -0.48442558492E+02  0.11205176834E+02  0.88984799251E+02  0.10201962732E+03  0.41800000000E+01 0.  1.
        -11    1    3    3    0    0  0.14509096473E+02  0.19793817709E+02  0.54581493249E+02  0.59845204530E+02  0.00000000000E+00 0. -1.
         11    1    3    3    0    0  0.11827515098E+03 -0.68654481105E+02  0.10796186643E+03  0.17423608616E+03  0.00000000000E+00 0.  1.
</event>
<event>
 8    1  0.5900800E-006  0.4781448E+02  0.7561462E-02  0.1457499E+00
          1   -1    0    0  501    0  0.00000000000E+00  0.00000000000E+00  0.35985572422E+02  0.35985572422E+02  0.00000000000E+00 0. -1.
         -1   -1    0    0    0  501 -0.00000000000E+00 -0.00000000000E+00 -0.30717305110E+03  0.30717305110E+03  0.00000000000E+00 0.  1.
         23    2    1    2    0    0  0.15305302960E+02 -0.25435342703E+02 -0.12805172418E+03  0.15076131438E+03  0.73827643139E+02 0.  0.
         23    2    1    2    0    0 -0.15305302960E+02  0.25435342703E+02 -0.14313575450E+03  0.19239730914E+03  0.12509065269E+03 0.  0.
          5    1    4    4  502    0  0.71454320996E+00  0.41631281010E+01 -0.16031988985E+03  0.16042999000E+03  0.41800000000E+01 0.  1.
         -5    1    4    4    0  502 -0.16019846170E+02  0.21272214602E+02  0.17184135355E+02  0.31967319145E+02  0.41800000000E+01 0.  1.
        -11    1    3    3    0    0 -0.52963401920E+01 -0.38153544287E+02 -0.11872243906E+03  0.12481490975E+03  0.00000000000E+00 0.  1.
         11    1    3    3    0    0  0.20601643152E+02  0.12718201584E+02 -0.93292851182E+01  0.25946404624E+02  0.00000000000E+00 0. -1.
</event>
<event>
 8    1  0.5900800E-006  0.2884582E+03  0.7561462E-02  0.1091157E+00
          2   -1    0    0  501    0  0.00000000000E+00  0.00000000000E+00  0.12882804671E+04  0.12882804671E+04  0.00000000000E+00 0. -1.
         -2   -1    0    0    0  501 -0.00000000000E+00 -0.00000000000E+00 -0.84674006480E+02  0.84674006480E+02  0.00000000000E+00 0.  1.
         23    2    1    2    0    0 -0.28333783242E+03 -0.10583877599E+02  0.32781535978E+03  0.44394954274E+03  0.96103801404E+02 0.  0.
         23    2    1    2    0    0  0.28333783242E+03  0.10583877599E+02  0.87579110087E+03  0.92900493088E+03  0.12509102080E+03 0.  0.
          5    1    4    4  502    0  0.12031262401E+03  0.36312983991E+02  0.54481743361E+03  0.55913975773E+03  0.41800000000E+01 0.  1.
         -5    1    4    4    0  502  0.16302520840E+03 -0.25729106392E+02  0.33097366726E+03  0.36986517315E+03  0.41800000000E+01 0.  1.
        -11    1    3    3    0    0 -0.10574816969E+03  0.14455382265E+02  0.18939614319E+03  0.21739947683E+03  0.00000000000E+00 0. -1.
         11    1    3    3    0    0 -0.17758966273E+03 -0.25039259864E+02  0.13841921659E+03  0.22655006591E+03  0.00000000000E+00 0.  1.
</event>
<event>
 8    1  0.5900800E-006  0.1163077E+03  0.7561462E-02  0.1249316E+00
         -2   -1    0    0    0  501 -0.00000000000E+00  0.00000000000E+00  0.57990044536E+02  0.57990044536E+02  0.00000000000E+00 0.  1.
          2   -1    0    0  501    0  0.00000000000E+00 -0.00000000000E+00 -0.31215531918E+03  0.31215531918E+03  0.00000000000E+00 0. -1.
         23    2    1    2    0    0 -0.25791554664E+02 -0.76807045897E+02 -0.10054859568E+03  0.15592833559E+03  0.87401940224E+02 0.  0.
         23    2    1    2    0    0  0.25791554664E+02  0.76807045897E+02 -0.15361667897E+03  0.21421702813E+03  0.12540464303E+03 0.  0.
          5    1    4    4  502    0 -0.25865677351E+02 -0.19116075028E+02 -0.68872953008E+02  0.76127614210E+02  0.41800000000E+01 0.  1.
         -5    1    4    4    0  502  0.51657232015E+02  0.95923120925E+02 -0.84743725959E+02  0.13808941392E+03  0.41800000000E+01 0.  1.
        -11    1    3    3    0    0 -0.37120711318E+02 -0.64551605703E+02 -0.24985149929E+02  0.78543712190E+02  0.00000000000E+00 0.  1.
         11    1    3    3    0    0  0.11329156654E+02 -0.12255440193E+02 -0.75563445750E+02  0.77384623398E+02  0.00000000000E+00 0. -1.
</event>
<event>
 8    1  0.5900800E-006  0.9964886E+02  0.7561462E-02  0.1281036E+00
         -2   -1    0    0    0  501 -0.00000000000E+00  0.00000000000E+00  0.15445884934E+03  0.15445884934E+03  0.00000000000E+00 0.  1.
          2   -1    0    0  501    0  0.00000000000E+00 -0.00000000000E+00 -0.85796679292E+02  0.85796679292E+02  0.00000000000E+00 0. -1.
         23    2    1    2    0    0  0.14148487740E+02 -0.40345896096E+02  0.33532806274E+02  0.10347547287E+03  0.88061077396E+02 0.  0.
         23    2    1    2    0    0 -0.14148487740E+02  0.40345896096E+02  0.35129363774E+02  0.13678005576E+03  0.12508693144E+03 0.  0.
          5    1    4    4  502    0  0.51603030473E+02  0.11273555202E+02 -0.68467703875E+01  0.53425803369E+02  0.41800000000E+01 0.  1.
         -5    1    4    4    0  502 -0.65751518214E+02  0.29072340894E+02  0.41976134162E+02  0.83354252391E+02  0.41800000000E+01 0.  1.
        -11    1    3    3    0    0  0.35813801686E+02 -0.38458378871E+02 -0.11204102912E+02  0.53732738797E+02  0.00000000000E+00 0. -1.
         11    1    3    3    0    0 -0.21665313946E+02 -0.18875172249E+01  0.44736909186E+02  0.49742734074E+02  0.00000000000E+00 0.  1.
</event>
<event>
 8    1  0.5900800E-006  0.7410277E+02  0.7561462E-02  0.1346672E+00
         -2   -1    0    0    0  501 -0.00000000000E+00  0.00000000000E+00  0.27107937126E+02  0.27107937126E+02  0.00000000000E+00 0.  1.
          2   -1    0    0  501    0  0.00000000000E+00 -0.00000000000E+00 -0.58813317433E+03  0.58813317433E+03  0.00000000000E+00 0. -1.
         23    2    1    2    0    0  0.36489732541E+02 -0.47448888362E+02 -0.18595048510E+03  0.21566278124E+03  0.91378086634E+02 0.  0.
         23    2    1    2    0    0 -0.36489732541E+02  0.47448888362E+02 -0.37507475210E+03  0.39957833021E+03  0.12409220250E+03 0.  0.
          5    1    4    4  502    0 -0.26469115705E+02  0.33756472850E+02 -0.37918508256E+03  0.38162666676E+03  0.41800000000E+01 0. -1.
         -5    1    4    4    0  502 -0.10020616836E+02  0.13692415512E+02  0.41103304555E+01  0.17951663454E+02  0.41800000000E+01 0.  1.
        -11    1    3    3    0    0  0.38417956427E+02 -0.62008047191E+02 -0.18721333113E+03  0.20092229504E+03  0.00000000000E+00 0.  1.
         11    1    3    3    0    0 -0.19282238865E+01  0.14559158829E+02  0.12628460357E+01  0.14740486195E+02  0.00000000000E+00 0. -1.
</event>
<event>
 8    1  0.5900800E-006  0.1435051E+03  0.7561462E-02  0.1208689E+00
         -1   -1    0    0    0  501 -0.00000000000E+00  0.00000000000E+00  0.14136744076E+03  0.14136744076E+03  0.00000000000E+00 0.  1.
          1   -1    0    0  501    0  0.00000000000E+00 -0.00000000000E+00 -0.26358479243E+03  0.26358479243E+03  0.00000000000E+00 0. -1.
         23    2    1    2    0    0 -0.20048880102E+02 -0.13316647698E+03  0.27219081531E+02  0.16806930490E+03  0.96804672753E+02 0.  0.
         23    2    1    2    0    0  0.20048880102E+02  0.13316647698E+03 -0.14943643320E+03  0.23688292829E+03  0.12508799289E+03 0.  0.
          5    1    4    4  502    0  0.44771279640E+02  0.80339274257E+02 -0.15270960184E+03  0.17831590328E+03  0.41800000000E+01 0.  1.
         -5    1    4    4    0  502 -0.24722399538E+02  0.52827202720E+02  0.32731686390E+01  0.58567025015E+02  0.41800000000E+01 0.  1.
        -11    1    3    3    0    0 -0.16338576561E+02 -0.39741895262E+02 -0.35287194264E+02  0.55601739200E+02  0.00000000000E+00 0. -1.
         11    1    3    3    0    0 -0.37103035409E+01 -0.93424581716E+02  0.62506275795E+02  0.11246756570E+03  0.00000000000E+00 0.  1.
</event>
<event>
 8    1  0.5900800E-006  0.1087136E+03  0.7561462E-02  0.1262971E+00
          2   -1    0    0  501    0  0.00000000000E+00  0.00000000000E+00  0.56943256466E+02  0.56943256466E+02  0.00000000000E+00 0. -1.
         -2   -1    0    0    0  501 -0.00000000000E+00 -0.00000000000E+00 -0.24009857003E+03  0.24009857003E+03  0.00000000000E+00 0.  1.
         23    2    1    2    0    0 -0.24943558807E+02 -0.36507598708E+02 -0.77622229242E+02  0.12751495245E+03  0.90993773063E+02 0.  0.
         23    2    1    2    0    0  0.24943558807E+02  0.36507598708E+02 -0.10553308432E+03  0.16952687405E+03  0.12508854163E+03 0.  0.
          5    1    4    4  502    0 -0.14996746199E+02 -0.32731459832E+02 -0.76017272330E+02  0.84216084876E+02  0.41800000000E+01 0.  1.
         -5    1    4    4    0  502  0.39940305006E+02  0.69239058541E+02 -0.29515811993E+02  0.85310789172E+02  0.41800000000E+01 0.  1.
        -11    1    3    3    0    0 -0.26094456395E+02  0.27042314477E+02 -0.30290275668E+02  0.48267051151E+02  0.00000000000E+00 0. -1.
         11    1    3    3    0    0  0.11508975878E+01 -0.63549913185E+02 -0.47331953574E+02  0.79247901299E+02  0.00000000000E+00 0.  1.
</event>
<event>
 8    1  0.5900800E-006  0.1288804E+03  0.7561462E-02  0.1229126E+00
          2   -1    0    0  501    0  0.00000000000E+00  0.00000000000E+00  0.73199142199E+02  0.73199142199E+02  0.00000000000E+00 0. -1.
         -2   -1    0    0    0  501 -0.00000000000E+00 -0.00000000000E+00 -0.39182896826E+03  0.39182896826E+03  0.00000000000E+00 0.  1.
         23    2    1    2    0    0  0.69667419935E+02 -0.35940912884E+02 -0.29108638442E+03  0.31485811177E+03  0.90879308623E+02 0.  0.
         23    2    1    2    0    0 -0.69667419935E+02  0.35940912884E+02 -0.27543441639E+02  0.15016999868E+03  0.12508832363E+03 0.  0.
          5    1    4    4  502    0 -0.18800552195E+02  0.72499551263E+02 -0.41682028960E+02  0.85816721182E+02  0.41800000000E+01 0.  1.
         -5    1    4    4    0  502 -0.50866867740E+02 -0.36558638379E+02  0.14138587321E+02  0.64353277501E+02  0.41800000000E+01 0.  1.
        -11    1    3    3    0    0  0.48653691623E+02 -0.66794539214E+02 -0.19615793248E+03  0.21285353333E+03  0.00000000000E+00 0.  1.
         11    1    3    3    0    0  0.21013728312E+02  0.30853626330E+02 -0.94928451940E+02  0.10200457844E+03  0.00000000000E+00 0. -1.
</event>
<event>
 8    1  0.5900800E-006  0.1640168E+03  0.7561462E-02  0.1184235E+00
         -2   -1    0    0    0  501 -0.00000000000E+00  0.00000000000E+00  0.19155451773E+03  0.19155451773E+03  0.00000000000E+00 0.  1.
          2   -1    0    0  501    0  0.00000000000E+00 -0.00000000000E+00 -0.27342786194E+03  0.27342786194E+03  0.00000000000E+00 0. -1.
         23    2    1    2    0    0 -0.91780226434E+02  0.10749751397E+03  0.10624542324E+03  0.19849544702E+03  0.90183296987E+02 0.  0.
         23    2    1    2    0    0  0.91780226434E+02 -0.10749751397E+03 -0.18811876745E+03  0.26648693264E+03  0.12508912475E+03 0.  0.
          5    1    4    4  502    0  0.44755975661E+02  0.20810955704E+02 -0.32026783263E+02  0.58986273665E+02  0.41800000000E+01 0.  1.
         -5    1    4    4    0  502  0.47024250772E+02 -0.12830846967E+03 -0.15609198419E+03  0.20750065898E+03  0.41800000000E+01 0.  1.
        -11    1    3    3    0    0 -0.71184528220E+02  0.90055527488E+02  0.12178020824E+03  0.16735487506E+03  0.00000000000E+00 0.  1.
         11    1    3    3    0    0 -0.20595698214E+02  0.17441986478E+02 -0.15534784994E+02  0.31140571961E+02  0.00000000000E+00 0. -1.
</event>
<event>
 8    1  0.5900800E-006  0.1051411E+03  0.7561462E-02  0.1269842E+00
          2   -1    0    0  501    0  0.00000000000E+00  0.00000000000E+00  0.81264246975E+03  0.81264246975E+03  0.00000000000E+00 0. -1.
         -2   -1    0    0    0  501 -0.00000000000E+00 -0.00000000000E+00 -0.28586842568E+02  0.28586842568E+02  0.00000000000E+00 0.  1.
         23    2    1    2    0    0 -0.49015752942E+01  0.82762174228E+02  0.18429000595E+03  0.22297354193E+03  0.94237949810E+02 0.  0.
         23    2    1    2    0    0  0.49015752942E+01 -0.82762174228E+02  0.59976562122E+03  0.61825577038E+03  0.12509114390E+03 0.  0.
          5    1    4    4  502    0 -0.30641058072E+01 -0.61278860184E+02  0.58967499346E+03  0.59287313800E+03  0.41800000000E+01 0.  1.
         -5    1    4    4    0  502  0.79656811014E+01 -0.21483314045E+02  0.10090627760E+02  0.25382632376E+02  0.41800000000E+01 0.  1.
        -11    1    3    3    0    0  0.23627720362E+02  0.92405731109E+02  0.13823466359E+03  0.16794615366E+03  0.00000000000E+00 0.  1.
         11    1    3    3    0    0 -0.28529295656E+02 -0.96435568802E+01  0.46055342361E+02  0.55027388271E+02  0.00000000000E+00 0. -1.
</event>
<event>
 8    1  0.5900800E-006  0.1299564E+03  0.7561462E-02  0.1227520E+00
         -2   -1    0    0    0  501 -0.00000000000E+00  0.00000000000E+00  0.22786116239E+03  0.22786116239E+03  0.00000000000E+00 0.  1.
          2   -1    0    0  501    0  0.00000000000E+00 -0.00000000000E+00 -0.14980213921E+03  0.14980213921E+03  0.00000000000E+00 0. -1.
         23    2    1    2    0    0 -0.65959186578E+02  0.37694219477E+02  0.16893127452E+03  0.20539348683E+03  0.88753819321E+02 0.  0.
         23    2    1    2    0    0  0.65959186578E+02 -0.37694219477E+02 -0.90872251336E+02  0.17226981477E+03  0.12509058535E+03 0.  0.
          5    1    4    4  502    0  0.10063351439E+03 -0.39742871597E+02 -0.52471429661E+02  0.12032174946E+03  0.41800000000E+01 0.  1.
         -5    1    4    4    0  502 -0.34674327812E+02  0.20486521206E+01 -0.38400821676E+02  0.51948065316E+02  0.41800000000E+01 0.  1.
        -11    1    3    3    0    0 -0.38458717717E+02  0.66502745610E+02  0.10579649776E+03  0.13074626985E+03  0.00000000000E+00 0. -1.
         11    1    3    3    0    0 -0.27500468861E+02 -0.28808526133E+02  0.63134776762E+02  0.74647216976E+02  0.00000000000E+00 0.  1.
</event>
<event>
 8    1  0.5900800E-006  0.8587690E+02  0.7561462E-02  0.1313155E+00
          2   -1    0    0  501    0  0.00000000000E+00  0.00000000000E+00  0.62003192587E+03  0.62003192587E+03  0.00000000000E+00 0. -1.
         -2   -1    0    0    0  501 -0.00000000000E+00 -0.00000000000E+00 -0.26045802369E+02  0.26045802369E+02  0.00000000000E+00 0.  1.
         23    2    1    2    0    0  0.29716626954E+01 -0.33619090885E+02  0.11455951416E+03  0.14945071976E+03  0.89847433480E+02 0.  0.
         23    2    1    2    0    0 -0.29716626954E+01  0.33619090885E+02  0.47942660935E+03  0.49662700848E+03  0.12509771281E+03 0.  0.
          5    1    4    4  502    0  0.54758956078E+00 -0.27257071562E+02  0.22399771037E+02  0.35531253101E+02  0.41800000000E+01 0.  1.
         -5    1    4    4    0  502 -0.35192522562E+01  0.60876162447E+02  0.45702683831E+03  0.46109575538E+03  0.41800000000E+01 0.  1.
        -11    1    3    3    0    0  0.31648959677E+02 -0.42537403123E+02  0.10551410067E+03  0.11808603962E+03  0.00000000000E+00 0.  1.
         11    1    3    3    0    0 -0.28677296982E+02  0.89183122379E+01  0.90454134874E+01  0.31364680144E+02  0.00000000000E+00 0. -1.
</event>
<event>
 8    1  0.5900800E-006  0.1275305E+03  0.7561462E-02  0.1231167E+00
          2   -1    0    0  501    0  0.00000000000E+00  0.00000000000E+00  0.16235295820E+03  0.16235295820E+03  0.00000000000E+00 0. -1.
         -2   -1    0    0    0  501 -0.00000000000E+00 -0.00000000000E+00 -0.17492319490E+03  0.17492319490E+03  0.00000000000E+00 0.  1.
         23    2    1    2    0    0  0.76557221866E+02  0.60686920397E+01 -0.10750836825E+03  0.16246645643E+03  0.94548733346E+02 0.  0.
         23    2    1    2    0    0 -0.76557221866E+02 -0.60686920397E+01  0.94938131548E+02  0.17480969667E+03  0.12508934402E+03 0.  0.
          5    1    4    4  502    0 -0.44216487446E+02  0.52472646320E+02  0.14753915040E+02  0.70310929328E+02  0.41800000000E+01 0.  1.
         -5    1    4    4    0  502 -0.32340734420E+02 -0.58541338359E+02  0.80184216508E+02  0.10449876735E+03  0.41800000000E+01 0.  1.
        -11    1    3    3    0    0  0.31978358644E+02  0.48280995735E+02 -0.35868751472E+02  0.68119287304E+02  0.00000000000E+00 0. -1.
         11    1    3    3    0    0  0.44578863223E+02 -0.42212303695E+02 -0.71639616776E+02  0.94347169121E+02  0.00000000000E+00 0.  1.
</event>
<event>
 8    1  0.5900800E-006  0.1894342E+03  0.7561462E-02  0.1158973E+00
         -1   -1    0    0    0  501 -0.00000000000E+00  0.00000000000E+00  0.48154159492E+02  0.48154159492E+02  0.00000000000E+00 0.  1.
          1   -1    0    0  501    0  0.00000000000E+00 -0.00000000000E+00 -0.86291783212E+03  0.86291783212E+03  0.00000000000E+00 0. -1.
         23    2    1    2    0    0 -0.12455617009E+02 -0.17107278261E+03 -0.35432439069E+03  0.40404853994E+03  0.91040702150E+02 0.  0.
         23    2    1    2    0    0  0.12455617009E+02  0.17107278261E+03 -0.46043928194E+03  0.50702345167E+03  0.12508960328E+03 0.  0.
          5    1    4    4  502    0 -0.56926511118E+01  0.18428002019E+03 -0.43692171757E+03  0.47424634084E+03  0.41800000000E+01 0. -1.
         -5    1    4    4    0  502  0.18148268121E+02 -0.13207237583E+02 -0.23517564365E+02  0.32777110825E+02  0.41800000000E+01 0. -1.
        -11    1    3    3    0    0 -0.27638425422E+01 -0.77344538616E+02 -0.25775815173E+03  0.26912651535E+03  0.00000000000E+00 0. -1.
         11    1    3    3    0    0 -0.96917744666E+01 -0.93728243990E+02 -0.96566238953E+02  0.13492202459E+03  0.00000000000E+00 0.  1.
</event>
<event>
 8    1  0.5900800E-006  0.9104585E+02  0.7561462E-02  0.1300339E+00
         -1   -1    0    0    0  501 -0.00000000000E+00  0.00000000000E+00  0.13320312821E+02  0.13320312821E+02  0.00000000000E+00 0.  1.
          1   -1    0    0  501    0  0.00000000000E+00 -0.00000000000E+00 -0.11778898526E+04  0.11778898526E+04  0.00000000000E+00 0. -1.
         23    2    1    2    0    0 -0.15081942464E+02 -0.34699197858E+02 -0.26945150436E+03  0.28660252949E+03  0.90029980493E+02 0.  0.
         23    2    1    2    0    0  0.15081942464E+02  0.34699197858E+02 -0.89511803538E+03  0.90460763589E+03  0.12508868187E+03 0.  0.
          5    1    4    4  502    0 -0.22694480902E+01 -0.29318192007E+02 -0.64885984220E+03  0.64953927825E+03  0.41800000000E+01 0. -1.
         -5    1    4    4    0  502  0.17351390554E+02  0.64017389866E+02 -0.24625819318E+03  0.25506835764E+03  0.41800000000E+01 0. -1.
        -11    1    3    3    0    0 -0.37087247650E+02  0.79592120314E+01 -0.54783835231E+02  0.66633937277E+02  0.00000000000E+00 0.  1.
         11    1    3    3    0    0  0.22005305186E+02 -0.42658409890E+02 -0.21466766913E+03  0.21996859222E+03  0.00000000000E+00 0. -1.
</event>
<event>
 8    1  0.5900800E-006  0.1462303E+03  0.7561462E-02  0.1205183E+00
          1   -1    0    0  501    0  0.00000000000E+00  0.00000000000E+00  0.52489905465E+03  0.52489905465E+03  0.00000000000E+00 0. -1.
         -1   -1    0    0    0  501 -0.00000000000E+00 -0.00000000000E+00 -0.14987722538E+03  0.14987722538E+03  0.00000000000E+00 0.  1.
         23    2    1    2    0    0  0.37530117857E+02  0.11519463179E+03 -0.92466965578E+02  0.17571738515E+03  0.87453683638E+02 0.  0.
         23    2    1    2    0    0 -0.37530117857E+02 -0.11519463179E+03  0.46748879485E+03  0.49905889488E+03  0.12583995515E+03 0.  0.
          5    1    4    4  502    0 -0.43216713364E+02 -0.16371585368E+02  0.30674763668E+03  0.31023748666E+03  0.41800000000E+01 0. -1.
         -5    1    4    4    0  502  0.56865955071E+01 -0.98823046426E+02  0.16074115817E+03  0.18882140822E+03  0.41800000000E+01 0.  1.
        -11    1    3    3    0    0 -0.26881142077E+02  0.33819389173E+02 -0.42240348508E+02  0.60420145030E+02  0.00000000000E+00 0.  1.
         11    1    3    3    0    0  0.64411259935E+02  0.81375242621E+02 -0.50226617070E+02  0.11529724012E+03  0.00000000000E+00 0. -1.
</event>
<event>
 8    1  0.5900800E-006  0.1251759E+03  0.7561462E-02  0.1234795E+00
         -1   -1    0    0    0  501 -0.00000000000E+00  0.00000000000E+00  0.18292389875E+02  0.18292389875E+02  0.00000000000E+00 0.  1.
          1   -1    0    0  501    0  0.00000000000E+00 -0.00000000000E+00 -0.12759308081E+04  0.12759308081E+04  0.00000000000E+00 0. -1.
         23    2    1    2    0    0  0.51916512219E+02 -0.96816030072E+02 -0.60259976802E+03  0.61835917480E+03  0.84693097299E+02 0.  0.
         23    2    1    2    0    0 -0.51916512219E+02  0.96816030072E+02 -0.65503865016E+03  0.67586402313E+03  0.12509147305E+03 0.  0.
          5    1    4    4  502    0 -0.11402309893E+02  0.99566281018E+01 -0.20169261410E+01  0.15833114195E+02  0.41800000000E+01 0. -1.
         -5    1    4    4    0  502 -0.40514202326E+02  0.86859401970E+02 -0.65302172402E+03  0.66003090893E+03  0.41800000000E+01 0. -1.
        -11    1    3    3    0    0 -0.18609681874E+02  0.39452326350E+00 -0.81631407457E+02  0.83726713726E+02  0.00000000000E+00 0. -1.
         11    1    3    3    0    0  0.70526194092E+02 -0.97210553336E+02 -0.52096836056E+03  0.53463246108E+03  0.00000000000E+00 0.  1.
</event>
<event>
 8    1  0.5900800E-006  0.1574159E+03  0.7561462E-02  0.1191645E+00
          1   -1    0    0  501    0  0.00000000000E+00  0.00000000000E+00  0.54769732147E+03  0.54769732147E+03  0.00000000000E+00 0. -1.
         -1   -1    0    0    0  501 -0.00000000000E+00 -0.00000000000E+00 -0.64697937000E+02  0.64697937000E+02  0.00000000000E+00 0.  1.
         23    2    1    2    0    0  0.90246634924E+02  0.11636184574E+03  0.15774198076E+03  0.23407689068E+03  0.90691366706E+02 0.  0.
         23    2    1    2    0    0 -0.90246634924E+02 -0.11636184574E+03  0.32525740371E+03  0.37831836779E+03  0.12509146446E+03 0.  0.
          5    1    4    4  502    0  0.12735144675E+02 -0.29408306375E+02  0.75653190436E+01  0.33192451641E+02  0.41800000000E+01 0. -1.
         -5    1    4    4    0  502 -0.10298177960E+03 -0.86953539369E+02  0.31769208467E+03  0.34512591615E+03  0.41800000000E+01 0. -1.
        -11    1    3    3    0    0  0.23521684491E+02  0.22881855302E+02 -0.67055152854E+01  0.33493475165E+02  0.00000000000E+00 0.  1.
         11    1    3    3    0    0  0.66724950432E+02  0.93479990442E+02  0.16444749604E+03  0.20058341551E+03  0.00000000000E+00 0. -1.
</event>
<event>
 8    1  0.5900800E-006  0.1171474E+03  0.7561462E-02  0.1247879E+00
          1   -1    0    0  501    0  0.00000000000E+00  0.00000000000E+00  0.25918845726E+03  0.25918845726E+03  0.00000000000E+00 0. -1.
         -1   -1    0    0    0  501 -0.00000000000E+00 -0.00000000000E+00 -0.94786022267E+02  0.94786022267E+02  0.00000000000E+00 0.  1.
         23    2    1    2    0    0  0.79126212295E+02  0.28235784468E+02 -0.64525721343E+01  0.12616583368E+03  0.93904019634E+02 0.  0.
         23    2    1    2    0    0 -0.79126212295E+02 -0.28235784468E+02  0.17085500713E+03  0.22780864585E+03  0.12508848335E+03 0.  0.
          5    1    4    4  502    0  0.58578853574E+01 -0.58008700206E+02  0.86165441304E+02  0.10412146655E+03  0.41800000000E+01 0. -1.
         -5    1    4    4    0  502 -0.84984097652E+02  0.29772915738E+02  0.84689565827E+02  0.12368717931E+03  0.41800000000E+01 0. -1.
        -11    1    3    3    0    0  0.26671078333E+02  0.12353612148E+01 -0.47364816566E+02  0.54371852875E+02  0.00000000000E+00 0.  1.
         11    1    3    3    0    0  0.52455133962E+02  0.27000423253E+02  0.40912244431E+02  0.71793980801E+02  0.00000000000E+00 0. -1.
</event>
<event>
 8    1  0.5900800E-006  0.8595875E+02  0.7561462E-02  0.1312944E+00
          1   -1    0    0  501    0  0.00000000000E+00  0.00000000000E+00  0.24302989508E+03  0.24302989508E+03  0.00000000000E+00 0. -1.
         -1   -1    0    0    0  501 -0.00000000000E+00 -0.00000000000E+00 -0.51007917057E+02  0.51007917057E+02  0.00000000000E+00 0.  1.
         23    2    1    2    0    0 -0.87977876795E+01  0.36292314699E+01  0.54271798005E+02  0.10772855038E+03  0.92571270482E+02 0.  0.
         23    2    1    2    0    0  0.87977876795E+01 -0.36292314699E+01  0.13775018002E+03  0.18630926176E+03  0.12508179937E+03 0.  0.
          5    1    4    4  502    0  0.52746932582E+02  0.25014372601E+02  0.11487864495E+03  0.12892840338E+03  0.41800000000E+01 0. -1.
         -5    1    4    4    0  502 -0.43949144902E+02 -0.28643604071E+02  0.22871535072E+02  0.57380858379E+02  0.41800000000E+01 0. -1.
        -11    1    3    3    0    0 -0.88213903209E+01  0.31592741448E+02 -0.12683825597E+02  0.35168134314E+02  0.00000000000E+00 0.  1.
         11    1    3    3    0    0  0.23602641402E-01 -0.27963509978E+02  0.66955623602E+02  0.72560416063E+02  0.00000000000E+00 0. -1.
</event>
<event>
 8    1  0.5900800E-006  0.1097044E+03  0.7561462E-02  0.1261118E+00
          2   -1    0    0  501    0  0.00000000000E+00  0.00000000000E+00  0.66755211364E+03  0.66755211364E+03  0.00000000000E+00 0. -1.
         -2   -1    0    0    0  501 -0.00000000000E+00 -0.00000000000E+00 -0.23933279529E+02  0.23933279529E+02  0.00000000000E+00 0.  1.
         23    2    1    2    0    0  0.17942987764E+02  0.38739317516E+02  0.18603132287E+03  0.21519104183E+03  0.99382321682E+02 0.  0.
         23    2    1    2    0    0 -0.17942987764E+02 -0.38739317516E+02  0.45758751125E+03  0.47629435135E+03  0.12508914079E+03 0.  0.
          5    1    4    4  502    0 -0.45831251245E+02  0.26055217049E+02  0.28386764505E+03  0.28875195278E+03  0.41800000000E+01 0. -1.
         -5    1    4    4    0  502  0.27888263481E+02 -0.64794534565E+02  0.17371986620E+03  0.18754239857E+03  0.41800000000E+01 0. -1.
        -11    1    3    3    0    0 -0.13659633457E+01  0.64027047708E+02  0.69994550278E+02  0.94871311590E+02  0.00000000000E+00 0.  1.
         11    1    3    3    0    0  0.19308951109E+02 -0.25287730192E+02  0.11603677259E+03  0.12031973024E+03  0.00000000000E+00 0. -1.
</event>
<event>
 8    1  0.5900800E-006  0.1502026E+03  0.7561462E-02  0.1200224E+00
         -1   -1    0    0    0  501 -0.00000000000E+00  0.00000000000E+00  0.19551431207E+03  0.19551431207E+03  0.00000000000E+00 0.  1.
          1   -1    0    0  501    0  0.00000000000E+00 -0.00000000000E+00 -0.12612736139E+03  0.12612736139E+03  0.00000000000E+00 0. -1.
         23    2    1    2    0    0  0.78810033535E+02 -0.73927179939E+02  0.68504813846E+02  0.15633874636E+03  0.89847897999E+02 0.  0.
         23    2    1    2    0    0 -0.78810033535E+02  0.73927179939E+02  0.88213683159E+00  0.16530292709E+03  0.12509208696E+03 0.  0.
          5    1    4    4  502    0 -0.92283226925E+02  0.96973426853E+02  0.15083016622E+02  0.13477762900E+03  0.41800000000E+01 0. -1.
         -5    1    4    4    0  502  0.13473193389E+02 -0.23046246914E+02 -0.14200879791E+02  0.30525298094E+02  0.41800000000E+01 0. -1.
        -11    1    3    3    0    0  0.77731465107E+02 -0.92514297149E+02  0.65605320361E+02  0.13749594141E+03  0.00000000000E+00 0.  1.
         11    1    3    3    0    0  0.10785684285E+01  0.18587117210E+02  0.28994934842E+01  0.18842804953E+02  0.00000000000E+00 0. -1.
</event>
<event>
 8    1  0.5900800E-006  0.1028562E+03  0.7561462E-02  0.1274402E+00
          2   -1    0    0  501    0  0.00000000000E+00  0.00000000000E+00  0.10133002068E+03  0.10133002068E+03  0.00000000000E+00 0. -1.
         -2   -1    0    0    0  501 -0.00000000000E+00 -0.00000000000E+00 -0.20514037573E+03  0.20514037573E+03  0.00000000000E+00 0.  1.
         23    2    1    2    0    0  0.32137820548E+00  0.40085128060E+02 -0.13907747327E+03  0.17046455190E+03  0.90048315422E+02 0.  0.
         23    2    1    2    0    0 -0.32137820548E+00 -0.40085128060E+02  0.35267118221E+02  0.13600584451E+03  0.12508756667E+03 0.  0.
          5    1    4    4  502    0 -0.48337166009E+02  0.16116689801E+02  0.35017910680E+02  0.61967376710E+02  0.41800000000E+01 0.  1.
         -5    1    4    4    0  502  0.48015787803E+02 -0.56201817861E+02  0.24920754131E+00  0.74038467797E+02  0.41800000000E+01 0.  1.
        -11    1    3    3    0    0 -0.19912038034E+02 -0.12972719982E+02 -0.96786963510E+02  0.99661913627E+02  0.00000000000E+00 0.  1.
         11    1    3    3    0    0  0.20233416239E+02  0.53057848042E+02 -0.42290509756E+02  0.70802638277E+02  0.00000000000E+00 0. -1.
</event>
<event>
 8    1  0.5900800E-006  0.4432621E+02  0.7561462E-02  0.1478592E+00
          2   -1    0    0  501    0  0.00000000000E+00  0.00000000000E+00  0.84752357186E+02  0.84752357186E+02  0.00000000000E+00 0. -1.
         -2   -1    0    0    0  501 -0.00000000000E+00 -0.00000000000E+00 -0.15924608440E+03  0.15924608440E+03  0.00000000000E+00 0.  1.
         23    2    1    2    0    0 -0.36002620125E+02 -0.10435898142E+02 -0.40780974800E+02  0.10912993190E+03  0.94027429533E+02 0.  0.
         23    2    1    2    0    0  0.36002620125E+02  0.10435898142E+02 -0.33712752418E+02  0.13486850969E+03  0.12509144097E+03 0.  0.
          5    1    4    4  502    0  0.11977663889E+02 -0.35254173960E+00 -0.80242248506E+02  0.81239642806E+02  0.41800000000E+01 0.  1.
         -5    1    4    4    0  502  0.24024956236E+02  0.10788439882E+02  0.46529496088E+02  0.53628866886E+02  0.41800000000E+01 0.  1.
        -11    1    3    3    0    0 -0.31740999554E+02 -0.20895333525E+02 -0.68979011556E+02  0.78754111328E+02  0.00000000000E+00 0.  1.
         11    1    3    3    0    0 -0.42616205704E+01  0.10459435383E+02  0.28198036756E+02  0.30375820570E+02  0.00000000000E+00 0. -1.
</event>
<event>
 7    1  0.5900800E-006  0.1568666E+03  0.7561462E-02  0.1192280E+00
         -2   -1    0    0    0  501 -0.00000000000E+00  0.00000000000E+00  0.26124029940E+03  0.26124029940E+03  0.00000000000E+00 0.  1.
          2   -1    0    0  501    0  0.00000000000E+00 -0.00000000000E+00 -0.31311284621E+03  0.31311284621E+03  0.00000000000E+00 0. -1.
         23    2    1    2    0    0 -0.37778321644E+02 -0.10407899423E+03  0.21602356760E+02  0.14644772447E+03  0.93384343222E+02 0.  0.
          5    1    1    2  502    0  0.67329353283E+02 -0.61388834214E+01 -0.22681844280E+03  0.23671714365E+03  0.41800000000E+01 0. -1.
         -5    1    1    2    0  502 -0.29551031639E+02  0.11021787765E+03  0.15334353923E+03  0.19118827749E+03  0.41800000000E+01 0.  1.
        -11    1    3    3    0    0 -0.10282547451E+02  0.10071384402E+02 -0.17531238652E+02  0.22682766466E+02  0.00000000000E+00 0. -1.
         11    1    3    3    0    0 -0.27495774192E+02 -0.11415037863E+03  0.39133595412E+02  0.12376495800E+03  0.00000000000E+00 0.  1.
</event>
<event>
 8    1  0.5900800E-006  0.1172402E+03  0.7561462E-02  0.1247720E+00
          1   -1    0    0  501    0  0.00000000000E+00  0.00000000000E+00  0.44608387638E+02  0.44608387638E+02  0.00000000000E+00 0. -1.
         -1   -1    0    0    0  501 -0.00000000000E+00 -0.00000000000E+00 -0.50758345424E+03  0.50758345424E+03  0.00000000000E+00 0.  1.
         23    2    1    2    0    0  0.17947254177E+02 -0.53213419917E+02 -0.37411233291E+03  0.38879993051E+03  0.89730576380E+02 0.  0.
         23    2    1    2    0    0 -0.17947254177E+02  0.53213419917E+02 -0.88862733693E+02  0.16339191137E+03  0.12508620735E+03 0.  0.
          5    1    4    4  502    0  0.47225294859E+02  0.42192275614E+02 -0.17081038219E+02  0.65724050869E+02  0.41800000000E+01 0. -1.
         -5    1    4    4    0  502 -0.65172549036E+02  0.11021144303E+02 -0.71781695474E+02  0.97667860500E+02  0.41800000000E+01 0. -1.
        -11    1    3    3    0    0  0.51327646427E-01  0.24772217021E+02 -0.11395154291E+03  0.11661311891E+03  0.00000000000E+00 0.  1.
         11    1    3    3    0    0  0.17895926531E+02 -0.77985636938E+02 -0.26016079000E+03  0.27218681160E+03  0.00000000000E+00 0. -1.
</event>
<event>
 8    1  0.5900800E-006  0.7559098E+02  0.7561462E-02  0.1342051E+00
          2   -1    0    0  501    0  0.00000000000E+00  0.00000000000E+00  0.96070546560E+02  0.96070546560E+02  0.00000000000E+00 0. -1.
         -2   -1    0    0    0  501 -0.00000000000E+00 -0.00000000000E+00 -0.15724690012E+03  0.15724690012E+03  0.00000000000E+00 0.  1.
         23    2    1    2    0    0  0.49486238982E+02 -0.35815739302E+01 -0.57529614282E+02  0.11870393722E+03  0.91209937355E+02 0.  0.
         23    2    1    2    0    0 -0.49486238982E+02  0.35815739302E+01 -0.36467392782E+01  0.13461350946E+03  0.12508310318E+03 0.  0.
          5    1    4    4  502    0 -0.41124349633E+02  0.10069347026E+02 -0.61982014314E+02  0.75178762830E+02  0.41800000000E+01 0.  1.
         -5    1    4    4    0  502 -0.83618893483E+01 -0.64877730960E+01  0.58335275036E+02  0.59434746628E+02  0.41800000000E+01 0.  1.
        -11    1    3    3    0    0 -0.20375541741E+02 -0.16491540002E+02  0.16143647898E+01  0.26262897147E+02  0.00000000000E+00 0. -1.
         11    1    3    3    0    0  0.69861780723E+02  0.12909966071E+02 -0.59143979072E+02  0.92441040075E+02  0.00000000000E+00 0.  1.
</event>
<event>
 8    1  0.5900800E-006  0.1246430E+03  0.7561462E-02  0.1235628E+00
         -2   -1    0    0    0  501 -0.00000000000E+00  0.00000000000E+00  0.16377505861E+02  0.16377505861E+02  0.00000000000E+00 0.  1.
          2   -1    0    0  501    0  0.00000000000E+00 -0.00000000000E+00 -0.11429467798E+04  0.11429467798E+04  0.00000000000E+00 0. -1.
         23    2    1    2    0    0 -0.80172569666E+02  0.33902134014E+02 -0.39831807815E+03  0.41529560211E+03  0.78969298702E+02 0.  0.
         23    2    1    2    0    0  0.80172569666E+02 -0.33902134014E+02 -0.72825119580E+03  0.74402868356E+03  0.12510748240E+03 0.  0.
          5    1    4    4  502    0 -0.66285562191E+01 -0.54347896319E+02 -0.40391458179E+03  0.40762984848E+03  0.41800000000E+01 0. -1.
         -5    1    4    4    0  502  0.86801125885E+02  0.20445762305E+02 -0.32433661402E+03  0.33639883508E+03  0.41800000000E+01 0. -1.
        -11    1    3    3    0    0 -0.70201002332E+02  0.45799693241E+00 -0.34129811719E+03  0.34844338893E+03  0.00000000000E+00 0. -1.
         11    1    3    3    0    0 -0.99715673339E+01  0.33444137082E+02 -0.57019960960E+02  0.66852213188E+02  0.00000000000E+00 0.  1.
</event>
<event>
 8    1  0.5900800E-006  0.1158032E+03  0.7561462E-02  0.1250185E+00
          2   -1    0    0  501    0  0.00000000000E+00  0.00000000000E+00  0.83941066624E+03  0.83941066624E+03  0.00000000000E+00 0. -1.
         -2   -1    0    0    0  501 -0.00000000000E+00 -0.00000000000E+00 -0.24561076227E+02  0.24561076227E+02  0.00000000000E+00 0.  1.
         23    2    1    2    0    0  0.29113150308E+02  0.90012076017E+02  0.31292665923E+03  0.33811713755E+03  0.86315440692E+02 0.  0.
         23    2    1    2    0    0 -0.29113150308E+02 -0.90012076017E+02  0.50192293079E+03  0.52585460491E+03  0.12508672077E+03 0.  0.
          5    1    4    4  502    0 -0.20400069036E+02 -0.81939091743E+01  0.36758568112E+03  0.36826621937E+03  0.41800000000E+01 0.  1.
         -5    1    4    4    0  502 -0.87130812720E+01 -0.81818166843E+02  0.13433724966E+03  0.15758838554E+03  0.41800000000E+01 0.  1.
        -11    1    3    3    0    0 -0.30007302404E+02  0.34775686008E+02  0.91730118143E+02  0.10258752902E+03  0.00000000000E+00 0.  1.
         11    1    3    3    0    0  0.59120452712E+02  0.55236390009E+02  0.22119654108E+03  0.23552960854E+03  0.00000000000E+00 0. -1.
</event>
<event>
 8    1  0.5900800E-006  0.9892919E+02  0.7561462E-02  0.1282564E+00
          2   -1    0    0  501    0  0.00000000000E+00  0.00000000000E+00  0.61343262695E+02  0.61343262695E+02  0.00000000000E+00 0. -1.
         -2   -1    0    0    0  501 -0.00000000000E+00 -0.00000000000E+00 -0.22835250201E+03  0.22835250201E+03  0.00000000000E+00 0.  1.
         23    2    1    2    0    0 -0.37869536354E+02 -0.17662761568E+02 -0.53815806068E+02  0.11589818564E+03  0.93755925269E+02 0.  0.
         23    2    1    2    0    0  0.37869536354E+02  0.17662761568E+02 -0.11319343324E+03  0.17379757906E+03  0.12508705060E+03 0.  0.
          5    1    4    4  502    0  0.36538119807E+02  0.50986479492E+02 -0.80096970815E+01  0.63374150388E+02  0.41800000000E+01 0. -1.
         -5    1    4    4    0  502  0.13314165474E+01 -0.33323717924E+02 -0.10518373616E+03  0.11042342867E+03  0.41800000000E+01 0. -1.
        -11    1    3    3    0    0 -0.10767739488E+02  0.37986596425E+02 -0.29955390007E+02  0.49560580223E+02  0.00000000000E+00 0.  1.
         11    1    3    3    0    0 -0.27101796866E+02 -0.55649357993E+02 -0.23860416061E+02  0.66337605421E+02  0.00000000000E+00 0. -1.
</event>
<event>
 8    1  0.5900800E-006  0.6745244E+02  0.7561462E-02  0.1368977E+00
          2   -1    0    0  501    0  0.00000000000E+00  0.00000000000E+00  0.11446685025E+04  0.11446685025E+04  0.00000000000E+00 0. -1.
         -2   -1    0    0    0  501 -0.00000000000E+00 -0.00000000000E+00 -0.22006142386E+02  0.22006142386E+02  0.00000000000E+00 0.  1.
         23    2    1    2    0    0 -0.20213331909E+02  0.30934585721E+02  0.11878388195E+03  0.15435812327E+03  0.91385404894E+02 0.  0.
         23    2    1    2    0    0  0.20213331909E+02 -0.30934585721E+02  0.10038784781E+04  0.10123165216E+04  0.12508882300E+03 0.  0.
          5    1    4    4  502    0  0.11529983934E+02 -0.43055523695E+02  0.11654023799E+03  0.12484317411E+03  0.41800000000E+01 0. -1.
         -5    1    4    4    0  502  0.86833479746E+01  0.12120937975E+02  0.88733824015E+03  0.88747334749E+03  0.41800000000E+01 0. -1.
        -11    1    3    3    0    0 -0.15512716921E+02  0.51381017655E+02  0.12185813926E+03  0.13315426942E+03  0.00000000000E+00 0. -1.
         11    1    3    3    0    0 -0.47006149884E+01 -0.20446431934E+02 -0.30742573061E+01  0.21203853850E+02  0.00000000000E+00 0.  1.
</event>
<event>
 8    1  0.5900800E-006  0.2717071E+03  0.7561462E-02  0.1100307E+00
         -2   -1    0    0    0  501 -0.00000000000E+00  0.00000000000E+00  0.55665142787E+02  0.55665142787E+02  0.00000000000E+00 0.  1.
          2   -1    0    0  501    0  0.00000000000E+00 -0.00000000000E+00 -0.14727655810E+04  0.14727655810E+04  0.00000000000E+00 0. -1.
         23    2    1    2    0    0  0.13515035844E+03  0.22736876249E+03 -0.71044855629E+03  0.76359869389E+03  0.91562222759E+02 0.  0.
         23    2    1    2    0    0 -0.13515035844E+03 -0.22736876249E+03 -0.70665188191E+03  0.76483202988E+03  0.12509587596E+03 0.  0.
          5    1    4    4  502    0 -0.52413496784E+02 -0.15159535454E+03 -0.54418884327E+03  0.56735112206E+03  0.41800000000E+01 0. -1.
         -5    1    4    4    0  502 -0.82736861659E+02 -0.75773407955E+02 -0.16246303864E+03  0.19748090782E+03  0.41800000000E+01 0. -1.
        -11    1    3    3    0    0  0.44434789302E+02  0.30411759284E+02 -0.23415320109E+03  0.24026453584E+03  0.00000000000E+00 0. -1.
         11    1    3    3    0    0  0.90715569140E+02  0.19695700321E+03 -0.47629535519E+03  0.52333415804E+03  0.00000000000E+00 0.  1.
</event>
<event>
 8    1  0.7464749E-006  0.5374772E+03  0.7561462E-02  0.1004435E+00
         -2   -1    0    0    0  501 -0.00000000000E+00  0.00000000000E+00  0.28609511669E+03  0.28609511669E+03  0.00000000000E+00 0.  1.
          2   -1    0    0  501    0  0.00000000000E+00 -0.00000000000E+00 -0.15148459896E+04  0.15148459896E+04  0.00000000000E+00 0. -1.
         23    2    1    2    0    0  0.38195521436E+03  0.37096126156E+03 -0.10357202349E+03  0.54987084200E+03  0.90159500184E+02 0.  0.
         23    2    1    2    0    0 -0.38195521436E+03 -0.37096126156E+03 -0.11251788495E+04  0.12510702643E+04  0.12508924669E+03 0.  0.
          5    1    4    4  502    0 -0.37516121741E+03 -0.34622700122E+03 -0.99507943250E+03  0.11184004760E+04  0.41800000000E+01 0. -1.
         -5    1    4    4    0  502 -0.67939969527E+01 -0.24734260340E+02 -0.13009941695E+03  0.13266978827E+03  0.41800000000E+01 0. -1.
        -11    1    3    3    0    0  0.27095366598E+02  0.63012533797E+02 -0.27523668304E+02  0.73907311029E+02  0.00000000000E+00 0.  1.
         11    1    3    3    0    0  0.35485984777E+03  0.30794872776E+03 -0.76048355183E+02  0.47596353097E+03  0.00000000000E+00 0. -1.
</event>
<event>
 8    1  0.5900800E-006  0.1030752E+03  0.7561462E-02  0.1273959E+00
          1   -1    0    0  501    0  0.00000000000E+00  0.00000000000E+00  0.19753324256E+03  0.19753324256E+03  0.00000000000E+00 0. -1.
         -1   -1    0    0    0  501 -0.00000000000E+00 -0.00000000000E+00 -0.77289639611E+02  0.77289639611E+02  0.00000000000E+00 0.  1.
         23    2    1    2    0    0 -0.23362294359E+02  0.30127877164E+02 -0.13809792018E+01  0.96237377723E+02  0.88352928573E+02 0.  0.
         23    2    1    2    0    0  0.23362294359E+02 -0.30127877164E+02  0.12162458215E+03  0.17858550445E+03  0.12508700026E+03 0.  0.
          5    1    4    4  502    0  0.48130440345E+02 -0.68387511469E+02  0.90169068032E+02  0.12305008835E+03  0.41800000000E+01 0. -1.
         -5    1    4    4    0  502 -0.24768145987E+02  0.38259634306E+02  0.31455514121E+02  0.55535416100E+02  0.41800000000E+01 0. -1.
        -11    1    3    3    0    0  0.12918896246E+02 -0.14313060166E+02 -0.27187357332E+02  0.33330376089E+02  0.00000000000E+00 0.  1.
         11    1    3    3    0    0 -0.36281190604E+02  0.44440937330E+02  0.25806378131E+02  0.62907001634E+02  0.00000000000E+00 0. -1.
</event>
<event>
 8    1  0.5900800E-006  0.1897462E+03  0.7561462E-02  0.1158690E+00
         -3   -1    0    0    0  501 -0.00000000000E+00  0.00000000000E+00  0.27918453574E+03  0.27918453574E+03  0.00000000000E+00 0.  1.
          3   -1    0    0  501    0  0.00000000000E+00 -0.00000000000E+00 -0.12936149763E+03  0.12936149763E+03  0.00000000000E+00 0. -1.
         23    2    1    2    0    0  0.14093225451E+03  0.59427068659E+02  0.70965058101E+02  0.19580338794E+03  0.99546222465E+02 0.  0.
         23    2    1    2    0    0 -0.14093225451E+03 -0.59427068659E+02  0.78857980002E+02  0.21274264543E+03  0.12508946927E+03 0.  0.
          5    1    4    4  502    0 -0.81662433868E+02 -0.96884808679E+02  0.42942643277E+02  0.13385425757E+03  0.41800000000E+01 0.  1.
         -5    1    4    4    0  502 -0.59269820647E+02  0.37457740020E+02  0.35915336726E+02  0.78888387859E+02  0.41800000000E+01 0.  1.
        -11    1    3    3    0    0  0.66987140756E+02  0.81319355915E+02  0.42254874136E+02  0.11351470857E+03  0.00000000000E+00 0.  1.
         11    1    3    3    0    0  0.73945113759E+02 -0.21892287256E+02  0.28710183965E+02  0.82288679376E+02  0.00000000000E+00 0. -1.
</event>
<event>
 8    1  0.5900800E-006  0.1164038E+03  0.7561462E-02  0.1249150E+00
          2   -1    0    0  501    0  0.00000000000E+00  0.00000000000E+00  0.50363968846E+03  0.50363968846E+03  0.00000000000E+00 0. -1.
         -2   -1    0    0    0  501 -0.00000000000E+00 -0.00000000000E+00 -0.34198564058E+02  0.34198564058E+02  0.00000000000E+00 0.  1.
         23    2    1    2    0    0 -0.17057806394E+02  0.66013410801E+02  0.16224663366E+03  0.19921785066E+03  0.93354393173E+02 0.  0.
         23    2    1    2    0    0  0.17057806394E+02 -0.66013410801E+02  0.30719449075E+03  0.33862040186E+03  0.12508629919E+03 0.  0.
          5    1    4    4  502    0 -0.23734340968E+02 -0.90570727672E+02  0.22119173833E+03  0.24022829384E+03  0.41800000000E+01 0. -1.
         -5    1    4    4    0  502  0.40792147362E+02  0.24557316871E+02  0.86002752413E+02  0.98392108021E+02  0.41800000000E+01 0. -1.
        -11    1    3    3    0    0  0.18783089970E+02  0.47221366273E+02  0.25993154219E+02  0.57081572927E+02  0.00000000000E+00 0.  1.
         11    1    3    3    0    0 -0.35840896363E+02  0.18792044528E+02  0.13625347944E+03  0.14213627773E+03  0.00000000000E+00 0. -1.
</event>
<event>
 8    1  0.6775800E-006  0.6604302E+02  0.7561462E-02  0.1374090E+00
          1   -1    0    0  501    0  0.00000000000E+00  0.00000000000E+00  0.26200110686E+02  0.26200110686E+02  0.00000000000E+00 0. -1.
         -1   -1    0    0    0  501 -0.00000000000E+00 -0.00000000000E+00 -0.56550851369E+03  0.56550851369E+03  0.00000000000E+00 0.  1.
         23    2    1    2    0    0  0.48980947720E+02  0.49136699108E+01 -0.30423810495E+03  0.32091553681E+03  0.89457698783E+02 0.  0.
         23    2    1    2    0    0 -0.48980947720E+02 -0.49136699108E+01 -0.23507029805E+03  0.27079308756E+03  0.12509026283E+03 0.  0.
          5    1    4    4  502    0 -0.28198030155E+02  0.70936681702E+01 -0.24330781419E+03  0.24507471081E+03  0.41800000000E+01 0. -1.
         -5    1    4    4    0  502 -0.20782917565E+02 -0.12007338081E+02  0.82375161445E+01  0.25718376747E+02  0.41800000000E+01 0. -1.
        -11    1    3    3    0    0  0.63205436290E+02  0.82358567265E+01 -0.29848724297E+03  0.30521695682E+03  0.00000000000E+00 0.  1.
         11    1    3    3    0    0 -0.14224488570E+02 -0.33221868157E+01 -0.57508619805E+01  0.15698579994E+02  0.00000000000E+00 0. -1.
</event>
<event>
 8    1  0.5900800E-006  0.1266589E+03  0.7561462E-02  0.1232499E+00
         -1   -1    0    0    0  501 -0.00000000000E+00  0.00000000000E+00  0.41674788635E+03  0.41674788635E+03  0.00000000000E+00 0.  1.
          1   -1    0    0  501    0  0.00000000000E+00 -0.00000000000E+00 -0.63411356839E+02  0.63411356839E+02  0.00000000000E+00 0. -1.
         23    2    1    2    0    0  0.10686584672E+03  0.11250774088E+02  0.24485065947E+03  0.28276789606E+03  0.91972542029E+02 0.  0.
         23    2    1    2    0    0 -0.10686584672E+03 -0.11250774088E+02  0.10848587004E+03  0.19739134713E+03  0.12508905152E+03 0.  0.
          5    1    4    4  502    0 -0.62837282971E+02  0.42346953412E+02  0.10265132228E+03  0.12765796082E+03  0.41800000000E+01 0. -1.
         -5    1    4    4    0  502 -0.44028563748E+02 -0.53597727500E+02  0.58345477630E+01  0.69733386311E+02  0.41800000000E+01 0. -1.
        -11    1    3    3    0    0  0.54569848563E+02  0.61930069276E+00  0.31858209482E+02  0.63191751178E+02  0.00000000000E+00 0. -1.
         11    1    3    3    0    0  0.52295998156E+02  0.10631473395E+02  0.21299244999E+03  0.21957614488E+03  0.00000000000E+00 0.  1.
</event>
<event>
 8    1  0.5900800E-006  0.9146782E+02  0.7561462E-02  0.1299336E+00
          2   -1    0    0  501    0  0.00000000000E+00  0.00000000000E+00  0.26679058231E+03  0.26679058231E+03  0.00000000000E+00 0. -1.
         -2   -1    0    0    0  501 -0.00000000000E+00 -0.00000000000E+00 -0.54196899203E+02  0.54196899203E+02  0.00000000000E+00 0.  1.
         23    2    1    2    0    0 -0.29231352846E+01  0.16860909511E+02  0.27686986130E+02  0.97075843197E+02  0.91456629842E+02 0.  0.
         23    2    1    2    0    0  0.29231352846E+01 -0.16860909511E+02  0.18490669698E+03  0.22391163831E+03  0.12511235030E+03 0.  0.
          5    1    4    4  502    0  0.18801514075E+02 -0.64854389472E+02  0.65450362535E+02  0.94131881534E+02  0.41800000000E+01 0.  1.
         -5    1    4    4    0  502 -0.15878378790E+02  0.47993479961E+02  0.11945633444E+03  0.12977975678E+03  0.41800000000E+01 0.  1.
        -11    1    3    3    0    0 -0.55870632581E+01  0.40442009900E+02 -0.18750447544E+02  0.44926058404E+02  0.00000000000E+00 0.  1.
         11    1    3    3    0    0  0.26639279735E+01 -0.23581100389E+02  0.46437433674E+02  0.52149784793E+02  0.00000000000E+00 0. -1.
</event>
<event>
 8    1  0.5900800E-006  0.6950991E+02  0.7561462E-02  0.1361768E+00
         -2   -1    0    0    0  501 -0.00000000000E+00  0.00000000000E+00  0.33246913657E+03  0.33246913657E+03  0.00000000000E+00 0.  1.
          2   -1    0    0  501    0  0.00000000000E+00 -0.00000000000E+00 -0.35748951375E+02  0.35748951375E+02  0.00000000000E+00 0. -1.
         23    2    1    2    0    0  0.12430446363E+01 -0.53602113569E+01  0.16336685555E+03  0.18529652534E+03  0.87268526893E+02 0.  0.
         23    2    1    2    0    0 -0.12430446363E+01  0.53602113569E+01  0.13335332965E+03  0.18292156261E+03  0.12508761135E+03 0.  0.
          5    1    4    4  502    0 -0.20002766032E+02 -0.14641768021E+02  0.14897815112E+03  0.15108426103E+03  0.41800000000E+01 0. -1.
         -5    1    4    4    0  502  0.18759721396E+02  0.20001979378E+02 -0.15624821468E+02  0.31837301579E+02  0.41800000000E+01 0. -1.
        -11    1    3    3    0    0 -0.34041698644E+02 -0.28119276223E+02  0.67762474420E+02  0.80878203994E+02  0.00000000000E+00 0. -1.
         11    1    3    3    0    0  0.35284743280E+02  0.22759064867E+02  0.95604381126E+02  0.10441832134E+03  0.00000000000E+00 0.  1.
</event>
<event>
 8    1  0.5900800E-006  0.2263206E+03  0.7561462E-02  0.1129257E+00
         -1   -1    0    0    0  501 -0.00000000000E+00  0.00000000000E+00  0.73940443283E+02  0.73940443283E+02  0.00000000000E+00 0.  1.
          1   -1    0    0  501    0  0.00000000000E+00 -0.00000000000E+00 -0.74592065276E+03  0.74592065276E+03  0.00000000000E+00 0. -1.
         23    2    1    2    0    0 -0.19465271127E+03  0.59022168796E+02 -0.24443755659E+03  0.33015420182E+03  0.88762511748E+02 0.  0.
         23    2    1    2    0    0  0.19465271127E+03 -0.59022168796E+02 -0.42754265289E+03  0.48970689423E+03  0.12508728073E+03 0.  0.
          5    1    4    4  502    0  0.39210576213E+02  0.38596622929E+02 -0.10070332385E+03  0.11482944058E+03  0.41800000000E+01 0.  1.
         -5    1    4    4    0  502  0.15544213506E+03 -0.97618791725E+02 -0.32683932904E+03  0.37487745365E+03  0.41800000000E+01 0.  1.
        -11    1    3    3    0    0 -0.10552582304E+03  0.65995127527E+02 -0.97281205930E+02  0.15797053274E+03  0.00000000000E+00 0.  1.
         11    1    3    3    0    0 -0.89126888231E+02 -0.69729587315E+01 -0.14715635066E+03  0.17218366908E+03  0.00000000000E+00 0. -1.
</event>
<event>
 8    1  0.5900800E-006  0.1334824E+03  0.7561462E-02  0.1222378E+00
          1   -1    0    0  501    0  0.00000000000E+00  0.00000000000E+00  0.10160037293E+03  0.10160037293E+03  0.00000000000E+00 0. -1.
         -1   -1    0    0    0  501 -0.00000000000E+00 -0.00000000000E+00 -0.22464121821E+03  0.22464121821E+03  0.00000000000E+00 0.  1.
         23    2    1    2    0    0 -0.20319098726E+02 -0.10027760132E+03 -0.80569201093E+02  0.15915129070E+03  0.91483736628E+02 0.  0.
         23    2    1    2    0    0  0.20319098726E+02  0.10027760132E+03 -0.42471644187E+02  0.16709030043E+03  0.12508742878E+03 0.  0.
          5    1    4    4  502    0  0.34133843742E+02 -0.18455246844E+02 -0.24655861324E+02  0.46163831322E+02  0.41800000000E+01 0.  1.
         -5    1    4    4    0  502 -0.13814745016E+02  0.11873284816E+03 -0.17815782863E+02  0.12092646911E+03  0.41800000000E+01 0.  1.
        -11    1    3    3    0    0  0.78079243075E+01 -0.50964055331E+02  0.97493435839E+01  0.52472357657E+02  0.00000000000E+00 0. -1.
         11    1    3    3    0    0 -0.28127023034E+02 -0.49313545988E+02 -0.90318544677E+02  0.10667893304E+03  0.00000000000E+00 0.  1.
</event>
<event>
 8    1  0.5900800E-006  0.9162564E+02  0.7561462E-02  0.1298962E+00
          3   -1    0    0  501    0  0.00000000000E+00  0.00000000000E+00  0.36800071003E+02  0.36800071003E+02  0.00000000000E+00 0. -1.
         -3   -1    0    0    0  501 -0.00000000000E+00 -0.00000000000E+00 -0.33638984742E+03  0.33638984742E+03  0.00000000000E+00 0.  1.
         23    2    1    2    0    0 -0.18670016138E+02 -0.13636657324E+02 -0.13622026727E+03  0.16613607336E+03  0.92253486277E+02 0.  0.
         23    2    1    2    0    0  0.18670016138E+02  0.13636657324E+02 -0.16336950915E+03  0.20705384507E+03  0.12508864981E+03 0.  0.
          5    1    4    4  502    0  0.10646295141E+02  0.55209132394E+02 -0.15329088954E+03  0.16333083333E+03  0.41800000000E+01 0. -1.
         -5    1    4    4    0  502  0.80237209969E+01 -0.41572475071E+02 -0.10078619608E+02  0.43723011737E+02  0.41800000000E+01 0. -1.
        -11    1    3    3    0    0 -0.22126688526E+02  0.31808698927E+02 -0.25456122555E+02  0.46361598852E+02  0.00000000000E+00 0.  1.
         11    1    3    3    0    0  0.34566723882E+01 -0.45445356251E+02 -0.11076414472E+03  0.11977447451E+03  0.00000000000E+00 0. -1.
</event>
<event>
 8    1  0.5900800E-006  0.1520557E+03  0.7561462E-02  0.1197969E+00
         -1   -1    0    0    0  501 -0.00000000000E+00  0.00000000000E+00  0.14608603743E+03  0.14608603743E+03  0.00000000000E+00 0.  1.
          1   -1    0    0  501    0  0.00000000000E+00 -0.00000000000E+00 -0.18442487213E+03  0.18442487213E+03  0.00000000000E+00 0. -1.
         23    2    1    2    0    0 -0.11037558540E+03  0.38063411069E+02  0.16138950926E+01  0.15479462916E+03  0.10162273094E+03 0.  0.
         23    2    1    2    0    0  0.11037558540E+03 -0.38063411069E+02 -0.39952729796E+02  0.17571628041E+03  0.12509355486E+03 0.  0.
          5    1    4    4  502    0  0.13550035683E+03 -0.47686762028E+02 -0.30617359784E+02  0.14693287275E+03  0.41800000000E+01 0.  1.
         -5    1    4    4    0  502 -0.25124771432E+02  0.96233509591E+01 -0.93353700121E+01  0.28783407659E+02  0.41800000000E+01 0.  1.
        -11    1    3    3    0    0 -0.25390741767E+02  0.40904432533E+02  0.38949474971E+02  0.61926762945E+02  0.00000000000E+00 0.  1.
         11    1    3    3    0    0 -0.84984843631E+02 -0.28410214646E+01 -0.37335579879E+02  0.92867866213E+02  0.00000000000E+00 0. -1.
</event>
<event>
 8    1  0.5900800E-006  0.8462125E+02  0.7561462E-02  0.1316426E+00
         -3   -1    0    0    0  501 -0.00000000000E+00  0.00000000000E+00  0.18443973931E+03  0.18443973931E+03  0.00000000000E+00 0.  1.
          3   -1    0    0  501    0  0.00000000000E+00 -0.00000000000E+00 -0.95984536040E+02  0.95984536040E+02  0.00000000000E+00 0. -1.
         23    2    1    2    0    0  0.15096197303E+01  0.49618108588E+02  0.97930490950E+02  0.14551039581E+03  0.95491667585E+02 0.  0.
         23    2    1    2    0    0 -0.15096197303E+01 -0.49618108588E+02 -0.94752876835E+01  0.13491387954E+03  0.12509091959E+03 0.  0.
          5    1    4    4  502    0 -0.20303870575E+02 -0.39522414102E+02  0.52693724176E+02  0.69053380397E+02  0.41800000000E+01 0. -1.
         -5    1    4    4    0  502  0.18794250844E+02 -0.10095694487E+02 -0.62169011860E+02  0.65860499145E+02  0.41800000000E+01 0. -1.
        -11    1    3    3    0    0  0.44804203600E+02  0.14392223021E+02  0.23852195410E+02  0.52758695678E+02  0.00000000000E+00 0. -1.
         11    1    3    3    0    0 -0.43294583870E+02  0.35225885568E+02  0.74078295541E+02  0.92751700128E+02  0.00000000000E+00 0.  1.
</event>
<event>
 8    1  0.5900800E-006  0.1031848E+03  0.7561462E-02  0.1273738E+00
          2   -1    0    0  501    0  0.00000000000E+00  0.00000000000E+00  0.38850937805E+03  0.38850937805E+03  0.00000000000E+00 0. -1.
         -2   -1    0    0    0  501 -0.00000000000E+00 -0.00000000000E+00 -0.47739052281E+02  0.47739052281E+02  0.00000000000E+00 0.  1.
         23    2    1    2    0    0 -0.29834164831E+02  0.31104313671E+02  0.45898660278E+02  0.11305540714E+03  0.93900385245E+02 0.  0.
         23    2    1    2    0    0  0.29834164831E+02 -0.31104313671E+02  0.29487166549E+03  0.32319302319E+03  0.12508747103E+03 0.  0.
          5    1    4    4  502    0  0.65986518819E+02 -0.29335179921E+01  0.25111198901E+03  0.25968736900E+03  0.41800000000E+01 0.  1.
         -5    1    4    4    0  502 -0.36152353987E+02 -0.28170795679E+02  0.43759676480E+02  0.63505654186E+02  0.41800000000E+01 0.  1.
        -11    1    3    3    0    0  0.19376949963E+02 -0.16681831769E+02 -0.69119371439E+01  0.26486309221E+02  0.00000000000E+00 0.  1.
         11    1    3    3    0    0 -0.49211114794E+02  0.47786145440E+02  0.52810597422E+02  0.86569097924E+02  0.00000000000E+00 0. -1.
</event>
<event>
 8    1  0.5900800E-006  0.1013743E+03  0.7561462E-02  0.1277432E+00
         -2   -1    0    0    0  501 -0.00000000000E+00  0.00000000000E+00  0.23975076491E+03  0.23975076491E+03  0.00000000000E+00 0.  1.
          2   -1    0    0  501    0  0.00000000000E+00 -0.00000000000E+00 -0.52081726127E+02  0.52081726127E+02  0.00000000000E+00 0. -1.
         23    2    1    2    0    0  0.11281279030E+02  0.20464569396E+02  0.10052088615E+03  0.13759891540E+03  0.91010697782E+02 0.  0.
         23    2    1    2    0    0 -0.11281279030E+02 -0.20464569396E+02  0.87148152634E+02  0.15423357563E+03  0.12508848663E+03 0.  0.
          5    1    4    4  502    0 -0.67887837474E+02 -0.17676064133E+02  0.51866176120E+02  0.87342855148E+02  0.41800000000E+01 0.  1.
         -5    1    4    4    0  502  0.56606558444E+02 -0.27885052636E+01  0.35281976514E+02  0.66890720486E+02  0.41800000000E+01 0.  1.
        -11    1    3    3    0    0 -0.18584801184E+02  0.37072856588E+02  0.12712524871E+02  0.43375105986E+02  0.00000000000E+00 0. -1.
         11    1    3    3    0    0  0.29866080214E+02 -0.16608287192E+02  0.87808361279E+02  0.94223809419E+02  0.00000000000E+00 0.  1.
</event>
<event>
 8    1  0.5900800E-006  0.6272995E+02  0.7561462E-02  0.1386720E+00
          1   -1    0    0  501    0  0.00000000000E+00  0.00000000000E+00  0.21904936179E+03  0.21904936179E+03  0.00000000000E+00 0. -1.
         -1   -1    0    0    0  501 -0.00000000000E+00 -0.00000000000E+00 -0.83055605196E+02  0.83055605196E+02  0.00000000000E+00 0.  1.
         23    2    1    2    0    0  0.28907328300E+02  0.29375682823E+02 -0.28979454075E+02  0.91030560882E+02  0.75816817957E+02 0.  0.
         23    2    1    2    0    0 -0.28907328300E+02 -0.29375682823E+02  0.16497321067E+03  0.21107440611E+03  0.12505071093E+03 0.  0.
          5    1    4    4  502    0 -0.31234066376E+02  0.70666730995E+01  0.17082982900E+03  0.17385570928E+03  0.41800000000E+01 0.  1.
         -5    1    4    4    0  502  0.23267380762E+01 -0.36442355923E+02 -0.58566183331E+01  0.37218696828E+02  0.41800000000E+01 0.  1.
        -11    1    3    3    0    0  0.34693476807E+02  0.98790325917E+01 -0.50083717817E+02  0.61722049612E+02  0.00000000000E+00 0.  1.
         11    1    3    3    0    0 -0.57861485068E+01  0.19496650231E+02  0.21104263742E+02  0.29308511270E+02  0.00000000000E+00 0. -1.
</event>
<event>
 8    1  0.5900800E-006  0.1139784E+03  0.7561462E-02  0.1253375E+00
         -3   -1    0    0    0  501 -0.00000000000E+00  0.00000000000E+00  0.20488102546E+03  0.20488102546E+03  0.00000000000E+00 0.  1.
          3   -1    0    0  501    0  0.00000000000E+00 -0.00000000000E+00 -0.11565638127E+03  0.11565638127E+03  0.00000000000E+00 0. -1.
         23    2    1    2    0    0  0.45025603188E+02 -0.72593627177E+02  0.10952365372E+03  0.16771402265E+03  0.93996930907E+02 0.  0.
         23    2    1    2    0    0 -0.45025603188E+02  0.72593627177E+02 -0.20299009524E+02  0.15282338409E+03  0.12508316149E+03 0.  0.
          5    1    4    4  502    0  0.41328869354E+01  0.71022410022E+02 -0.57046747230E+02  0.91285635504E+02  0.41800000000E+01 0.  1.
         -5    1    4    4    0  502 -0.49158490123E+02  0.15712171541E+01  0.36747737705E+02  0.61537748586E+02  0.41800000000E+01 0.  1.
        -11    1    3    3    0    0  0.60845358735E+02 -0.45575029132E+02  0.29082043692E+02  0.81394141222E+02  0.00000000000E+00 0. -1.
         11    1    3    3    0    0 -0.15819755547E+02 -0.27018598044E+02  0.80441610024E+02  0.86319881424E+02  0.00000000000E+00 0.  1.
</event>
<event>
 8    1  0.5900800E-006  0.1883921E+03  0.7561462E-02  0.1159920E+00
         -2   -1    0    0    0  501 -0.00000000000E+00  0.00000000000E+00  0.36365411569E+02  0.36365411569E+02  0.00000000000E+00 0.  1.
          2   -1    0    0  501    0  0.00000000000E+00 -0.00000000000E+00 -0.11650661316E+04  0.11650661316E+04  0.00000000000E+00 0. -1.
         23    2    1    2    0    0  0.59001484347E+02  0.16367394471E+03 -0.59330854463E+03  0.62474859181E+03  0.89584811793E+02 0.  0.
         23    2    1    2    0    0 -0.59001484347E+02 -0.16367394471E+03 -0.53539217538E+03  0.57668295134E+03  0.12509240414E+03 0.  0.
          5    1    4    4  502    0 -0.17577973296E+02  0.88309326808E+01 -0.10671340192E+02  0.22766651460E+02  0.41800000000E+01 0. -1.
         -5    1    4    4    0  502 -0.41423511051E+02 -0.17250487739E+03 -0.52472083519E+03  0.55391629988E+03  0.41800000000E+01 0. -1.
        -11    1    3    3    0    0  0.65665632854E+02  0.14023927976E+03 -0.57130568916E+03  0.59191994509E+03  0.00000000000E+00 0.  1.
         11    1    3    3    0    0 -0.66641485077E+01  0.23434664953E+02 -0.22002855471E+02  0.32828646723E+02  0.00000000000E+00 0. -1.
</event>
<event>
 8    1  0.5900800E-006  0.1128199E+03  0.7561462E-02  0.1255435E+00
         -1   -1    0    0    0  501 -0.00000000000E+00  0.00000000000E+00  0.32950657279E+03  0.32950657279E+03  0.00000000000E+00 0.  1.
          1   -1    0    0  501    0  0.00000000000E+00 -0.00000000000E+00 -0.40368670539E+02  0.40368670539E+02  0.00000000000E+00 0. -1.
         23    2    1    2    0    0 -0.38540937032E+02 -0.10733741072E+02  0.15111799834E+03  0.17935600185E+03  0.87927862219E+02 0.  0.
         23    2    1    2    0    0  0.38540937032E+02  0.10733741072E+02  0.13801990392E+03  0.19051924148E+03  0.12508984960E+03 0.  0.
          5    1    4    4  502    0 -0.39793733735E+02  0.28008738900E+02  0.69460775833E+02  0.84913499979E+02  0.41800000000E+01 0.  1.
         -5    1    4    4    0  502  0.78334670767E+02 -0.17274997828E+02  0.68559128084E+02  0.10560574150E+03  0.41800000000E+01 0.  1.
        -11    1    3    3    0    0 -0.48848358597E+02 -0.41455214029E+02  0.10467711861E+03  0.12272732405E+03  0.00000000000E+00 0.  1.
         11    1    3    3    0    0  0.10307421565E+02  0.30721472957E+02  0.46440879724E+02  0.56628677801E+02  0.00000000000E+00 0. -1.
</event>
<event>
 8    1  0.5900800E-006  0.1671827E+03  0.7561462E-02  0.1180818E+00
         -1   -1    0    0    0  501 -0.00000000000E+00  0.00000000000E+00  0.19314063851E+03  0.19314063851E+03  0.00000000000E+00 0.  1.
          1   -1    0    0  501    0  0.00000000000E+00 -0.00000000000E+00 -0.17593395503E+03  0.17593395503E+03  0.00000000000E+00 0. -1.
         23    2    1    2    0    0  0.10241525931E+03  0.10620009018E+03  0.22305654393E+02  0.17558920732E+03  0.92556377486E+02 0.  0.
         23    2    1    2    0    0 -0.10241525931E+03 -0.10620009018E+03 -0.50989709149E+01  0.19348538622E+03  0.12507298141E+03 0.  0.
          5    1    4    4  502    0 -0.45827031150E+02 -0.10180027541E+03 -0.48620265408E+02  0.12183930181E+03  0.41800000000E+01 0.  1.
         -5    1    4    4    0  502 -0.56588228164E+02 -0.43998147767E+01  0.43521294493E+02  0.71646084409E+02  0.41800000000E+01 0.  1.
        -11    1    3    3    0    0  0.11285201826E+03  0.82357914629E+02  0.38524880564E+02  0.14492263643E+03  0.00000000000E+00 0.  1.
         11    1    3    3    0    0 -0.10436758946E+02  0.23842175552E+02 -0.16219226171E+02  0.30666570887E+02  0.00000000000E+00 0. -1.
</event>
